191
Lattice="13.114458114950432 0.0 0.0 0.0 13.114458114950432 0.0 0.0 0.0 13.114458114950432" Properties=species:S:1:pos:R:3:forces:R:3 energy=-152925.578125 stress="-0.0029478773940354586 -0.00023753692221362144 -9.425705229659798e-07 -0.00023753692221362144 -0.002414087997749448 -4.2312722143833525e-05 -9.425705229659798e-07 -4.2312722143833525e-05 -0.002132200635969639" pbc="T T T"
N        3.40240142       5.38262489       5.09256599       0.00659963      -0.00237919      -0.00092769
N        2.98962949       5.80067689       3.00813855       0.00499007      -0.00769207       0.00610399
C        4.06181700       4.91245571       6.31125418       0.00034335      -0.00361656       0.00417948
C        3.90045531       3.41039423       6.46722489       0.00022972      -0.00259987       0.00551394
C        4.57854217       2.65750925       5.33564834       0.00038287      -0.00630818       0.00861090
C        3.94315292       5.42958425       3.87097413      -0.00813174      -0.00939611       0.00277334
C        2.07366357       5.70712276       5.00083364       0.00091535       0.00687516       0.03283621
C        1.81777733       5.97899971       3.69427495      -0.01169235       0.01505721      -0.01404276
C        4.56657444       1.15920118       5.54501372       0.00004912      -0.00607926       0.01066685
C        3.15989492       6.04810604       1.58627770      -0.00874753      -0.01972724       0.00094783
H        5.11580192       5.18732707       6.23793168       0.00301796      -0.00517388       0.00100915
H        3.62487961       5.47219049       7.13884435       0.00534977      -0.00200495       0.00301266
H        2.83603829       3.15685415       6.51818114      -0.00010094      -0.00102429       0.00512921
H        4.32994043       3.12363129       7.43051004      -0.00153475      -0.00068933       0.00632194
H        4.06887039       2.86036441       4.39169620       0.00236908      -0.00824434       0.00732371
H        5.60412806       3.02376771       5.23212807       0.00083354      -0.00752385       0.00933057
H        4.96234637       5.18117883       3.62609181      -0.00394303      -0.01905961      -0.00088270
H        1.43652784       5.72371277       5.86626042       0.01164295       0.01960667       0.00255742
H        0.92073651       6.29941749       3.20112433       0.00957564       0.01178055       0.01539826
H        3.54334786       0.78636604       5.56789328       0.00041711      -0.00711694       0.00948204
H        5.05114354       0.88661757       6.48406384      -0.00122935      -0.00525291       0.01151237
H        5.07068407       0.64298972       4.73018952       0.00214653      -0.00644443       0.01215321
H        4.19560986       5.86562623       1.32244695      -0.00452015      -0.01565171       0.00222057
H        2.51936533       5.37442317       1.01934955      -0.00099310      -0.03076512       0.00859934
H        2.90860571       7.08553252       1.36331325      -0.01401620      -0.02564538      -0.01037284
Br      14.53693805      11.77657700       0.48186179       0.02495272      -0.01590791       0.03098939
O        7.02144238       5.06556757       9.85684834       0.01290789      -0.00708912       0.00323245
C        6.54550914       6.34130632       9.46987005       0.01130286      -0.00649220       0.00744507
C        6.46583754       4.03954865       9.05794154       0.01131147      -0.00579315       0.00289373
C        7.14364293       7.38964103      10.37177008       0.01291899      -0.00858086       0.00837836
C        6.97490044       2.70486450       9.53802583       0.00891618      -0.00675827       0.00205961
H        6.81064805       6.53734249       8.41964345       0.00859402      -0.00390179       0.00730354
H        5.44620940       6.35927234       9.52928076       0.01168665      -0.00744224       0.01026566
H        5.36870867       4.08663360       9.12101544       0.01159221      -0.00422945       0.00334695
H        6.73153701       4.19980272       8.00043240       0.01125740      -0.00569216       0.00312433
H        6.77363799       8.37542575      10.09220838       0.01119207      -0.00807710       0.01256438
H        6.87105029       7.20613653      11.41186841       0.01653963      -0.01202740       0.00853847
H        8.23060677       7.39590501      10.28913170       0.01259144      -0.00733780       0.00524308
H        6.53514342       1.89938516       8.94749608       0.00945388      -0.00530782      -0.00011376
H        8.05941932       2.65310877       9.44423062       0.00900550      -0.00796296       0.00403997
H        6.71064022       2.54997059      10.58427321       0.00679210      -0.00818848       0.00106242
O        4.93572316       9.77552319       6.99249295       0.00429520       0.00015172       0.01000876
C        6.31008847       9.94295190       6.67304567       0.00349218      -0.00466269       0.00436263
C        4.68047336       8.47621538       7.47024002       0.00110650      -0.00103620       0.00470400
C        6.51963079      11.34193540       6.15630268       0.00617705      -0.00547856       0.00376502
C        3.22707337       8.34835921       7.85694181       0.00073940       0.00079053       0.00268462
H        6.91567083       9.75508965       7.57150495       0.00639646      -0.00721840       0.00171566
H        6.59638553       9.21258668       5.91253804      -0.00233170      -0.00536802       0.00308195
H        4.94935578       7.74069881       6.69268984      -0.00019125       0.00194836       0.00172701
H        5.32450691       8.27921546       8.33615027       0.00017294      -0.00632495       0.00418109
H        7.56319475      11.49232911       5.87705282       0.00633174      -0.00774694       0.00394782
H        5.90181405      11.51050707       5.27450170       0.00672038      -0.00485466       0.00380050
H        6.25163933      12.08079658       6.91227524       0.00752319      -0.00454965       0.00313081
H        3.02326172       7.34530607       8.23885740      -0.00226336      -0.00031854      -0.00261358
H        2.97715332       9.05857451       8.64510503       0.00196561      -0.00276478       0.00611480
H        2.58137845       8.56177817       7.00625255       0.00208607       0.00675672       0.00327294
O        1.68841498      10.60778571       5.93622303      -0.02210659       0.00581682       0.01323115
C        1.56725136      11.83113850       6.64586821      -0.01666555       0.00889167       0.00838608
C        0.55748857      10.36698873       5.11782157      -0.01238402       0.02164572      -0.00466499
C        2.81157468      12.05973402       7.46505305      -0.02459860      -0.00239014       0.02201244
C        0.71908882       9.01698715       4.46606031      -0.02076321       0.02445558      -0.01029636
H        1.41363034      12.64914103       5.92950536       0.00052634       0.00771904       0.00439695
H        0.67729045      11.79026353       7.29271827      -0.02539834       0.02097578      -0.00377643
H       -0.35088075      10.38753389       5.73655203      -0.02150026       0.02307586      -0.01877525
H        0.46383301      11.15229936       4.35819007       0.00750389       0.02475166      -0.00362480
H        2.78199644      13.04988582       7.92188408      -0.02160662      -0.00168402       0.01947119
H        2.91136782      11.31733975       8.25383815      -0.04193902      -0.00180323       0.02431878
H        3.69275402      11.98525954       6.83378458      -0.01797046      -0.01177458       0.03284566
H       -0.17398616       8.76229329       3.89204801      -0.01964769       0.03095239      -0.01453369
H        1.57326226       9.01989400       3.78883743      -0.01830730       0.01803170      -0.00569750
H        0.87639875       8.25292379       5.22908486      -0.02688238       0.02080571      -0.01424992
O        8.77591602      11.51997626      10.74794852      -0.00136982       0.00588815       0.00024456
C        7.84033880      11.15663838       9.75582611       0.00287133       0.00527579      -0.00332402
C       10.09152516      11.55355644      10.21057949       0.00089222       0.00399627       0.00666910
C        6.44598404      11.14987106      10.33134802       0.00037718       0.00958551      -0.01014662
C       11.08634130      11.89632427      11.28517981      -0.00431949       0.00077285       0.01243556
H        7.90266043      11.85819152       8.90884940       0.00865790       0.00281814      -0.00468600
H        8.09867432      10.16074700       9.36328570       0.00287418       0.00392389       0.00056793
H       10.32238923      10.57257832       9.76975437       0.00133507       0.00426513       0.00673421
H       10.12360538      12.28996877       9.39217881       0.00658181       0.00491834       0.00813919
H        5.72347616      10.86572643       9.56271483       0.00331323       0.00968123      -0.01270995
H        6.37384751      10.44361011      11.15781021      -0.00517322       0.01167893      -0.00905527
H        6.17744036      12.13614047      10.71020235       0.00105713       0.01093815      -0.01329517
H       12.09324264      11.95750144      10.87230978      -0.00249681       0.00108994       0.01762643
H       10.84369975      12.85354081      11.74312085      -0.00655832      -0.00056843       0.01362813
H       11.10108111      11.13984846      12.06718952      -0.00950497      -0.00097378       0.01051416
O        9.91295220       7.61615237       7.19957782       0.01094598      -0.00302527       0.00605444
C       10.43703105       6.35801734       7.58262819       0.01073560      -0.00200623       0.00904268
C       10.80562256       8.68346470       7.46972693       0.01046485      -0.00284475       0.00637609
C        9.45763318       5.28598329       7.17372994       0.00838971      -0.00198245       0.01583789
C       10.21634913       9.95761553       6.91560180       0.01081768      -0.00370651       0.00465159
H       11.41102850       6.20401506       7.09458651       0.00904804      -0.00482132       0.00724822
H       10.60869080       6.33402626       8.66825706       0.01342811       0.00165913       0.00862730
H       10.97154488       8.76294282       8.55392788       0.00893485      -0.00200620       0.00639844
H       11.78230979       8.47404202       7.00760731       0.01098719      -0.00298034       0.00815049
H        9.85874407       4.29590618       7.39409930       0.01039568      -0.00181656       0.01164256
H        8.52350917       5.40218599       7.71950101       0.01287894      -0.00320445       0.02317408
H        9.24618547       5.34749130       6.10568123       0.00066662      -0.00060046       0.01755093
H       10.84376042      10.81095975       7.17436411       0.01130486      -0.00381170       0.00311144
H       10.12880013       9.90573942       5.83021485       0.01074935      -0.00569298       0.00491922
H        9.22364733      10.12866553       7.33031982       0.01113483      -0.00273483       0.00439046
O        6.40284070       8.71078463       3.67816332       0.00416101       0.00133824      -0.00314307
C        5.23995114       8.63914404       2.87107084       0.00175688       0.00626820      -0.00090837
C        7.25247503       7.59583528       3.49267770       0.00079328       0.00046913      -0.00671035
C        4.33559578       9.81052429       3.15071251       0.00610411       0.00754479       0.00741976
C        8.47883472       7.75962731       4.34817216       0.00384560      -0.00408239      -0.00924149
H        5.53456732       8.60226774       1.81037870       0.00027603       0.01318463      -0.00198668
H        4.71746326       7.70001481       3.09513433      -0.00177944       0.00790119      -0.00397579
H        6.72631127       6.66783962       3.76715733      -0.00151291       0.00177076      -0.00768325
H        7.52457361       7.51212067       2.42909273      -0.00255279       0.00173367      -0.00744784
H        3.48149723       9.80088890       2.46944307       0.00467272       0.01812224       0.01431562
H        3.97507600       9.79561813       4.18032396       0.00692102       0.00529474       0.01005518
H        4.85669710      10.75083959       2.98074799       0.00887013       0.00606115       0.01094199
H        9.17308588       6.93639019       4.17244126       0.00174418      -0.00468665      -0.01270561
H        8.98367501       8.69553321       4.10963293       0.00536106      -0.00500126      -0.00926036
H        8.23540929       7.76667811       5.40823814       0.00737821      -0.00633823      -0.00832337
O       11.64658539       3.55269557       2.50399266       0.00083508       0.00167355      -0.01043722
C       11.45416512       3.31419099       1.11329251       0.00855020       0.00683475      -0.01211794
C       11.62744272       4.92309703       2.82101062       0.00145806       0.00088197      -0.00723881
C       11.33863526       1.83096953       0.88652175       0.00984316       0.00756550      -0.01910586
C       11.83369679       5.06683061       4.31026343      -0.00771349      -0.00116894      -0.00596464
H       10.54367474       3.83329402       0.78326251       0.01126742       0.00852917      -0.01569137
H       12.29716041       3.73827903       0.54905662       0.01208198       0.00796600      -0.00537442
H       12.40760008       5.44721515       2.24574669       0.00631705       0.00040920      -0.00105233
H       10.66919273       5.37366339       2.51979881       0.00447980       0.00279357      -0.01304522
H       11.09086385       1.63444278      -0.15578848       0.01561678       0.01360817      -0.02166405
H       12.26933748       1.31021109       1.11081528       0.00795054       0.00689486      -0.01626539
H       10.54940252       1.40784567       1.50852906       0.00572109       0.00435152      -0.02593955
H       11.92103532       6.11806127       4.59525516      -0.01200678      -0.00148438      -0.00443877
H       10.99402291       4.63714868       4.85495627      -0.01030433      -0.00324702      -0.01149219
H       12.73259587       4.53014790       4.61210373      -0.00836465       0.00091088      -0.00046232
O        7.51528948       3.71936132       3.10643294      -0.00020823      -0.00299744      -0.00265728
C        8.52441203       2.81998740       3.57254997       0.00057024      -0.00097436      -0.00152695
C        7.81635249       4.14826919       1.78729363      -0.00126001      -0.00535229      -0.00348195
C        8.15277706       2.24919412       4.91702582       0.00513221       0.00801806       0.00306278
C        6.62270097       4.83078599       1.16906825      -0.00266761      -0.00863448      -0.00394192
H        8.63660692       2.00758420       2.84174969      -0.00263379      -0.00515583       0.00283557
H        9.48621919       3.34145993       3.61700670       0.00105667      -0.00152332      -0.00855924
H        8.67971562       4.82853856       1.80766201      -0.00240710      -0.00410849      -0.00492849
H        8.10492282       3.27997753       1.17944656      -0.00018398      -0.00612080      -0.00164609
H        8.97391220       1.62789225       5.27744282       0.00454018       0.00797815       0.00363136
H        7.97378082       3.03695200       5.65077017       0.01016490       0.01285672      -0.00104894
H        7.26505781       1.62146307       4.84945588       0.00314678       0.01029785       0.01048856
H        6.85726719       5.13275195       0.14633014      -0.00531558      -0.01392955      -0.00592752
H        5.77046751       4.15014898       1.13853785      -0.00219202      -0.00916886       0.00149552
H        6.35552003       5.72565353       1.73099517      -0.00175418      -0.00609142      -0.00779308
O        9.01082822      11.22805814       1.43166000       0.00913994       0.00360894      -0.00397088
C        7.98864790      10.33929961       1.03061853       0.00810850       0.00970660      -0.01434244
C       10.20983557      10.55657283       1.77141415       0.00481653      -0.00205454      -0.00163327
C        6.74329163      11.15098472       0.78124397       0.01026860       0.01477942      -0.00737367
C       11.24704511      11.58087375       2.13482159       0.00560686      -0.00802732       0.01189703
H        8.30036058       9.79791891       0.12404350       0.00815970       0.01871723      -0.01934475
H        7.81049564       9.60370918       1.82637257       0.00587201       0.00169307      -0.02242219
H       10.01956936       9.86434871       2.60715437      -0.00221524      -0.00716695      -0.00778687
H       10.55360622       9.94755898       0.92183342       0.00835106       0.00250241      -0.00323808
H        5.90732660      10.52298865       0.47090837       0.00892153       0.01920508      -0.01181848
H        6.45838677      11.66692028       1.69560787       0.01237655       0.00809554      -0.00322011
H        6.92999716      11.89422007       0.00814401       0.01153769       0.02033083      -0.00156789
H       12.19611650      11.10757006       2.37949895       0.00241929      -0.01304872       0.01403636
H       11.44986919      12.22616550       1.28403407       0.01311008      -0.00248034       0.01820114
H       10.90852490      12.19302967       2.97354841       0.00269487      -0.01323985       0.01417589
O        2.64088478       3.78395255      11.38907488      -0.01006660      -0.00197726      -0.00962215
C        3.18675858       5.07766019      11.27487950      -0.00713494      -0.00365829      -0.01312327
C        3.64299571       2.77320300      11.34599367      -0.01377589      -0.00502205      -0.01504862
C        2.06160303       6.08448647      11.25348270      -0.00376979      -0.00009647      -0.00688660
C        2.98795543       1.41826930      11.31509099      -0.01807070      -0.00273907      -0.01283244
H        3.88720898       5.27272882      12.10395765      -0.00183237      -0.00534262      -0.01735586
H        3.78313847       5.15300847      10.35249553      -0.01248316      -0.00585497      -0.01674774
H        4.26706650       2.92521995      10.45508933      -0.01730341      -0.00682226      -0.01773682
H        4.30450934       2.88204562      12.21861050      -0.00937000      -0.00823280      -0.01831406
H        2.45490649       7.10188649      11.23017614      -0.00008211      -0.00196531      -0.01299158
H        1.43456685       5.93352360      10.37442257      -0.01141998       0.00007693      -0.00125925
H        1.42668928       5.97422255      12.13358303       0.00315704       0.00523215      -0.00160371
H        3.73787756       0.62927288      11.39181400      -0.02001807      -0.00483103      -0.01903735
H        2.29514963       1.27857513      12.14304610      -0.01229684      -0.00117215      -0.00804126
H        2.43623944       1.27801301      10.38502560      -0.02438828       0.00062601      -0.00955239
O        3.19422107       1.53636115       2.75738388      -0.00767471       0.01508483      -0.00311261
C        1.82155789       1.77888156       2.47133752      -0.00906575       0.00664613      -0.00236928
C        4.01163905       1.73487494       1.62173530      -0.01191622      -0.00811858      -0.01006369
C        1.00034047       1.24934140       3.61725976      -0.00491402       0.00715946       0.00062418
C        5.44014406       1.40535401       1.97821924      -0.01211178      -0.00622672      -0.00860521
H        1.66165550       2.86293035       2.33086897      -0.01530359       0.00475556      -0.00791029
H        1.54996727       1.25785244       1.54568009      -0.00710606       0.00024417       0.00092512
H        3.65427616       1.09858399       0.80536345      -0.01684141      -0.02274737       0.00400570
H        3.92536652       2.78622482       1.29177794      -0.01002863      -0.01458907      -0.02914247
H       -0.05269800       1.48428307       3.46640488      -0.00527465       0.00693531       0.00436085
H        1.12042189       0.16714364       3.66735920      -0.00412154       0.00738856       0.00001547
H        1.32077740       1.68994393       4.56487416      -0.00153017       0.00726766      -0.00077286
H        6.09113120       1.54468460       1.11246991      -0.01422396      -0.02325396      -0.01243684
H        5.80975296       2.04221476       2.78057104      -0.00798130       0.00562640      -0.02011316
H        5.51447461       0.36447438       2.28877965      -0.01484816      -0.00085238       0.00882145
