200
Lattice="13.3706521040073 0.0 0.0 0.0 13.3706521040073 0.0 0.0 0.0 13.3706521040073" Properties=species:S:1:pos:R:3:forces:R:3 energy=-106268.75 stress="-0.0024373424239456654 -0.0010888866381719708 0.00047071299923118204 -0.0010888866381719708 -0.0031562920194119215 0.0005537736287806183 0.00047071299923118204 0.0005537736287806183 -0.003880918025970459" pbc="T T T"
N        4.15105653       1.87421763       4.44473039       0.00959456      -0.00459834      -0.00132115
N        6.22550640       1.33855320       4.79420067      -0.01180965       0.00326481      -0.00123897
C        2.90600322       2.24913514       3.76128469      -0.00420773      -0.00224482      -0.00235906
C        2.68213208       3.75155071       3.79800437      -0.00624257      -0.00493327       0.00119087
C        3.74800965       4.52272644       3.03307239      -0.00893432      -0.00118738       0.00226709
C        5.32138679       1.62393919       3.85285535      -0.00384773      -0.00628629       0.00474215
C        4.32147534       1.76928351       5.80429048      -0.02837642       0.01510594       0.00152081
C        5.62210596       1.43086941       6.02485309       0.02199295       0.00365809       0.01226383
C        3.55464564       6.02561692       3.12706367      -0.01294307      -0.00173345       0.00543350
C        7.61080679       0.97326174       4.54126468      -0.00066310      -0.00336747       0.00555260
H        2.97514497       1.89307901       2.73312319       0.00111088      -0.00074292      -0.00460160
H        2.09886549       1.69371318       4.23922252      -0.00147751      -0.00770232      -0.00637564
H        2.64147453       4.09428762       4.83842635      -0.00560421      -0.00803275       0.00189120
H        1.69455682       3.94505663       3.37154717      -0.00677758      -0.00657361       0.00296851
H        4.73993516       4.26915473       3.41915018      -0.00791380       0.00112210       0.00052725
H        3.73313824       4.21087769       1.98439603      -0.00891319       0.00243469       0.00190940
H        5.51020946       1.64482432       2.79441567      -0.00198135      -0.01514404      -0.00370397
H        3.51064344       1.92271704       6.49396311       0.00573735       0.01355655      -0.00697735
H        6.16446222       1.27669331       6.94162167      -0.00703712       0.01893786      -0.00495196
H        3.45794519       6.34168148       4.16861847      -0.01121882      -0.00324176       0.00637479
H        2.65590597       6.33842189       2.59263080      -0.01464115      -0.00277571       0.00798698
H        4.39971280       6.55765524       2.69180570      -0.01473615       0.00186605       0.00412892
H        7.78318848       0.97695015       3.46918626      -0.00256899      -0.01410002       0.00474498
H        8.28230557       1.69385192       5.00582704      -0.00211309       0.00092730      -0.00304782
H        7.80402521      -0.02457256       4.93278614      -0.00379147       0.00170633       0.01577635
O       13.46013381      13.54323642       1.28419219      -0.00083113      -0.00419867       0.01834571
O       11.58708428      13.56636751       0.03053931       0.01650858       0.00371969      -0.00551081
C       12.52626948      11.46327723       0.59357395       0.01496720       0.00083661      -0.01583822
C       12.53680822      12.99893158       0.62933907       0.00972133       0.00017726       0.00064144
H       11.83953648      11.10998807       1.36495042       0.02267420      -0.00979244      -0.01409418
H       13.50638210      11.03937119       0.81032495       0.01778260       0.00216989      -0.02733858
H       12.15674008      11.07882409      -0.35840558       0.00987875       0.00993175      -0.01722949
C       11.46378428      12.37806424      10.29841747       0.00078594       0.02445670       0.00250515
C       12.58160543      12.00858942       9.55808297       0.00163350       0.02125347       0.00571613
C       10.31641792      12.80720659       9.64022534      -0.00069708       0.01239087      -0.00159552
C       12.56361527      12.09348360       8.16851918       0.00057217       0.00641158       0.00553152
C       10.29364481      12.88871244       8.25249317      -0.00213224      -0.00185308      -0.00175677
C       11.42104708      12.54253917       7.51492412      -0.00095331      -0.00498111       0.00126724
H       11.48260747      12.37484488      11.38263775       0.00202835       0.03663962       0.00258195
H       13.47574894      11.66627607      10.06632235       0.00340667       0.03108123       0.00892216
H        9.44590594      13.08677819      10.22200619      -0.00190233       0.01455630      -0.00429027
H       13.44224287      11.81345890       7.59854287       0.00130977       0.00434565       0.00798281
H        9.40119794      13.23327995       7.74269766      -0.00338973      -0.01078224      -0.00487684
H       11.41201881      12.63720009       6.43590284      -0.00192881      -0.01616673       0.00080690
C        5.99373420       4.47544928       9.47894924       0.00002959      -0.00360465      -0.01662242
C        7.31097952       4.88263060       9.31077444       0.00074700      -0.00499858      -0.01304206
C        5.67760276       3.12394706       9.51067864      -0.00090681      -0.00331817      -0.01039312
C        8.30977650       3.92919565       9.15928074       0.00119767      -0.00583355      -0.00350010
C        6.68147546       2.17229706       9.35893238       0.00001653      -0.00430395      -0.00130023
C        7.99860901       2.57631531       9.17527799       0.00073276      -0.00542338       0.00197626
H        5.20299991       5.20541063       9.59317241       0.00022602      -0.00244754      -0.02416014
H        7.56328499       5.93601035       9.30444815       0.00094607      -0.00519225      -0.01850045
H        4.65476887       2.81826221       9.67848155      -0.00119272      -0.00259050      -0.01331775
H        9.33791594       4.23695952       9.04753708       0.00147167      -0.00683266      -0.00119448
H        6.44326666       1.11538243       9.40164699      -0.00103568      -0.00352307       0.00321523
H        8.78969675       1.84462531       9.06954368       0.00029147      -0.00654558       0.00847952
C        9.83285482       8.03137067       9.09123477      -0.01028433       0.01229805       0.01305616
C       10.21435507       6.70730341       8.90847136      -0.00582153       0.01392812       0.01251122
C       10.33468213       8.75652858      10.16512471      -0.00890175       0.01496862       0.01048665
C       11.08944797       6.10399839       9.79820920      -0.00094988       0.01777495       0.00961539
C       11.22598232       8.15515342      11.04796598      -0.00404191       0.01882919       0.00778618
C       11.60283672       6.83280420      10.86021472      -0.00035015       0.02025330       0.00739437
H        9.15280822       8.49716039       8.38799409      -0.01479316       0.00930020       0.01576393
H        9.82933174       6.15012939       8.06633882      -0.00630891       0.01243775       0.01375189
H       10.05039133       9.79142973      10.30528414      -0.01255296       0.01365879       0.01070284
H       11.39138152       5.07311935       9.65890448       0.00226798       0.01885599       0.00938198
H       11.62882972       8.72212837      11.87896152      -0.00321449       0.02087603       0.00578602
H       12.30582610       6.36207953      11.53153466       0.00364102       0.02345015       0.00557849
C        6.51542652      11.32561459       0.47328513       0.00958678       0.00532380      -0.01931209
C        7.62540248      12.16026189       0.50880218       0.01060375       0.00419372      -0.03301671
C        6.65987716       9.96687129       0.72864932       0.00963229       0.00723846      -0.01075854
C        8.88964825      11.63958090       0.77711522       0.01153724       0.00509007      -0.03579865
C        7.91300966       9.44515681       1.01499928       0.01099196       0.00860645      -0.01470042
C        9.02661373      10.27901610       1.02861644       0.01122479       0.00738060      -0.02649567
H        5.53152516      11.72298913       0.26064972       0.00887322       0.00510577      -0.01631264
H        7.51361673      13.22239778       0.31738606       0.01118760       0.00264515      -0.03969974
H        5.78927009       9.32518216       0.72146948       0.00950952       0.00745574      -0.00262212
H        9.76032372      12.28809477       0.75504233       0.01173779       0.00452159      -0.04488014
H        8.02582502       8.38915924       1.23210228       0.01143862       0.01003250      -0.00811224
H       10.00141239       9.86219341       1.24185298       0.01212196       0.00790052      -0.02888224
C        2.62178186      11.38147417       5.97820063      -0.00126699       0.00908761       0.01463687
C        1.95403727      10.16485828       5.94637207      -0.00039454       0.00938657       0.00621035
C        3.93595752      11.43858538       6.42906339      -0.00227490       0.00707866       0.01699876
C        2.59695247       9.00671675       6.36665373      -0.00050789       0.00713582      -0.00127333
C        4.57781545      10.28483926       6.85570499      -0.00231984       0.00497240       0.01012933
C        3.90377986       9.07041411       6.82806490      -0.00096267       0.00444061       0.00050692
H        2.12533719      12.27895412       5.62714806      -0.00186139       0.01133671       0.02122214
H        0.93288523      10.10784082       5.59264536      -0.00029932       0.01118895       0.00549854
H        4.46274501      12.38395924       6.43570885      -0.00358335       0.00759266       0.02592007
H        2.06873595       8.06180377       6.35502364       0.00038500       0.00711453      -0.00877216
H        5.59227985      10.32857137       7.23302273      -0.00344060       0.00310964       0.01279102
H        4.38795940       8.18159533       7.20625209      -0.00055136       0.00233784      -0.00640298
C       10.11715913       2.59441467       2.84596617       0.00519313      -0.00232882       0.00183740
C       10.70040818       3.73729927       3.37820435      -0.00513443      -0.00270854       0.01251339
C       10.68798160       1.34800699       3.07060704       0.01149580       0.00002551      -0.00411510
C       11.85454818       3.63255689       4.14473491      -0.00890155      -0.00090690       0.01786855
C       11.83847691       1.24118284       3.84360432       0.00827283       0.00185642       0.00061604
C       12.41516269       2.38252506       4.38671446      -0.00208630       0.00131861       0.01160029
H        9.24492441       2.69090774       2.21138305       0.00769125      -0.00377209      -0.00208633
H       10.26727687       4.70692226       3.16884188      -0.00983679      -0.00390542       0.01758855
H       10.26583357       0.46586092       2.60511022       0.01990373       0.00091492      -0.01282767
H       12.32462354       4.52582347       4.53647659      -0.01718770      -0.00107174       0.02738216
H       12.30715163       0.27532717       3.98039487       0.01413972       0.00425340      -0.00520937
H       13.31086020       2.30073444       4.99136065      -0.00453242       0.00300647       0.01533361
C        6.05650190       5.50827316       5.53626541       0.00946184      -0.00715128       0.00335074
C        6.16842513       6.89278094       5.53728976       0.00400977      -0.00695087      -0.00509798
C        7.19126231       4.72061210       5.67070099       0.01158100      -0.00154488       0.01192304
C        7.40863246       7.48605527       5.73270603       0.00142755      -0.00112882      -0.00730030
C        8.43851348       5.31127782       5.82516232       0.00900693       0.00385486       0.01110875
C        8.54339584       6.69596199       5.87675603       0.00370723       0.00433280       0.00059316
H        5.08147887       5.04827242       5.44120694       0.01149382      -0.01150779       0.00410888
H        5.29156731       7.50927108       5.40088428       0.00205906      -0.01100720      -0.00974316
H        7.10221173       3.64344242       5.67866457       0.01593301      -0.00184124       0.02082385
H        7.48605209       8.56589819       5.77754570      -0.00261644      -0.00072242      -0.01499411
H        9.32313532       4.69294631       5.91634700       0.01034203       0.00778417       0.01910285
H        9.51108496       7.15820645       6.02216101       0.00161304       0.00882230      -0.00042842
C       10.62242762       3.23178895      13.06312998      -0.00400580      -0.00920403      -0.00399806
C       11.20682869       4.43236226      13.45221482      -0.00901847      -0.00832638      -0.00033697
C        9.28035428       3.22245667      12.69530807      -0.00294702      -0.01275015      -0.00690985
C       10.46155269       5.60550554      13.47136151      -0.01228578      -0.01102890       0.00100537
C        8.52823539       4.39318672      12.72083452      -0.00642940      -0.01560147      -0.00632033
C        9.12070179       5.58893189      13.10752699      -0.01146734      -0.01472329      -0.00234612
H       11.18598421       2.30229025      13.08518871      -0.00116248      -0.00721666      -0.00423605
H       12.24897311       4.44282645      13.75320846      -0.00974831      -0.00569041       0.00247701
H        8.81842645       2.29181514      12.38837823       0.00074328      -0.01352005      -0.00969286
H       10.92324591       6.54565228      13.74486609      -0.01643980      -0.01067631       0.00559615
H        7.48762146       4.37678035      12.42093821      -0.00571702      -0.01832998      -0.00859003
H        8.55427465       6.51231594      13.09859657      -0.01471647      -0.01698972      -0.00080408
C       12.58535960       8.15932464       6.83297374      -0.00009914      -0.01278323       0.01233529
C       12.71427743       6.91397660       6.22968450       0.00501151      -0.01138626       0.01030581
C       13.15665324       8.39306858       8.07642912       0.00589635      -0.00982562       0.00936201
C       13.41379563       5.89935947       6.87524854       0.01644299      -0.00663627       0.00446954
C       13.85684351       7.38165532       8.71820691       0.01601097      -0.00590695       0.00392455
C       13.98798549       6.13465294       8.11873102       0.02260446      -0.00481346       0.00193761
H       12.03626616       8.94682290       6.33258069      -0.00798593      -0.01683868       0.01653643
H       12.26633132       6.74234420       5.25947908       0.00049727      -0.01355015       0.01305158
H       13.03878063       9.36008563       8.54782977       0.00240070      -0.01138376       0.01103276
H       13.49634844       4.92039604       6.41850257       0.02264220      -0.00473882       0.00269136
H       14.27278890       7.55631843       9.70184644       0.02067317      -0.00515598       0.00161843
H       14.50983843       5.33746206       8.63397321       0.03294687      -0.00033699      -0.00361276
C        3.59392904       5.77922016      -0.24948279      -0.00786019      -0.01231785      -0.01026366
C        2.22322453       5.54213818      -0.23635719      -0.00779296      -0.01112124      -0.00889206
C        4.07637567       7.07752280      -0.14612740      -0.00637038      -0.01351787      -0.00731479
C        1.33984582       6.61167516      -0.12888706      -0.00639994      -0.01080441      -0.00402634
C        3.19384699       8.14710867      -0.06598003      -0.00521625      -0.01306865      -0.00206692
C        1.82433808       7.91395357      -0.05949142      -0.00525746      -0.01182820      -0.00053619
H        4.28802696       4.95167180      -0.33519403      -0.00922996      -0.01301578      -0.01432498
H        1.84712988       4.52849781      -0.30711588      -0.00908494      -0.01020017      -0.01207034
H        5.14393551       7.25858760      -0.15210926      -0.00651914      -0.01412285      -0.00897996
H        0.27208583       6.43268415      -0.10274565      -0.00629075      -0.00997112      -0.00303528
H        3.56718530       9.16218432      -0.02655096      -0.00433479      -0.01374692       0.00106527
H        1.13455198       8.74802710      -0.00860292      -0.00444325      -0.01160644       0.00317559
C        5.86611959       9.08666746      10.77180437       0.01563707       0.00695727      -0.01559290
C        5.34217824      10.37164999      10.68990340      -0.00322548       0.00000611      -0.00091156
C        5.08142718       8.00028677      10.40713833       0.02555988      -0.00130609      -0.01187153
C        4.03875126      10.56267065      10.24780008      -0.01097132      -0.01478922       0.01791818
C        3.77924239       8.19095217       9.96357263       0.01850064      -0.01579401       0.00489965
C        3.25801587       9.47426198       9.88370313       0.00021943      -0.02284715       0.01960416
H        6.87348199       8.93031562      11.13822473       0.02183114       0.01864489      -0.03055700
H        5.94964583      11.21892664      10.98205879      -0.01110476       0.00583389      -0.00365873
H        5.47846423       6.99983944      10.50383042       0.04098858       0.00418979      -0.02362168
H        3.63408860      11.56085405      10.17516454      -0.02590004      -0.02001241       0.03153824
H        3.17115726       7.34134281       9.67829001       0.02624989      -0.02206563       0.00798349
H        2.25680672       9.63609117       9.50348310      -0.00685205      -0.03439410       0.03514311
C        2.62313140      11.72290121       2.27272121      -0.00618751      -0.00088997      -0.00606256
C        2.46711850      10.35739679       2.45999395      -0.00496228      -0.00006776      -0.00035444
C        3.83146551      12.30761753       2.63812936      -0.00625234       0.00112639      -0.01171675
C        3.48702010       9.59358393       3.01598758      -0.00363947       0.00318550       0.00126694
C        4.85413990      11.55429859       3.19710023      -0.00431141       0.00468117      -0.01093924
C        4.68102459      10.18958251       3.39045079      -0.00360647       0.00558488      -0.00383435
H        1.81673814      12.32310998       1.85287064      -0.00787461      -0.00293382      -0.00509748
H        1.54810370       9.87636548       2.15676742      -0.00512969      -0.00133849       0.00353397
H        3.97477877      13.36121348       2.44724435      -0.00788026       0.00063960      -0.01638342
H        3.34663152       8.53148450       3.15022942      -0.00300323       0.00404660       0.00705894
H        5.80215825      12.01301845       3.45432588      -0.00423579       0.00599777      -0.01562086
H        5.47929722       9.59350048       3.81483012      -0.00284316       0.00851934      -0.00193769
C       10.13021937       9.13580977       3.99487438      -0.00008859       0.00280054      -0.01198655
C       10.30876431       7.89194772       3.39938506       0.00694619       0.00154827      -0.00692619
C       11.18272599      10.04039355       4.04603586      -0.00211595       0.00465822      -0.00577606
C       11.54689281       7.54987914       2.86846175       0.01137502       0.00231829       0.00409853
C       12.41811903       9.70123379       3.50660791       0.00261340       0.00520268       0.00510325
C       12.60131405       8.45445658       2.92039714       0.00911354       0.00380158       0.01051042
H        9.16539391       9.40437907       4.40393515      -0.00357045       0.00235027      -0.02099016
H        9.48438562       7.19156811       3.35686489       0.00855057       0.00026408      -0.01119614
H       11.04003894      11.01313641       4.50105600      -0.00751428       0.00547504      -0.01042534
H       11.69116931       6.57366412       2.42333106       0.01668696       0.00156564       0.00743327
H       13.23086559      10.41532259       3.52627808       0.00085986       0.00668262       0.00910131
H       13.56219934       8.18089599       2.50150785       0.01279429       0.00426703       0.01916539
C        1.64129009       0.84785898      11.37510810      -0.01362972       0.00108151       0.00913236
C        2.30198726       0.79760048      10.15118512      -0.01614870      -0.00508172       0.00811744
C        2.35453548       0.70289016      12.56010986      -0.01108640       0.00975757       0.00797457
C        3.67732254       0.60340263      10.11305067      -0.01606441      -0.00313707       0.00647386
C        3.73246094       0.51612468      12.51418860      -0.01130114       0.01138313       0.00637975
C        4.39673342       0.46943048      11.29644551      -0.01376018       0.00458230       0.00534653
H        0.56709008       0.98020185      11.41549397      -0.01363540      -0.00066113       0.01022810
H        1.74006271       0.89193173       9.22922376      -0.01846387      -0.01179353       0.00919808
H        1.80689627       0.70389892      13.49705490      -0.00862607       0.01417133       0.00933167
H        4.18700700       0.53487212       9.15824750      -0.01789508      -0.00809895       0.00591557
H        4.29141433       0.38040167      13.43296495      -0.00896114       0.01792308       0.00564461
H        5.46830898       0.31370958      11.27259260      -0.01382228       0.00667238       0.00438040
