199
Lattice="18.552922295812575 0.0 0.0 0.0 18.552922295812575 0.0 0.0 0.0 18.552922295812575" Properties=species:S:1:pos:R:3:forces:R:3 energy=-1847242.375 stress="-0.0006468003266490996 0.00024304263934027404 6.327663504634984e-05 0.00024304263934027404 -0.0005442864494398236 -0.0001529278015368618 6.327663504634984e-05 -0.0001529278015368618 -0.0006325177382677794" pbc="T T T"
N       12.32219957      15.59997137       2.04381548       0.01519556      -0.01515734       0.00298154
N       11.40328666      13.73113377       2.64550501       0.02197257       0.01105615      -0.00913790
C       13.33384295      16.58660937       1.61733724       0.01141405       0.00188953      -0.00304686
C       12.56566973      14.32544018       2.34726616      -0.02372158       0.02059251       0.00195385
C       10.97303954      15.82917031       2.15147032       0.01227748      -0.01764178      -0.00504004
C       10.39369398      14.65882445       2.53403378       0.02581638       0.01534069      -0.01848632
C       13.49116113      16.63039506       0.11087988       0.00985714      -0.00456891      -0.00358683
C       11.22792547      12.34924769       3.07245684       0.00075047       0.00263011      -0.00728580
H       13.00989346      17.54705913       2.01846846       0.01443531       0.00189045      -0.00824688
H       14.28487408      16.31657862       2.08458054       0.01263708      -0.00234547      -0.00356109
H       13.53477367      13.85546853       2.34878888       0.01771027      -0.00221236       0.00841707
H       10.55002075      16.79982594       1.96825187       0.01175908       0.00829579      -0.01530595
H        9.36888747      14.40053441       2.73236266       0.00299915       0.00322710      -0.01945092
H       13.81817217      15.66302355      -0.26990595       0.00112080      -0.00844343      -0.00232051
H       14.27017579      17.35339306      -0.12987843       0.01284456      -0.01136589      -0.01002601
H       12.56377588      16.91511068      -0.38928154       0.00881200       0.00104154       0.00103199
H       11.92712514      11.71429726       2.53611046       0.00249940       0.00286192      -0.00734802
H       11.39743879      12.26190258       4.14420186      -0.00011946       0.00224220      -0.00817335
H       10.21333195      12.04293324       2.83308359       0.00423071       0.00573879      -0.01013433
O       17.95835217      17.93703656       2.23424597       0.00428867      -0.01371312       0.00215721
O       18.57995052      15.86555818       0.76831748      -0.01236987      -0.01159608      -0.00808346
O       16.69007840      17.48430116       0.00142026      -0.02129471      -0.01022422       0.01460791
O       16.31280301      15.90580628       2.04941667       0.00240290      -0.01194441       0.01654255
Mn      17.39762592      16.79828393       1.25477797      -0.00672376      -0.01163449       0.00638877
Cl      14.44307287      11.45556298       4.15930486      -0.00833160      -0.00380228       0.00375086
Cl      13.67917525      13.59132200       5.96510835       0.00050563       0.00699833      -0.00651148
Cl      16.48446533      13.02618836       5.47077865      -0.00237232      -0.00849284      -0.00008174
Cl      14.88024882      11.17236283       7.01588220      -0.01238779       0.00552793       0.00403628
C       14.88691865      12.31255423       5.65510168      -0.00541539      -0.00032003       0.00038544
Cl       5.48437395       5.44736578       0.27660336      -0.01561227       0.01968548       0.00085057
Cl       8.07687601       6.34476437      -0.63602972       0.00022933      -0.01562735       0.01344332
Cl       7.12392997       7.10228555       1.99808118       0.00002959      -0.01011384       0.01302242
Cl       5.90179665       8.24344594      -0.36952185       0.02438909       0.01394510       0.01090010
C        6.64775451       6.78669825       0.31480467       0.00260788       0.00186360       0.00926249
Cl      13.78145700       2.09731009       3.43130194       0.00629161      -0.01116564       0.00320369
Cl      14.70890727       4.04058750       1.48509390      -0.00235628       0.00203484       0.01216300
Cl      12.83375273       1.97554648       0.69044846      -0.00375268       0.00718474       0.00685701
Cl      15.57514009       1.27986571       1.30422109      -0.00165486       0.00379848      -0.00705847
C       14.24806276       2.35114938       1.72022222      -0.00032301       0.00064411       0.00364102
Cl      18.32083712      17.91706251       7.41292654       0.00242984       0.02380176       0.00819364
Cl      15.99171687      16.26294329       6.94823909       0.02031246       0.00786662      -0.01405771
Cl      17.13515394      17.79490612       4.77122059       0.01414111       0.02870029       0.00194836
Cl      15.73855771      19.14978403       6.93271964      -0.00406668       0.00551176       0.00095262
C       16.79941164      17.78007689       6.49794045       0.00867532       0.01777395      -0.00013009
Cl       4.12338279       9.46568295       2.88744453       0.01861277       0.00465286      -0.00103882
Cl       2.00323943      10.57939565       4.52006681       0.00995588      -0.01356344      -0.00092506
Cl       2.53581453      11.67157562       1.88393600       0.00376561      -0.00740281       0.00186297
Cl       4.41195468      12.11185787       4.04789025       0.00150681       0.00230208       0.00283404
C        3.26750070      10.95902428       3.33017636       0.00824985      -0.00297203       0.00082104
Cl      11.50340823       4.22757966      14.17755087      -0.00859940       0.00113165      -0.00213489
Cl      11.30234452       7.06498086      13.56717526      -0.00550839       0.00116089      -0.00074397
Cl       8.97279272       5.62031288      14.47404608      -0.00786862       0.00138956      -0.00748119
Cl      10.08000837       5.09655044      11.83304334      -0.00070918       0.00485501      -0.00557375
C       10.47207151       5.49621421      13.51200236      -0.00575706       0.00219101      -0.00409171
Cl       7.30751203      12.23665182       1.58277320       0.00399289      -0.00450791      -0.00379629
Cl       7.84999763      14.09727213      -0.58750736       0.00688268      -0.00039673      -0.00020492
Cl       5.43231054      14.36378319       0.98626582       0.01320130       0.00241902       0.00828081
Cl       5.72933895      12.13132083      -0.84680076      -0.00735877       0.01357497       0.00239924
C        6.56645067      13.21109132       0.27915233       0.00613082       0.00213700       0.00159782
Cl       2.32609806       7.26630249      18.42334778       0.00976282       0.01396467      -0.00583014
Cl      -0.42303952       7.71669837      19.17627233       0.00822607       0.02124202      -0.01667041
Cl       0.30189530       5.28246741      17.78804197       0.01365937      -0.00296065       0.03433246
Cl       0.34403637       7.82710012      16.38274365       0.01168012      -0.03389870      -0.01742205
C        0.63982294       7.02769825      17.94094312       0.01102952      -0.00010023      -0.00111486
Cl      10.95977039      10.25343612      10.83059092       0.00088966      -0.01567120      -0.00819330
Cl       8.56003562       8.63658746      10.92589116      -0.00111184      -0.01282793       0.00536677
Cl       8.35057684      11.51145559      10.60593649       0.00056309      -0.01446068      -0.00668043
Cl       9.20573300      10.39362459      13.13998343       0.00832490      -0.00426592      -0.00379163
C        9.26446066      10.20127618      11.37657081       0.00300590      -0.01163719      -0.00316600
Cl       3.31072985       5.48954109      13.39029180      -0.01177615      -0.00584018      -0.01171836
Cl       3.11569451       4.54126865      16.10988523      -0.01268992      -0.01776455      -0.01418820
Cl       5.50014072       5.93404982      15.23690368      -0.01565373      -0.00813282      -0.00698064
Cl       4.94922619       3.25484014      14.28117854      -0.00909680      -0.00583184      -0.01853414
C        4.22177675       4.79480523      14.74967595      -0.01277732      -0.00961471      -0.01326114
Cl       2.32867134      17.47248822       3.32668745      -0.01522130      -0.00276300       0.00152141
Cl       4.95972382      18.47776703       2.66551374      -0.01177192      -0.01660404      -0.01121113
Cl       4.69309912      15.96914786       4.09855007      -0.02383077      -0.01330274       0.00171073
Cl       4.08590477      18.46034205       5.43198461      -0.00059946       0.00014064      -0.01309842
C        3.99395191      17.59362508       3.86754864      -0.01245369      -0.00961250      -0.00617201
Cl       9.97703464       9.21016862      19.60960684      -0.02252676      -0.00047989      -0.01730999
Cl      12.54263916       9.51817674      18.29529266      -0.00699091      -0.02308850       0.01720606
Cl      10.55032679      11.61943923      18.10265312       0.01995438      -0.00028750       0.00322526
Cl      10.15856246       9.10798515      16.71124853       0.01147729       0.01059474      -0.01461202
C       10.80697465       9.85511969      18.17514094      -0.00063794      -0.00255137      -0.00287433
Cl      11.79623134      18.99192129       7.21516089       0.00133608      -0.00885779       0.00877114
Cl      10.11340709      17.84710333       5.15151083       0.00036508      -0.00036760       0.00714071
Cl      11.16683608      16.16410593       7.26595180      -0.00205606      -0.00846988       0.00035341
Cl      12.93752755      17.22280492       5.22514288       0.00095814      -0.00441924       0.00613880
C       11.50503134      17.55784103       6.21481079       0.00038146      -0.00590262       0.00506185
Cl       2.67932366      15.70920112       7.89861141      -0.01190953      -0.00231618       0.00321446
Cl       2.91193845      12.87195898       7.39086328      -0.00530666      -0.00408167       0.01224074
Cl       1.30675752      14.53879889       5.63286833      -0.00526589      -0.01545404       0.00529242
Cl       0.39724708      13.97100361       8.32388579      -0.00863793      -0.00459724       0.00666192
C        1.81968285      14.27383432       7.31065065      -0.00730658      -0.00679265       0.00739926
Cl      10.17933935       2.62457503       3.19029477      -0.01719588      -0.02290489       0.00182390
Cl       8.59660812       0.52617655       1.95982935       0.00313509      -0.00189155       0.00889310
Cl       7.66618426       3.26482982       1.89192142      -0.00692134      -0.00300547      -0.00198451
Cl       7.67165193       1.81297481       4.39644120      -0.02728863      -0.00476202       0.00011367
C        8.52963512       2.07387724       2.86899209      -0.01737872      -0.00347279       0.00623854
Cl      16.80304383       4.14052234       8.49653745      -0.01189119      -0.01529022      -0.00202754
Cl      18.44129555       4.58992032      10.84627686      -0.00268731       0.01092458      -0.01337361
Cl      19.46961288       3.02075055       8.63241961      -0.00320861       0.00657587      -0.01048878
Cl      17.36517650       1.95042226      10.31401403       0.01412487       0.00118530       0.00752655
C       18.01861763       3.42076605       9.57509214      -0.00018492       0.00062776      -0.00420119
Cl       3.11068578      -0.02908239      14.00239430      -0.00107035      -0.01281908       0.01203999
Cl       1.44331304       2.27277075      13.42227726       0.00630085      -0.01172596      -0.00543596
Cl       0.38080924      -0.40134357      13.12042551       0.00548139      -0.01045686      -0.00861072
Cl       2.38026976       0.57979575      11.26268816       0.02069916      -0.01576403       0.00548154
C        1.82593878       0.61209037      12.95664699       0.00822780      -0.01271849       0.00074168
Cl       1.61167584       8.24564520      10.74902853       0.01704600       0.00886972      -0.00767586
Cl       3.11280820       9.07703408       8.41116006      -0.00721666       0.01038617      -0.02189933
Cl       0.38394274       9.97939378       8.77752994      -0.00630519       0.00217029       0.00105404
Cl       0.91986454       7.19993569       8.13263682      -0.00355871       0.00308818       0.00010392
C        1.49870917       8.61913147       9.01866124      -0.00006379       0.00633759      -0.00712606
Cl       4.37386047       6.72679896       5.77807325       0.00307006       0.00601313       0.01045513
Cl       4.61815100       4.77221129       3.65186318      -0.00016630       0.00292949       0.01358521
Cl       4.75479650       3.91838378       6.40980697      -0.01547351       0.00531632       0.01500532
Cl       6.92896888       5.46413497       5.27183787      -0.00295746      -0.00928783       0.02107771
C        5.16359388       5.21867766       5.27646338      -0.00421757       0.00154393       0.01485683
Cl      15.32086674      11.00234426       0.58161987      -0.01163352      -0.00150527       0.01571179
Cl      18.05206214      11.36707883      -0.31644592      -0.01613587       0.00744267       0.00933021
Cl      17.51597307      10.61247703       2.43656662      -0.00595067       0.00099412       0.01016110
Cl      16.84702572      13.27873318       1.50692436      -0.01403376      -0.00077486       0.01603043
C       16.94872115      11.58367566       1.06013541      -0.01281621       0.00058547       0.01283985
Cl       5.42604972      11.21773453      14.34065529       0.01333624      -0.00519669      -0.00481340
Cl       4.42360822      11.00964179      11.62564976      -0.01059446      -0.00470620       0.00500572
Cl       3.00077834       9.71873012      13.80841967       0.01015532      -0.00651197       0.01753704
Cl       5.55924060       8.69089564      12.92578180      -0.00042576      -0.00557393      -0.00736986
C        4.60157187      10.15619573      13.17069779       0.00331139      -0.00563777       0.00236258
Cl       5.40944541      17.29484656       9.66365963       0.00481459       0.00037448      -0.00026509
Cl       6.42457476      15.18043247       7.94459518      -0.00147052      -0.00180411      -0.00094852
Cl       8.07580638      16.24531337      10.07959956       0.00395259      -0.00414348      -0.00502446
Cl       7.50536441      17.86679014       7.74497397       0.00079712      -0.00335744      -0.00405657
C        6.85546314      16.64272540       8.85763636       0.00200263      -0.00184169      -0.00244403
Cl      13.67405763       7.30610533      10.93990527       0.00604284      -0.00565642       0.00594515
Cl      15.65991478       7.63554940       8.84113632       0.00146802      -0.00346674       0.00234455
Cl      16.40498775       7.98129377      11.62010334       0.00351948       0.00965478       0.00095758
Cl      14.70917700       9.93779320      10.31085306      -0.00695622      -0.00231746      -0.00397070
C       15.11045809       8.20492292      10.42617755       0.00123249      -0.00064787       0.00103339
Cl       8.00157078       1.73446726      11.12591368      -0.00145624      -0.00960913      -0.00726587
Cl       8.45503940       2.20336879      13.94679824      -0.01805193       0.00111225      -0.00663590
Cl       9.67123383      -0.07518461      12.65021109       0.00406265       0.00728679       0.00517519
Cl       6.80199466      -0.01936370      13.09996095       0.00175911      -0.01213172      -0.00785973
C        8.23656676       0.96000362      12.70375728      -0.00339356      -0.00339606      -0.00405443
Cl       2.41859968      13.37081364      14.09224939       0.00463894       0.00718483      -0.00534308
Cl       0.73352662      12.35672126      11.95409907      -0.00026464      -0.00487673       0.00349212
Cl       1.90822614      14.99801692      11.75234036      -0.01148932      -0.00213942      -0.00833702
Cl      -0.21764549      14.49386026      13.66889410      -0.00076962      -0.00396763       0.00183180
C        1.21227603      13.80867776      12.87021144      -0.00144663      -0.00109367      -0.00152664
Cl      12.72669491       5.28838429       7.87163301      -0.01975325      -0.01114255       0.00271437
Cl      12.21156069       8.11889800       7.48880970       0.00793216      -0.00734261      -0.02825280
Cl      10.17116585       6.41136791       8.63189679      -0.01797214       0.02169009      -0.02431944
Cl      10.85208021       6.16687929       5.83094587       0.00220668       0.01644190      -0.00465345
C       11.49086899       6.49484751       7.45682043      -0.00483157      -0.00009334      -0.01030865
Cl       1.14951122       4.97262415       5.32947887      -0.01190995       0.00231862      -0.00234658
Cl       0.71096610       3.93758764       2.65947035       0.00032566       0.00001006      -0.00307673
Cl      -1.02082649       3.10570112       4.83647527      -0.01394510       0.00712590      -0.01300095
Cl       1.72069791       2.19418052       4.74436701      -0.01438108       0.00162429       0.00493267
C        0.63594308       3.54504490       4.39662000      -0.01033337       0.00264756      -0.00309902
Cl      13.18356504       0.65660149      11.28026975      -0.00552699       0.00327292       0.00354815
Cl      14.58330740       2.72704675      12.75458831      -0.00567883       0.00824845      -0.00405167
Cl      15.46127729      -0.02792528      12.93067299      -0.00788957       0.00720045       0.00740657
Cl      12.97501852       0.77909487      14.17649088      -0.00725758       0.01603984       0.00337109
C       14.05315041       1.03762635      12.77920392      -0.00640661       0.00898752       0.00254095
Cl       8.35825516      12.33565253       5.72141829      -0.00904109       0.01258171       0.00388187
Cl       7.42275160       9.81350287       4.62681252      -0.00125581       0.01289472      -0.00295722
Cl       6.39803436      10.77577614       7.17129607       0.00518864       0.00189643       0.00488883
Cl       9.13598696       9.83138102       6.96615167       0.00674489       0.00914416      -0.01164964
C        7.82970877      10.67350163       6.12946745       0.00121650       0.01059008      -0.00155991
Cl       6.53996457       5.34588497      11.80708770      -0.00184503       0.00656994      -0.00343990
Cl       4.88984217       6.34929757       9.64795689       0.00255200      -0.00053287      -0.01010145
Cl       4.74879055       3.55271878      10.39136232       0.01285237      -0.00168288      -0.01039390
Cl       7.12719170       4.59188417       9.08360354       0.01205242       0.00993416      -0.00178286
C        5.81852671       4.96100448      10.23547054       0.00695264       0.00346579      -0.00690216
Cl      10.70916065      13.36883848      15.12172568      -0.00689893      -0.00750837       0.00232124
Cl       8.90800021      15.01575380      13.55856195       0.00151443       0.00791681       0.00807841
Cl      11.10054725      13.63571362      12.26065782       0.00668623       0.01585463       0.00616843
Cl      11.64742072      15.87812336      14.01489429      -0.00007337       0.00101709       0.02721014
C       10.58825044      14.47408660      13.73366831       0.00000110       0.00420578       0.01103798
Cl      13.86937203      15.33961455       9.73862718      -0.00135353       0.02225630       0.01152319
Cl      14.83008729      14.53711587      12.34440394      -0.00567676       0.01948334       0.01325291
Cl      16.58801068      15.97867027      10.54706440       0.00109643       0.00499681       0.00714409
Cl      15.85926869      13.24197827       9.95940285      -0.01798355       0.00689769       0.01590770
C       15.28620213      14.78186223      10.65324151      -0.00606582       0.01345780       0.01220873
Cl      14.32326105       7.66920730       2.71243257       0.00628069       0.00667721       0.00242245
Cl      15.40778262       8.21493677       5.34652356       0.02390588       0.00738567      -0.00414211
Cl      16.84638725       6.49900565       3.51825363       0.00339437      -0.00536421      -0.00740701
Cl      14.38292441       5.58285916       4.72920027       0.00339976       0.01338339       0.00828953
C       15.24330951       6.98453352       4.07931754       0.00967702       0.00579429      -0.00034340
Cl      14.68295553       3.89600626      16.45146824      -0.00438333       0.00255835       0.00151298
Cl      15.52247871       6.49757086      17.44682344      -0.00092089       0.00128493      -0.00105569
Cl      12.73594609       5.99695223      16.92287930      -0.00112742       0.00318210      -0.00110471
Cl      14.62277311       6.19717633      14.70934159      -0.00257799       0.00145438      -0.00045919
C       14.38782150       5.64133138      16.37888956      -0.00176048       0.00245668       0.00008453
Cl      15.14365027       9.64753633      15.68805996       0.02163747       0.00931150       0.00973606
Cl      14.49250257      12.47534242      15.63699076       0.00177310       0.00531828      -0.00253573
Cl      13.22537373      10.66286342      13.76203706       0.02467102      -0.01136399      -0.00198871
Cl      16.05090706      11.29962804      13.49961411       0.01993948       0.00719731       0.00791869
C       14.72889945      11.01582017      14.64377265       0.01772228       0.00237576       0.00258258
