192
Lattice="12.991570656673744 0.0 0.0 0.0 12.991570656673744 0.0 0.0 0.0 12.991570656673744" Properties=species:S:1:pos:R:3:forces:R:3 energy=-181345.8125 stress="-0.0007938329363241792 -0.00024193975696107373 -0.0005479187529999763 -0.00024193975696107373 -0.0014735331060364842 0.0005755431775469333 -0.0005479187529999763 0.0005755431775469333 -0.003046873491257429" pbc="T T T"
N        8.85918566      10.44265518       4.41689113       0.00008640      -0.00015348       0.00233740
N        6.87729131      11.10537842       5.00868847      -0.00204831      -0.00528783       0.00019944
C       10.32691520      10.40585052       4.24029376       0.00005031       0.00209048       0.00495811
C        8.18662890      11.31458326       5.16570624      -0.00258529      -0.00173354       0.00115979
C        7.94693291       9.64928438       3.76339667       0.00279343      -0.00285912       0.00185549
C        6.70304907      10.06465033       4.13358527       0.00169629      -0.00608343       0.00070530
C       11.05505115       9.89469929       5.46132703      -0.00202084      -0.00033382       0.00485313
C        5.81461208      11.93940182       5.56242620      -0.00415254      -0.00846899       0.00006384
H       10.52041744       9.78884378       3.36306742       0.00229271       0.00449187       0.00376812
H       10.63763216      11.41426938       3.96726841      -0.00068151       0.00300330       0.00787424
H        8.62124660      12.12743627       5.71863570      -0.00541891      -0.00029221       0.00093586
H        8.25974813       8.89512328       3.06459094       0.00552919      -0.00183643       0.00224629
H        5.72053043       9.77484486       3.80791016       0.00273295      -0.00898195       0.00023092
H       10.94202871      10.55988141       6.31771342      -0.00468703      -0.00311542       0.00660135
H       12.11909474       9.82858378       5.23037183      -0.00162455       0.00123686       0.00704241
H       10.70522004       8.90676251       5.75267894      -0.00182804      -0.00127098       0.00122988
H        6.14138489      12.97381575       5.49565451      -0.01161940      -0.00687325      -0.00891102
H        4.93838472      11.80452825       4.93670793      -0.00679731      -0.01875195       0.00646794
H        5.58576157      11.64070793       6.58123832       0.00344446      -0.00247121       0.00339237
S       12.88627909      12.50902155       1.73509564      -0.00594723      -0.01350498       0.00621721
N       11.82446459       9.92155583       1.45164092      -0.01105261       0.01146293      -0.00091532
C       12.30505121      10.99435900       1.57647474      -0.02704576      -0.03945853      -0.00262932
O       12.62286713       2.29318217       3.85166326       0.00903015      -0.00457141       0.01306365
O       10.67873753       3.36615638       3.85174202       0.01255515       0.00113682       0.00082529
O       12.46667924       4.31632673       2.87533517       0.02364331      -0.00124443       0.01919460
C       11.68716903       1.35397701       4.42256543       0.00191635      -0.00268650       0.00438768
C       10.44312650       2.20079722       4.66249178       0.00361788       0.00109345      -0.00183138
C       11.96920654       3.40283924       3.46450114       0.01563126      -0.00122118       0.01144353
H       12.13126709       0.95989562       5.33486963      -0.00543946      -0.00631534       0.00627947
H       11.54474392       0.55874614       3.69088190       0.00382910      -0.00035006       0.00174370
H        9.51703198       1.73875627       4.33188511       0.00403631       0.00463411      -0.00729582
H       10.33499490       2.52007019       5.70031913      -0.00120373       0.00038217      -0.00224292
O        9.21017494      12.88468612       2.51817860      -0.00574237      -0.00193641       0.00120273
O        7.15249027      12.77685311       1.69265922      -0.00616561       0.00914952       0.00123984
O        7.49993722      13.70548298       3.71471044      -0.00182283       0.00257337       0.00358105
C        9.37386088      12.40878960       1.15692613      -0.00860554       0.00140056      -0.00022046
C        7.96734311      11.96726985       0.81632376      -0.00992417       0.00673616       0.00025067
C        7.91593979      13.18544699       2.71653670      -0.00422081       0.00301501       0.00197721
H       10.10468207      11.60745102       1.14957431      -0.01090184      -0.00120711      -0.00296561
H        9.72798290      13.24859106       0.55782930      -0.00675251       0.00173435       0.00184596
H        7.67574326      12.17924829      -0.20413273      -0.00999366       0.00826581       0.00053898
H        7.77876377      10.91630159       1.03586695      -0.01361596       0.00734282       0.00005001
O        7.76452652       4.79454302       2.34968151       0.00135417       0.00139450      -0.00163573
O        6.27148282       3.15025004       2.24315167       0.00483713      -0.00123866      -0.00456224
O        8.42511661       2.72694471       1.75821420       0.00586820       0.00235003      -0.00040340
C        6.49505082       5.44225223       2.48588345      -0.00018834      -0.00118774      -0.00362837
C        5.52752140       4.28185192       2.71563329       0.00215906      -0.00318266      -0.00495139
C        7.56786573       3.48553403       2.09810231       0.00407511       0.00129414      -0.00190115
H        6.28311706       5.98800537       1.56516375       0.00011458      -0.00187087      -0.00394857
H        6.55654212       6.13083386       3.32623860      -0.00297999      -0.00107150      -0.00374058
H        5.28795450       4.11298179       3.76464336       0.00141186      -0.00410137      -0.00541246
H        4.61093453       4.36149476       2.13459783       0.00272560      -0.00488479      -0.00591010
O        8.47978463       2.60822653      11.73265814      -0.00137535       0.00739983      -0.00401593
O        6.98384648       4.10140950      12.43195101      -0.00306752       0.00466660      -0.00261038
O        9.12592510       4.72595870      12.13433202      -0.00418311       0.00788832      -0.00285263
C        7.26407952       1.86609294      11.93098515      -0.00000350       0.00568253      -0.00201876
C        6.20175724       2.94531345      12.06076152      -0.00128311       0.00427358      -0.00507308
C        8.28302884       3.88000637      12.11171414      -0.00297153       0.00676543      -0.00337423
H        7.36049544       1.28902790      12.84574578       0.00113201       0.00910109      -0.00004882
H        7.11911311       1.22356672      11.06711069       0.00126772       0.00292768       0.00014061
H        5.68465659       3.16012579      11.12899471       0.00164790       0.00402206      -0.00674140
H        5.48577171       2.73825256      12.84993079      -0.00357437       0.00359571      -0.00743297
O       10.70571342       6.60710928       6.69121640      -0.00009329       0.00314063      -0.00100690
O       12.29946131       6.07903137       8.14621560      -0.00191419       0.00867015       0.00264633
O       11.30050513       8.09099115       8.27476750      -0.01117428       0.00383770       0.00203136
C       11.20057970       5.32163622       6.25656147       0.00783180       0.00682923      -0.00200951
C       12.01003546       4.84112161       7.44858666       0.00642765       0.00875050      -0.00045484
C       11.42215579       7.02379678       7.74893441      -0.00503931       0.00511181       0.00148329
H       11.81390172       5.47516238       5.36918747       0.00951520       0.01180820       0.00014627
H       10.33914730       4.69919521       6.03001213       0.01198190       0.00276300      -0.00580748
H       11.42704905       4.20757496       8.11542642       0.00717965       0.00484404      -0.00364384
H       12.95125530       4.38061889       7.15963686       0.00945395       0.01314710       0.00237633
O        3.00463568       8.72282517       3.39019855      -0.00129601      -0.00873435       0.00500122
O        1.74047635       7.69761380       4.90964097      -0.00868510      -0.00293779       0.00221717
O        1.50286057       9.91269433       4.57035869       0.00070256      -0.00235188       0.00098446
C        3.34804832       7.34209508       3.25545103      -0.00691202      -0.01019931       0.00588346
C        2.43853773       6.62313785       4.25692778      -0.00963768      -0.00600749       0.00634664
C        2.01649148       8.87026235       4.31196779      -0.00257719      -0.00475633       0.00229256
H        4.40838406       7.23737390       3.49104037      -0.00750852      -0.01413560       0.00592825
H        3.15406443       7.03655267       2.22894806      -0.00826044      -0.00982442       0.00617278
H        1.70723338       5.98233784       3.77425624      -0.00994822      -0.00605321       0.00676769
H        2.97684570       6.06007742       5.01197917      -0.01182744      -0.00483516       0.00874704
O        5.56127455      11.73343243      11.38292881      -0.00979912      -0.01063645       0.00105616
O        5.77567413      12.39356279       9.27446532       0.01331943       0.00472802       0.00870229
O        4.58025457      13.64952561      10.70828961       0.00551945      -0.00130254       0.00675121
C        6.52543856      10.83391589      10.79221230      -0.01185057      -0.01342344       0.00244305
C        6.33434124      11.06426706       9.30685910       0.00540245       0.00148085       0.00250173
C        5.22426012      12.67114948      10.47372845       0.00325274      -0.00244725       0.00550604
H        6.31222236       9.82165228      11.12440293      -0.02540094      -0.01443326      -0.00991682
H        7.52224821      11.10483897      11.13000073      -0.01326871      -0.02638507       0.01552251
H        7.26913963      11.06835132       8.74745761       0.01126882       0.00147206       0.01288323
H        5.62457759      10.38697138       8.84308458       0.00673220       0.00946450      -0.01090407
O        2.84561236      11.13878313       1.31795538       0.00155243       0.00510416       0.00429332
O        4.68216588       9.89288881       1.23006799      -0.00820827      -0.00813895      -0.00223964
O        4.53002101      11.56701262       2.72958713       0.00834095      -0.00881255      -0.00039184
C        2.49482120      10.04604398       0.44511144      -0.00929332       0.00799172       0.00501983
C        3.85190301       9.41927109       0.14580595      -0.01500714      -0.00135317       0.00017864
C        4.04661188      10.92754256       1.83746173       0.00133002      -0.00447616       0.00031286
H        2.00117237      10.46206900      -0.43049816      -0.00966808       0.01186487       0.00708643
H        1.81991383       9.38363059       0.98729316      -0.01168349       0.01248699       0.00713715
H        3.85365130       8.33143705       0.15291499      -0.02264027      -0.00133592      -0.00045563
H        4.27508699       9.78709725      -0.78779796      -0.01500790      -0.00409767      -0.00060660
O        1.95019004      10.13834779       7.61328397       0.00401407       0.01712677      -0.00096321
O        3.30923861      10.28408726       9.36729244       0.00471921       0.00083873      -0.00063196
O        3.06778324      12.04625572       7.99061905       0.02085188       0.00597692       0.00386512
C        1.84736043       8.85132964       8.23448113      -0.00623372       0.01595245      -0.00503561
C        2.80829311       8.94602073       9.42689717      -0.00732571       0.00543770      -0.00358748
C        2.78381332      10.92400358       8.29093500       0.01064813       0.00748342       0.00124648
H        2.14149101       8.09936970       7.50397676      -0.01065069       0.01626188      -0.00665939
H        0.81033869       8.70031362       8.52862383      -0.00762773       0.02268968      -0.00707023
H        2.31424324       8.80304967      10.38687596      -0.00996333       0.00873851      -0.00458455
H        3.65271637       8.25905349       9.34895416      -0.01357964      -0.00174478      -0.00326286
O       10.21614033       7.71909268      11.82329818       0.00243652       0.01058233       0.00351003
O       11.36745988       9.55773378      11.38132137       0.00514850       0.00722643      -0.00206026
O        9.17147689       9.70647606      11.82222908       0.00679970       0.01299703       0.00420508
C       11.51660537       7.24869386      11.38512517      -0.00008018       0.00764942      -0.00017919
C       12.35751744       8.50718678      11.49232784       0.00283974       0.00551119      -0.00221618
C       10.17711415       9.05159358      11.69629859       0.00550413       0.01039064       0.00254019
H       11.41225738       6.89499303      10.36398597      -0.00352678       0.00820149       0.00023454
H       11.82604596       6.45482221      12.05349563       0.00016373       0.00689504      -0.00124764
H       12.83255818       8.61632897      12.46730187       0.00399263       0.00481963      -0.00280172
H       13.05898013       8.63866614      10.67535349       0.00227889       0.00297238      -0.00285313
O       11.82451171       7.24741126       3.44722723       0.00282100       0.00091320      -0.00233194
O       11.62738075       6.89031105       1.26821933       0.00271979      -0.00758730      -0.00063369
O       13.63756214       7.40720389       2.11197626       0.00188184       0.00018361      -0.00334445
C       10.47764802       6.77668356       3.25299431       0.00366470      -0.00171463      -0.00121188
C       10.27807279       6.92889635       1.75363405       0.00275986      -0.00166510      -0.00058240
C       12.46697049       7.20704903       2.25983014       0.00229442      -0.00156766      -0.00244284
H        9.81647561       7.39420282       3.85934340       0.00309271      -0.00344092      -0.00033699
H       10.41273928       5.73775273       3.56766579       0.00636350      -0.00202399      -0.00158016
H        9.72336460       6.11720521       1.29310247      -0.00067449       0.00080308      -0.00024149
H        9.85852001       7.89707683       1.47220548       0.00786816       0.00041395      -0.00027232
O        9.06124700       5.81538871       9.21189024       0.00092888       0.00722121      -0.00273925
O        7.33538836       4.43629044       9.45616878      -0.00209207       0.01096064      -0.00541997
O        9.29617949       3.63664453       8.70555570      -0.00498387       0.00884283      -0.01034801
C        8.04382721       6.61585237       9.86312763       0.00331295       0.00847358      -0.00117636
C        6.79848306       5.74459820       9.75798736       0.00143349       0.01128093      -0.00083718
C        8.63314316       4.55333834       9.10029583      -0.00242993       0.00878811      -0.00650628
H        7.96835624       7.55677026       9.32236830       0.00472619       0.00895181      -0.00042078
H        8.36118736       6.77889001      10.88762702       0.00454637       0.00707396      -0.00145257
H        6.23044326       5.68054731      10.68004155       0.00301221       0.00996023      -0.00007239
H        6.13321163       6.03075423       8.94334416       0.00036196       0.01504380       0.00149134
O        5.94701279       3.07631746       6.88291393       0.00358050      -0.00418127      -0.00652115
O        7.86710344       1.99364273       6.62878801       0.00348198      -0.00396250      -0.00478235
O        7.46419071       3.84489455       5.41471260       0.00417809      -0.00452071      -0.00554419
C        5.84480416       1.95501638       7.79008880       0.00284398      -0.00363150      -0.00623196
C        7.26334470       1.39315715       7.79010851       0.00278413      -0.00329792      -0.00514543
C        7.12591509       3.03578658       6.23480905       0.00384200      -0.00420806      -0.00572950
H        5.09987725       1.25775752       7.41040902       0.00295961      -0.00367713      -0.00619704
H        5.52935116       2.32560542       8.76128724       0.00241891      -0.00321577      -0.00660795
H        7.84366793       1.70407508       8.65845239       0.00197035      -0.00293739      -0.00483704
H        7.29207212       0.31611786       7.66741321       0.00312885      -0.00323406      -0.00440817
O        1.98929041       5.52657308      11.12559559      -0.00267655      -0.00034848      -0.00429010
O        3.69164913       4.51538519      10.11662015      -0.00107193       0.00581983      -0.00716779
O        4.09567406       6.14262833      11.61558099      -0.00449479       0.01131371      -0.01260817
C        1.37533108       4.46510464      10.36353720       0.00014132      -0.00482555       0.00019792
C        2.51639288       3.94557873       9.48990753      -0.00019199      -0.00200167      -0.00166917
C        3.32457133       5.45428616      11.00997861      -0.00290784       0.00591418      -0.00850889
H        0.55653254       4.89850556       9.79762188      -0.00330958      -0.00990865       0.00157124
H        1.00011148       3.72071740      11.06539620       0.00528756      -0.00464272       0.00298479
H        2.62150413       2.86306066       9.50039456       0.00517532      -0.00134423       0.00179493
H        2.46513137       4.30680173       8.46268963      -0.00490143      -0.00633803      -0.00268897
O        2.72827779       2.76380830       4.30753967       0.01555441      -0.01126587       0.01210892
O        1.69119567       1.79438118       6.01412441       0.00847052      -0.02333224       0.00052890
O        1.69660612       4.03238298       5.85295567       0.03156224      -0.02211285       0.03044432
C        2.75378495       1.34044281       4.00442270       0.00290936      -0.00703888      -0.00617152
C        2.39377643       0.71785261       5.34084051      -0.00434690      -0.02151710      -0.01507095
C        2.00541785       2.95414758       5.41858758       0.01957816      -0.01887739       0.01617798
H        3.74776694       1.07997090       3.65084736       0.00070018      -0.01147798      -0.00875048
H        2.01243170       1.14056437       3.23215700       0.00204429       0.01008730      -0.00915682
H        1.73876869      -0.14640798       5.27447606      -0.01407447      -0.01270965      -0.02844916
H        3.25482061       0.46439659       5.95633186      -0.00834891      -0.04076226      -0.01833269
O       11.96026971      12.69819555      10.38144892       0.00547773       0.00436661       0.00910160
O       11.65771435      11.10064765       8.86788840       0.00934517       0.01122716       0.00145984
O       13.57572213      11.16512828      10.04568307       0.00793684       0.00887185       0.00311673
C       10.68838958      12.98505030       9.78380037       0.00517273       0.00490212       0.01029964
C       10.36490379      11.68361956       9.05956877       0.00838575       0.00897789       0.00179705
C       12.49802570      11.61199356       9.79338977       0.00733644       0.00834030       0.00452636
H       10.79953379      13.83522417       9.10793200       0.00334029       0.00981128       0.01618502
H        9.98627810      13.23947804      10.57479109       0.00412884      -0.00240320       0.01145750
H        9.76691743      11.00220931       9.66860072       0.00774270       0.00488645      -0.00376129
H        9.90118924      11.82490822       8.08456019       0.01061630       0.01444414       0.00172028
O        4.83512496       7.26795403       6.20179418      -0.00001404      -0.00672559       0.00005511
O        6.77400602       8.08937409       6.91279678      -0.00037813      -0.00556448      -0.00116569
O        4.91925631       9.36624552       6.97980742      -0.00147155      -0.00747922       0.00244170
C        5.74843689       6.15076347       6.15388581       0.00078939      -0.00603509      -0.00064239
C        7.10908466       6.81406862       6.31404720       0.00013840      -0.00465366      -0.00245953
C        5.46214901       8.33378467       6.71770657      -0.00064537      -0.00707018       0.00053997
H        5.62257249       5.63838755       5.20846674       0.00022143      -0.00650325      -0.00022444
H        5.49873429       5.46246602       6.95778859       0.00242271      -0.00581463      -0.00009444
H        7.79482482       6.29100222       6.97297637       0.00171322      -0.00418508      -0.00392935
H        7.60569044       7.00526721       5.36197620      -0.00162739      -0.00345865      -0.00296509
