200
Lattice="18.729674897250995 0.0 0.0 0.0 18.729674897250995 0.0 0.0 0.0 18.729674897250995" Properties=species:S:1:pos:R:3:forces:R:3 energy=-2055379.25 stress="-0.00030614808201789856 -0.00015574476856272668 6.725668572471477e-05 -0.00015574476856272668 -0.00038196647074073553 6.538415618706495e-05 6.725668572471477e-05 6.538415618706495e-05 -0.00043140430352650583" pbc="T T T"
N       12.62989978      17.05914264       5.21062556       0.01213345      -0.00682479      -0.00433597
N       14.22716436      16.85807073       3.75685640       0.00489995      -0.00593525       0.00711194
C       11.84625736      16.88971762       6.44271313       0.00090146      -0.00148687      -0.00755984
C       13.73723694      16.38128829       4.90268356       0.00205058       0.00330919      -0.00741088
C       12.40308870      17.99213772       4.22871796       0.00285998       0.00111413      -0.00021544
C       13.40361161      17.86561550       3.31536065       0.01218453      -0.00059396      -0.00623745
C       12.52775507      17.53502721       7.63315813      -0.00492170      -0.00117567      -0.00400651
C       15.46373267      16.41969664       3.11577394       0.00649363      -0.00068094       0.00003606
H       10.86796254      17.32880043       6.25006231       0.00151798      -0.00381014      -0.01083491
H       11.69966495      15.82065628       6.59417273       0.00114330      -0.00233340      -0.00646044
H       14.17123239      15.59025270       5.48598449       0.00299494       0.00222477      -0.00547193
H       11.55763626      18.65511132       4.26785604       0.01022179       0.00019753      -0.00242218
H       13.60484603      18.40624729       2.40781981       0.01000982      -0.00046692       0.00007384
H       13.50577917      17.09077501       7.81836371      -0.00581414      -0.00032306       0.00175078
H       11.91590298      17.38708539       8.52222309      -0.00878891      -0.00056055      -0.00633159
H       12.66069893      18.60488898       7.48085174      -0.00465266      -0.00125355      -0.00424699
H       15.73091049      15.43631707       3.49129255       0.00931495      -0.00157148      -0.00155732
H       15.31029149      16.35946627       2.04166958       0.00591999      -0.00243274       0.00111720
H       16.26451625      17.12562649       3.33081615       0.00674900      -0.00137040       0.00126447
I       18.60449282      17.76148359      -0.60212448      -0.01399859       0.00197661       0.00487813
Cl      14.74078037       0.12240934      -0.95042064       0.00235526      -0.00540257       0.01881808
Cl      15.71708594       2.85567239      -0.93333925      -0.00761756      -0.00297120      -0.01055497
Cl      15.99687464       1.20275626       1.42887465       0.01994810       0.01703211       0.00069475
Cl      13.36691449       2.14492077       0.60877914       0.01623601      -0.00164761       0.01251041
C       14.96153199       1.58393075       0.02489430      -0.00385157       0.00578316       0.00610964
Cl      16.27658937      17.33994852       8.75013431      -0.00507785      -0.01032442      -0.01207419
Cl      16.49903502      15.10735027       6.89778343       0.00197890      -0.01544480      -0.00387602
Cl      18.76706317      15.88866378       8.51222192       0.00027366      -0.00062141      -0.00777534
Cl      17.88517790      17.60162207       6.35050592      -0.00665383      -0.01272897      -0.01323994
C       17.36428766      16.50070356       7.63210610      -0.00075937      -0.00884413      -0.00817254
Cl       1.81263130       6.48072377       2.02872648       0.01826298       0.00657862       0.01750180
Cl       1.83640373       7.44649723      -0.70767962       0.00334202       0.00303303       0.01488623
Cl       4.22417646       7.64576088       0.93528220       0.01093650       0.00736375       0.00283816
Cl       1.92113408       9.32280270       1.49844624       0.00973070       0.00474551       0.01177564
C        2.44879769       7.72461831       0.94275638       0.00969765       0.00650322       0.01230642
Cl       8.99398981       7.40497251      13.65781154       0.00616045       0.00006375      -0.00136349
Cl       7.62726082       6.99436330      11.12725003       0.00694895       0.00731191       0.00154909
Cl       7.01973551       5.29842520      13.40243965       0.00612313       0.00104231      -0.00493610
Cl       9.57786136       5.05752575      12.05059054       0.00439641       0.00709063      -0.00756651
C        8.30450282       6.19203810      12.55949929       0.00657872       0.00372045      -0.00288760
Cl       3.22989721      15.69768107      -0.43261507      -0.00526392       0.03891310       0.02718473
Cl       6.00427067      16.37303500      -0.96017827      -0.00147304       0.00738209       0.01647362
Cl       5.19131304      13.59223010      -0.88633375      -0.02741551       0.01637536      -0.00388077
Cl       5.27000440      15.14825407       1.55998075      -0.00123341      -0.01330899       0.00837398
C        4.91639854      15.20223273      -0.17982839      -0.00655614       0.01169663       0.01347950
Cl       3.22227969       3.08191561      21.27195231       0.02294567      -0.02829346      -0.01336914
Cl       3.53088919       3.84391777      18.49078327      -0.01600245       0.00455698      -0.00700814
Cl       0.90199616       3.17634071      19.53238017      -0.00155222      -0.00282566       0.02243696
Cl       2.88078366       1.10154912      19.17025927      -0.01461202      -0.00091553      -0.03444083
C        2.63660915       2.79280275      19.61101543      -0.00304001      -0.00590581      -0.01052504
Cl      10.59110877      12.86271005      10.78571303       0.00351906      -0.00516288       0.00650638
Cl       8.80390140      13.41315514      13.00049255      -0.01539001      -0.00370088      -0.00788826
Cl      10.45292873      11.02293865      13.02770917      -0.00807637       0.00011617       0.01143408
Cl       8.22635935      11.22566460      11.18571880       0.00464475      -0.01209414      -0.00616562
C        9.51477260      12.12656255      12.00279316      -0.00594655      -0.00601301      -0.00053610
Cl       4.54494092       3.04436464      14.95596269       0.01114979       0.00360475      -0.01082237
Cl       2.97600457       3.56459560      12.57710535       0.00488129       0.00064398      -0.00755250
Cl       2.47964227       5.08945342      14.99274972       0.02013171       0.00940326      -0.00729154
Cl       1.74483212       2.29095679      14.88340766       0.00644386       0.01165485      -0.00030820
C        2.93314725       3.49652588      14.35150246       0.00785511       0.00584325      -0.00293550
Cl       3.32827851      13.33373871       9.04702855       0.00613227       0.02627052      -0.01855265
Cl       6.21043265      13.60102099       8.88544020       0.01061150      -0.00083041       0.00392422
Cl       5.02759680      11.05295905       9.59655081      -0.02228642       0.01033461      -0.00705116
Cl       4.93905774      13.28269686      11.46062860      -0.01052025       0.01065557      -0.00591674
C        4.87312854      12.81795143       9.75258923      -0.00406856       0.01105753      -0.00703041
Cl       9.87496252      10.82229430      17.09943154       0.00547688      -0.00074482      -0.00260603
Cl       7.70029308      10.98618925      19.00794513       0.00011694       0.00152725      -0.00990614
Cl      10.18012759       9.66814978      19.74861502       0.00246003       0.01027307       0.00207362
Cl       8.40959760       8.43356579      17.82413742       0.00452188      -0.00030291       0.00263987
C        9.03548728       9.98035361      18.41799938      -0.00087328       0.00497054      -0.00205604
Cl       8.86507603       5.88098008       2.07455229      -0.00216590       0.00112247      -0.00466993
Cl       7.60110642       3.95704274       0.31283341      -0.00794578       0.01150574      -0.00533946
Cl      10.06185757       3.26814955       1.69870836      -0.02021155      -0.00491723      -0.00017749
Cl      10.10505440       5.19493349      -0.46057521      -0.00006139      -0.00944845       0.00347072
C        9.15656673       4.57880100       0.89620659      -0.00728712      -0.00143521      -0.00398459
Cl       1.51412081       8.82262435      11.19677713       0.00355449      -0.00029227      -0.00253300
Cl      -0.56089752      10.86035620      11.18095506      -0.01039469      -0.01307432       0.01111209
Cl       2.12505821      11.52705446      12.02599493      -0.01122445      -0.00050649       0.00427275
Cl       0.45878732       9.83951237      13.69201322       0.00289127      -0.01602232       0.00321567
C        0.88840543      10.27328220      12.03303283      -0.00437371      -0.00760106       0.00456993
Cl      12.67049870      15.20807630       1.00804968      -0.00192481      -0.00034824       0.01258167
Cl      10.44884320      13.36516576       0.90701624      -0.00782332       0.01128905      -0.00292461
Cl      12.62623725      12.89925162       2.76593914      -0.01708684      -0.00825807       0.00204512
Cl      13.04549072      12.53617824      -0.07037231      -0.00789699       0.00428726       0.00350511
C       12.19508081      13.49383552       1.13974369      -0.00900818       0.00244956       0.00336345
Cl       1.82782307      16.27949594       3.33227660      -0.00111367      -0.01447397       0.01747009
Cl       1.40413885      19.01278907       4.17822230      -0.02071720      -0.00778511      -0.01789594
Cl       4.05682130      18.13373090       3.42775811      -0.01004362      -0.00187087       0.01476890
Cl       2.88381250      17.18112305       5.89174999      -0.02519383       0.01917535       0.01663083
C        2.54379001      17.64205932       4.20190569      -0.01469134      -0.00043388       0.00483671
Cl       7.41954538      -0.80469900       4.73344334       0.01596662      -0.01903068       0.00999410
Cl       9.03522720      -0.32663130       2.37673164       0.00424298       0.00288631       0.00742577
Cl       9.25784242       1.42744798       4.68266199       0.00013565      -0.00638890       0.01311545
Cl       6.87351199       1.49021301       3.04026386      -0.00636208      -0.01625596       0.02410963
C        8.12803907       0.45052018       3.70403424       0.00293228      -0.00961355       0.01461503
Cl      14.84803477       1.92559976      10.98822518       0.00435457       0.00937171      -0.01822882
Cl      12.70727188       2.33959105      12.89246696       0.01961264       0.00963576      -0.00343236
Cl      12.14479009       1.09869090      10.33463179       0.00191277       0.00770208       0.00085296
Cl      12.80466491       3.91366540      10.45330297      -0.00106229       0.00762448      -0.00473623
C       13.12879846       2.32248870      11.17623076       0.00640558       0.00768355      -0.00739055
Cl       4.12422991       1.10661483       9.87337293       0.00527284       0.00027621       0.00544047
Cl       2.81966871      -0.07535338      12.18120291       0.00424629      -0.01511571      -0.00241107
Cl       3.15927546      -1.62596724       9.75904674       0.00170326       0.00361398      -0.01157567
Cl       1.27570821       0.58650142       9.81898709       0.00644359       0.00482045       0.00300762
C        2.84651440       0.00179270      10.41548440       0.00365490      -0.00010393      -0.00171197
Cl       0.43812416       9.80310095       7.82593293       0.01927000      -0.01632708      -0.00427169
Cl       0.19217066      12.45594988       6.70053319      -0.00299147      -0.01551154       0.00428990
Cl      -0.04047579      10.11479137       4.98782722       0.00822613      -0.01126158      -0.00126719
Cl       2.53067147      10.84736491       6.12101486       0.00586122       0.00256874      -0.00648669
C        0.78329504      10.79596903       6.40603230       0.00837275      -0.01073534      -0.00111706
Cl       4.98842161      10.75387589       3.24413958       0.00216243       0.00713485       0.01427984
Cl       6.16997667      10.55548227       5.88644905       0.01001498      -0.02912469       0.00283062
Cl       7.35261133       9.13229293       3.64423128       0.00517511       0.00862707      -0.02251118
Cl       4.81040325       8.26784694       4.73504853       0.01018533      -0.01309389      -0.02772488
C        5.82612956       9.67719369       4.37933789       0.00336379      -0.00299742      -0.01181684
Cl      18.61654621      11.91960277       0.86037890       0.00671679       0.00783217       0.00894257
Cl      18.01657346      14.77941132       0.78567740       0.00375003       0.00640571       0.00917560
Cl      18.42864101      13.42578151       3.33566597      -0.02400231      -0.00050897       0.01010507
Cl      16.04382151      12.86425291       1.79375033      -0.00257647       0.00086355      -0.01808791
C       17.78180114      13.24076150       1.69063143      -0.00647890       0.00284109       0.00354420
Cl       4.25309055       9.08567299      13.73744627       0.00560762       0.00123209       0.00053293
Cl       3.25956417      10.97934782      15.70368668       0.00349694       0.00342041      -0.00474028
Cl       5.95021274      11.25242254      14.66137069       0.00891989      -0.00637093       0.00733231
Cl       5.28639698       9.05491850      16.43811916      -0.00702116      -0.00315839       0.00504899
C        4.68404183      10.09027750      15.13568438       0.00271431      -0.00110655       0.00103381
Cl       6.66044378      17.21366446      11.17000062      -0.00024444      -0.00526639      -0.00614601
Cl       9.01890682      16.39686000       9.70310048      -0.00609684      -0.01320493      -0.01028017
Cl       8.23316702      19.19333817       9.74241924       0.00592303      -0.01161951      -0.00405990
Cl       6.64261601      17.27069346       8.27200478      -0.00559583      -0.00330899      -0.00419465
C        7.63241228      17.52572558       9.73043167      -0.00208726      -0.00906932      -0.00523882
Cl      16.48777884       4.82074430       9.02039898      -0.01895165       0.00011939       0.00697158
Cl      17.49774284       7.41114597       9.82169651       0.02356917      -0.01724601       0.00338042
Cl      14.78930284       7.16194691       8.83189807       0.01628694       0.02614392       0.00992138
Cl      17.03261052       6.84902512       7.02203413       0.00605763      -0.00944611       0.00393116
C       16.45370471       6.55495784       8.67552860       0.00759028      -0.00064873       0.00577219
Cl      10.58517605       0.48258540      15.73826168      -0.00653175      -0.00135892      -0.00114202
Cl       9.69648864      -0.25548302      13.07859712      -0.00055371       0.01499732      -0.00411806
Cl       8.62544923       2.11469089      14.35335716      -0.01169747      -0.00042403       0.00964538
Cl       7.89038054      -0.51436364      15.33268552      -0.00061971      -0.00779974      -0.00820895
C        9.19316948       0.45797174      14.62868990      -0.00432972       0.00156083       0.00005480
Cl       3.33974073      14.49179241      14.48226303      -0.00703716      -0.00434050      -0.00339600
Cl       0.62069840      13.51897092      14.77230304      -0.01016307       0.00992513       0.00308529
Cl       1.33051264      15.20057476      12.51709333      -0.00344625      -0.01229465      -0.01064819
Cl       1.20249775      16.31756984      15.20622352       0.00060673       0.00958860      -0.01663345
C        1.62415428      14.88830390      14.24039752      -0.00438567      -0.00060193      -0.00629249
Cl       9.84741081       9.70623351       8.06702866      -0.00927781       0.00153276       0.00361836
Cl       9.06138608       7.43763023       6.43684287      -0.02032506      -0.00134626       0.01208198
Cl      11.61615997       7.41850372       7.78630101      -0.01003093       0.00043038      -0.00280523
Cl      11.18345549       9.20225412       5.53850573      -0.02458210      -0.00397982      -0.00466639
C       10.42148978       8.44239439       6.95894920      -0.01615722      -0.00080734       0.00141644
Cl       1.47320341       4.59296297       8.43096476      -0.00553713      -0.00189121      -0.00380927
Cl      -0.11915393       2.88312762       6.70779589       0.00075877       0.00088900      -0.01232834
Cl       2.77310014       2.69115690       6.66801579       0.00127745       0.00549257      -0.00792771
Cl       1.46496482       5.02876403       5.56245055       0.00053482       0.00746462      -0.00246310
C        1.40248578       3.79818421       6.83991372       0.00024534       0.00220073      -0.00776047
Cl      18.25885594       4.55063959      12.39618002       0.00391862      -0.00001045       0.00195593
Cl      16.54119691       3.56503989      14.51102651       0.01232821      -0.00138080       0.00643849
Cl      15.46577366       5.33117066      12.49115707       0.00606483      -0.00186537       0.01120752
Cl      17.32345500       6.36429598      14.45526990       0.01032320      -0.00342369       0.00570714
C       16.89859495       4.95334096      13.46205947       0.00773625      -0.00100810       0.00666918
Cl      11.06253601      13.10748878       6.01587423      -0.00719547       0.00574689       0.00920638
Cl       9.02920059      12.28284693       4.12747760      -0.00451446       0.00136009       0.00966442
Cl       9.98542501      15.02436112       4.09929139      -0.00323914       0.00034571       0.00203326
Cl       8.34971928      14.08954442       6.29071078      -0.00674960       0.00789776       0.00115961
C        9.59831894      13.61769181       5.12223855      -0.00679919       0.00395650       0.00582463
Cl       8.34276782       3.93364010       8.05199731       0.00904441       0.00458097      -0.00198454
Cl       6.91715197       4.65733796       5.62569333      -0.00270414      -0.00282621       0.00171900
Cl       5.54485234       4.66840621       8.18380133       0.01030052       0.00898874       0.00739780
Cl       6.32626307       2.15395362       6.96193684       0.00203490       0.00294638       0.01520481
C        6.77857164       3.85679802       7.20689518       0.00248501       0.00379133       0.00645690
Cl      13.15305975      13.22005805      14.46323346       0.00110322       0.00651374       0.00366014
Cl      13.68394409      15.47585880      16.19462299      -0.01474029       0.01128179      -0.00043330
Cl      11.04275081      14.27334779      16.15715175      -0.00572690      -0.00685987       0.00102127
Cl      11.96502346      15.79637342      13.88225635      -0.01676121      -0.00265908       0.00093207
C       12.46164457      14.69128860      15.16932394      -0.00890187       0.00248394       0.00176834
Cl      14.64847981      17.16255725      11.91700401       0.01533887      -0.01459196      -0.00942469
Cl      15.47622221      18.36099774      14.42372833       0.00678025      -0.00304380      -0.01447913
Cl      17.38886992      18.06905099      12.26828641       0.01006764       0.00169951      -0.01254949
Cl      16.43969081      15.72625047      13.68478535       0.02277304       0.00281769      -0.00076711
C       15.99187842      17.32606912      13.08035905       0.01216100      -0.00088462      -0.00550883
Cl      16.98641889       6.56751865       0.69083330      -0.00981903      -0.00052363      -0.00806609
Cl      16.15112449       7.38760097       3.34997281       0.01552249      -0.01099245       0.00299418
Cl      14.36394286       5.82609177       1.68033579       0.00080627      -0.01090524       0.01516824
Cl      14.93705277       8.59161345       1.00990196      -0.00953768      -0.00392428       0.01870173
C       15.60646506       7.09407621       1.68358107       0.00312365      -0.00586776       0.00785300
Cl      11.95333155       5.26968482      15.13420776       0.00778753      -0.00105533      -0.00958404
Cl      11.63858410       7.78584633      16.54108393       0.00163475      -0.00163576      -0.01014033
Cl      13.27139732       7.65811376      14.16041896      -0.00294052       0.00390264      -0.01220608
Cl      14.17938028       6.39291725      16.61061400       0.00636908       0.00681703      -0.01505876
C       12.76838450       6.77345937      15.61236450       0.00358984       0.00246725      -0.01220095
Cl      15.73270383      10.62546132      14.13886957       0.00135849       0.00755695       0.00834715
Cl      17.04068527       9.51278334      16.48824334       0.00048777       0.00842783       0.00737742
Cl      14.24702660      10.26328793      16.59027788      -0.00032938       0.00058734       0.00539568
Cl      16.29618402      12.31432893      16.42606939      -0.00737083       0.00592628       0.01008080
C       15.83098280      10.68639695      15.90895225      -0.00188452       0.00629863       0.00750057
Cl      14.89349040       2.01660509       7.06350790      -0.00650543       0.00747246       0.00184622
Cl      14.26350351       4.69406393       6.12511757      -0.01293597       0.00404543      -0.00063717
Cl      12.24199055       2.62116428       6.06461725      -0.00449175      -0.00269066      -0.00035854
Cl      14.50076830       2.52046008       4.23328735      -0.00257674       0.00374337       0.00193596
C       13.98527458       2.97738628       5.86849070      -0.00693205       0.00213857       0.00355870
