190
Lattice="12.755828800818824 0.0 0.0 0.0 12.755828800818824 0.0 0.0 0.0 12.755828800818824" Properties=species:S:1:pos:R:3:forces:R:3 energy=-117541.8359375 stress="-0.0020189567003399134 -0.0002615976700326428 -0.0006335990037769079 -0.0002615976700326428 -0.0034464895725250244 -2.518632300052559e-05 -0.0006335990037769079 -2.518632300052559e-05 -0.002939393278211355" pbc="T T T"
N        7.20852556      10.39793414       1.95278956      -0.00253689      -0.00780533       0.00230390
N        8.87439116       9.47617078       2.97283302      -0.00549698      -0.00922966       0.00555658
C        6.26568928      10.72352778       0.88853304       0.00338037      -0.00428425      -0.00162923
C        8.06946036       9.38981032       1.91693556       0.00106167      -0.00473815       0.00064534
C        7.50373534      11.19870814       3.02641333      -0.01211771      -0.01503104       0.00993663
C        8.55358647      10.62283908       3.66949071      -0.01412173      -0.01575071       0.01195377
C        4.82999643      10.80949418       1.36315422       0.00197560       0.00003333      -0.00754863
C       10.03288832       8.62756842       3.19700929      -0.00282571      -0.00548092       0.00483844
H        6.59098009      11.68255031       0.48490018       0.00789145      -0.00531426      -0.00027634
H        6.40238968       9.96017636       0.12535049       0.00434558      -0.00466901      -0.00077903
H        8.10761050       8.64453597       1.14179004       0.00743568       0.00067148      -0.00404279
H        6.95440012      12.10810508       3.19984602      -0.01756979      -0.01939188       0.01492420
H        9.11385265      10.93571879       4.53108345      -0.02250019      -0.02126830       0.01895354
H        4.45712739       9.84396303       1.69288018      -0.00015930       0.00209746      -0.00390717
H        4.20422588      11.16403477       0.54129203       0.00599412      -0.00434034      -0.01220736
H        4.74268022      11.52825991       2.17527615      -0.00112493       0.00448951      -0.01208913
H        9.95647293       7.77514332       2.52620076       0.00325242      -0.00167122      -0.00028576
H       10.94332055       9.18699788       2.97320725      -0.00435629      -0.00082770       0.01118694
H       10.04750877       8.27809531       4.22836323      -0.00456553      -0.01150374       0.00266111
S        9.98189795      11.25633959       0.41907586       0.00880313      -0.00780302       0.00543410
N       12.23899752      11.07535466       2.08982024      -0.01869392       0.00259364      -0.00940919
C       11.29087972      11.16661482       1.39529587       0.02426708      -0.00489133       0.01998320
O        7.89119052       8.53721983      11.52231170      -0.00525248       0.00541592       0.01000392
N        8.48444341      10.41194050      10.35859318       0.00989859      -0.00311621       0.00442384
C        7.20701005      11.06390425      10.51346815       0.01504326       0.00788108      -0.00048932
C        9.54346951      11.23572916       9.81967586       0.01709354      -0.01547240       0.00051413
C        8.72068544       9.21222039      10.90625565       0.00057238      -0.00192046       0.01015955
H        6.92927970      11.51648148       9.56489285       0.01915244       0.00369188      -0.00344384
H        7.27358501      11.83839704      11.27754369       0.01967596       0.01159912      -0.00463557
H        6.46108406      10.32518848      10.78779336       0.00896354       0.01560068       0.00317825
H        9.23926332      11.62402390       8.84723285       0.02042024      -0.01647110      -0.00073704
H       10.44879957      10.64440494       9.69942695       0.01099989      -0.02478509       0.00202890
H        9.74861114      12.07235879      10.49339789       0.02606953      -0.01532432      -0.00289750
H        9.74538649       8.85805084      10.71932384      -0.00101876      -0.00855903       0.01560359
O        7.34441264       1.01792287      12.48073313      -0.02500403       0.01347673       0.01714706
N        6.14893902       1.68749554      10.64241000      -0.00937888       0.00525136       0.00476620
C        7.23649977       1.58424314       9.69177745       0.00093451       0.00848033       0.01646881
C        4.92777187       2.28055282      10.16099707      -0.00802110      -0.00373957      -0.00937659
C        6.32216749       1.42544087      11.95730651      -0.02202332       0.00614634       0.00632024
H        7.44299072       2.56898115       9.26196094       0.00261460       0.00746506       0.01511131
H        6.96064385       0.90777438       8.87911093       0.01198883       0.00614189       0.01518752
H        8.12852027       1.22679913      10.19945404      -0.00342235       0.01192342       0.02643125
H        5.12566702       3.27672758       9.75264921      -0.01052307      -0.00300103      -0.00802122
H        4.22972840       2.37509109      10.98928511      -0.01803318      -0.00794578      -0.01773322
H        4.46452262       1.68545624       9.37155603       0.00488771      -0.00754851      -0.01352656
H        5.40095642       1.61686881      12.53825601      -0.02945390      -0.00065614      -0.00354235
O       13.52948426       9.72009394       8.79675106       0.00171651       0.02080894      -0.01112020
N       13.01669396      10.87364176      10.70200096       0.01416460       0.01185990      -0.00313756
C       12.74774620       9.69142627      11.50151325       0.02177405       0.00810707      -0.00689262
C       12.84385025      12.16707235      11.33760780       0.01458214       0.00772685       0.00440036
C       13.35905429      10.76710829       9.40763730       0.00513807       0.01815039      -0.00598013
H       11.72393215       9.73688985      11.88190990       0.02373004       0.00316466      -0.00170068
H       13.40894757       9.67182800      12.37081403       0.02637899       0.00662597      -0.01059684
H       12.89156853       8.81169407      10.87925941       0.02155955       0.01117079      -0.01094981
H       11.80082502      12.33242696      11.61626058       0.01707187      -0.00025394       0.01701294
H       13.17506266      12.94246982      10.64978461       0.00137860       0.01272111       0.00430240
H       13.43073338      12.20685209      12.25795482       0.02549289       0.00740613      -0.00282207
H       13.48274641      11.75269061       8.92438938       0.00065969       0.02008265      -0.00260803
O       11.09240424       7.09306051       8.32140376       0.00395322      -0.00353909      -0.01823759
N       10.84130556       8.91424002       6.97067393      -0.00106323       0.00363517      -0.00751019
C        9.40233086       8.96457771       7.11780222      -0.00104454      -0.00328180      -0.00868288
C       11.50191999      10.02325631       6.31471929      -0.00550848       0.00788543      -0.00475113
C       11.56574268       7.94756048       7.58018456       0.00169797       0.00324672      -0.01177067
H        8.89809166       8.89316367       6.15100963      -0.00068480      -0.00949015      -0.00820500
H        9.07835730       9.89531463       7.58104138      -0.00572757      -0.00303334      -0.01271418
H        9.07779799       8.13102138       7.73417169       0.00292313      -0.00243220      -0.00581755
H       11.15707590      10.14735177       5.28655080       0.00088061       0.00401170      -0.00721166
H       12.57043414       9.83498044       6.28705370      -0.00411552       0.01691571       0.00317941
H       11.32020504      10.95744666       6.85612109      -0.01652975       0.00661939      -0.00718015
H       12.63065656       7.99606369       7.33535542       0.00198150       0.00966767      -0.00893815
O        1.16930763       8.32499376       4.97003329      -0.01063108       0.00556195       0.00080776
N        2.88221307       9.83002533       4.84915530      -0.00806744       0.00219804      -0.00126006
C        2.14472648      10.75805413       4.01790119      -0.00673499       0.00467528       0.00059278
C        4.25890290      10.14180678       5.16020051      -0.00777410       0.00069252      -0.00233890
C        2.29399045       8.69203665       5.27185308      -0.00934780       0.00332671      -0.00123005
H        2.58775139      10.81315281       3.02162076      -0.00482473       0.00729275       0.00181350
H        2.16276205      11.75313443       4.46721498      -0.00698251       0.00322720       0.00331025
H        1.11823206      10.42523348       3.91029735      -0.00652817       0.00586370      -0.00208723
H        4.84859919      10.24548059       4.24696142      -0.00879048      -0.00009371      -0.00296184
H        4.70047943       9.34465111       5.75405449      -0.00805825       0.00099662      -0.00213890
H        4.33020951      11.07842648       5.71803925      -0.00652618       0.00115532      -0.00344668
H        2.95316713       8.09941677       5.93382896      -0.00941271       0.00193393      -0.00278395
O       10.71079329       1.51497533       1.77614641      -0.00581872       0.01453984       0.01204920
N       10.99836314       3.71982297       1.28127138       0.00157937       0.01212860       0.00473890
C       12.43643137       3.63548351       1.25542360       0.00113894       0.00826649       0.00563553
C       10.40349049       5.00140052       1.01764687       0.00518858       0.01151868      -0.00390765
C       10.25715904       2.60306734       1.48441833      -0.00159420       0.01514089       0.00891981
H       12.87252522       4.23509825       2.05987904       0.00223339       0.01317555       0.00107297
H       12.81450349       3.99952724       0.29414654       0.00191949       0.00025493       0.00316659
H       12.71825967       2.59289877       1.38337530      -0.00114596       0.00881684       0.01344410
H       10.84123852       5.75661218       1.67649896       0.00719205       0.01468645      -0.00942254
H        9.33430316       4.94685844       1.21299110       0.00511315       0.01600560      -0.00374410
H       10.55097797       5.31930224      -0.01902647       0.00644940       0.00363197      -0.00583500
H        9.17330960       2.78699154       1.38448848      -0.00068671       0.01936767       0.00794340
O       12.00341609       1.17457952       5.69536694      -0.00112498      -0.04496832       0.01325607
N        9.72902084       1.11575049       5.50732835      -0.00040500      -0.01619596       0.00504880
C        9.50199441       0.95768795       6.92290999      -0.00818318      -0.00301827       0.00496292
C        8.55893343       1.17832328       4.66240471       0.00381321      -0.00584541       0.00040879
C       10.99473120       1.18925643       5.00803144       0.00195014      -0.03541061       0.00945020
H        8.92386611       0.04666165       7.10228641      -0.02017953       0.00570986       0.00940087
H        8.94019681       1.80514818       7.32512049       0.00020692       0.00646827      -0.00394724
H       10.46366849       0.89525766       7.42723735      -0.01155126      -0.01060025       0.01000311
H        7.88491256       0.35420031       4.90131522      -0.00627054       0.00259364       0.00012872
H        8.85123774       1.10869526       3.61440052       0.00741601      -0.01234053       0.00186783
H        8.00125411       2.10709981       4.82356031       0.01420484       0.00070715      -0.00198130
H       11.01185363       1.26322803       3.91004946       0.00646441      -0.04037704       0.00892323
O        2.79365999       3.14293057       7.72620678      -0.00164996       0.00633168      -0.00569808
N        2.30667961       3.99346799       9.79617628      -0.01631045       0.00711803      -0.00978058
C        1.52573671       2.85409960      10.22674599      -0.01539578       0.00551775      -0.01295635
C        2.58075109       5.01608994      10.77247740      -0.02375047       0.00885937      -0.00972146
C        2.85806387       4.03133578       8.55283150      -0.01172309       0.00845271      -0.00756836
H        0.50472442       3.15074133      10.47989963      -0.01663157       0.00335473      -0.01550145
H        1.97659746       2.38930626      11.10998452      -0.01652797       0.00511505      -0.01272166
H        1.50267555       2.13167755       9.41575241      -0.01223917       0.00719634      -0.01457027
H        1.65866960       5.46271982      11.15479031      -0.02674612       0.00572459      -0.01353058
H        3.18674963       5.80151749      10.32265037      -0.02529572       0.01043493      -0.00874530
H        3.14007554       4.59722582      11.61823723      -0.02504574       0.01106894      -0.00807652
H        3.39868697       4.97867814       8.37458220      -0.01348209       0.00979650      -0.00457578
O        5.28813648       0.83646719       2.99209043      -0.01431611      -0.00605541       0.01349261
N        3.56565682       2.14446594       2.23269463      -0.00709353      -0.00312571       0.00327542
C        2.61252458       1.06548415       2.06754926      -0.01244676       0.00062823       0.01237147
C        3.08030868       3.48327695       2.00951858      -0.00126795      -0.00242230      -0.00381833
C        4.81724203       1.92137099       2.68393658      -0.00818020      -0.00631565       0.00451836
H        2.26223723       1.03217425       1.03249356      -0.01996995       0.00047037       0.01525760
H        1.75123349       1.20071770       2.72455507      -0.00712657       0.00458868       0.01829112
H        3.10208491       0.13116959       2.31071403      -0.01432973      -0.00070491       0.01036276
H        2.61560590       3.55822754       1.02219855      -0.00365065      -0.00641522      -0.00282285
H        3.90786723       4.18880406       2.05771925       0.00183307      -0.00593553      -0.01043294
H        2.33776646       3.76064891       2.76374816       0.00218409       0.00561154      -0.00368965
H        5.40124356       2.85176516       2.74265709      -0.00301106      -0.00921139      -0.00407215
O        6.48814535       6.78184775       6.35608331      -0.01187900      -0.00738248       0.00459540
N        6.22018132       5.49018733       4.49373750       0.00051890      -0.01370790       0.00753389
C        5.16742562       4.68258827       5.07516392       0.00099671      -0.01575780       0.00453984
C        6.63768085       5.20900494       3.14307002       0.00485445      -0.01292796       0.00893742
C        6.77416751       6.50137238       5.20540433      -0.00707830      -0.00927722       0.00645828
H        5.45483920       3.62963356       5.11870694       0.00271632      -0.01498690       0.00502454
H        4.24765479       4.77241324       4.49122770       0.00248459      -0.01745812       0.00218117
H        4.97854676       5.03969825       6.08284306      -0.00296249      -0.01645090       0.00384185
H        7.12963580       4.23268540       3.07036381       0.00520200      -0.01249272       0.01015376
H        7.32059758       5.98642844       2.80835903       0.00534622      -0.01265271       0.01126906
H        5.78233719       5.22208750       2.46245557       0.00694576      -0.01312640       0.00677717
H        7.53165095       7.05413644       4.62697392      -0.00801507      -0.00715399       0.00734296
O       10.14794577       2.67972936      11.15897296       0.01779057       0.02750432      -0.00794017
N        8.89575610       4.52597854      10.62749439      -0.00243726       0.01306759      -0.00849725
C        7.87679606       4.31489525      11.62664832       0.00166199       0.00236186      -0.00677378
C        8.74043348       5.69670877       9.78802503      -0.01668641       0.00983410      -0.01005165
C        9.94274741       3.68262537      10.49058644       0.00577796       0.02412534      -0.00919226
H        6.89970368       4.20017960      11.14827306       0.00123042      -0.00044798      -0.00487939
H        7.82126785       5.18638789      12.28468143      -0.00134581      -0.00202939      -0.00151955
H        8.10672666       3.41663589      12.19460389       0.00795192       0.00057393      -0.01235954
H        7.87366437       5.58831475       9.12681798      -0.01494843      -0.00173060      -0.01006848
H        9.63176197       5.85630971       9.19001321      -0.01836568       0.01990225      -0.01016381
H        8.58163058       6.57434372      10.41652692      -0.02778780       0.00806001      -0.01089182
H       10.62236708       4.00734988       9.68347993       0.00055698       0.03000265      -0.01066574
O       12.74199118       5.62173052       5.71686863       0.03820395      -0.02869464       0.00366867
N       10.57264078       4.94053963       5.51872345       0.03243887      -0.00762308       0.00381744
C       10.57020714       4.31799490       6.82884723       0.02510127      -0.01112664       0.00194375
C        9.53325851       4.59048887       4.58242273       0.02697315       0.00629789       0.00406631
C       11.71311585       5.53011794       5.08173996       0.03752017      -0.01751140       0.00413674
H       11.00914796       3.31813682       6.80002968       0.01953343      -0.01374862       0.00171661
H        9.53974674       4.26504642       7.18269968       0.02400199      -0.00706511      -0.00058994
H       11.14596269       4.94779402       7.50226729       0.02570948      -0.01580507       0.00546303
H        9.72353601       3.63362953       4.08364141       0.01350836       0.00262147       0.00580233
H        9.44357976       5.36410110       3.81988358       0.04060489       0.00665224       0.00283340
H        8.57957848       4.52218370       5.10540054       0.02483332       0.02141586       0.00274009
H       11.59848117       5.94327367       4.05789459       0.03919848      -0.01643440       0.00375330
O        5.73730721       7.98421993       2.80512274      -0.00635397      -0.01296499      -0.00414324
N        3.83840754       7.25078971       1.77235976      -0.01092372      -0.00225856      -0.00272972
C        4.42244983       7.26452020       0.44805860      -0.01315226      -0.00177903      -0.00343730
C        2.41636358       6.99182697       1.88425988      -0.01107547       0.00073183      -0.00081404
C        4.57154600       7.61889764       2.84555237      -0.00774282      -0.00769001      -0.00324327
H        3.86804474       7.94350695      -0.20441924      -0.01493390      -0.00224623      -0.00214906
H        4.39464608       6.26309677       0.01047216      -0.01335841      -0.00151861      -0.00364061
H        5.45638629       7.59287022       0.51712191      -0.01347786      -0.00101770      -0.00524194
H        1.84301551       7.78799028       1.40063430      -0.01027454       0.00365391       0.00341415
H        2.12556535       6.95424435       2.93319390      -0.00889834      -0.00270174      -0.00052992
H        2.16790968       6.04149430       1.40617334      -0.01397872       0.00318027      -0.00386427
H        4.00187844       7.54708751       3.78319783      -0.00690344      -0.00661504      -0.00270706
O        6.44663317      10.08218578       7.51708958      -0.00009203       0.00995991      -0.00114435
N        4.87285411       9.22175896       8.94806198       0.00564978       0.00392342       0.00081109
C        5.51282513       7.93365553       9.11864629       0.01012222       0.00614010      -0.00090288
C        3.73671438       9.51553550       9.78921710       0.00354826      -0.00221102      -0.00029670
C        5.41411437      10.17260469       8.16090028       0.00057548       0.00594535       0.00026166
H        4.78106520       7.14210565       8.93624464       0.01431552       0.00348242      -0.00480111
H        5.91672467       7.83875174      10.13080012       0.00788411       0.00551521      -0.00031576
H        6.31015378       7.83604033       8.38954627       0.01178184       0.01098099       0.00062755
H        2.93839669       8.78622455       9.64586207       0.00481427      -0.00229722      -0.00608660
H        3.33375205      10.49034709       9.52612881       0.00302076      -0.00139332       0.00465119
H        4.03323954       9.53114689      10.84421300       0.00140361      -0.00828954       0.00010541
H        4.79635340      11.08976980       8.16004884      -0.00309673       0.00327986       0.00081373
