194
Lattice="12.728354675637156 0.0 0.0 0.0 12.728354675637156 0.0 0.0 0.0 12.728354675637156" Properties=species:S:1:pos:R:3:forces:R:3 energy=-89706.859375 stress="-0.0036664430517703295 0.0007281635189428926 -0.0008283377683255821 0.0007281635189428926 -0.0019040658371523023 -8.521169365849346e-05 -0.0008283377683255821 -8.521169365849346e-05 -0.0009050001972354949" pbc="T T T"
N        8.12621993      10.00911888       2.44981663       0.00487766       0.00064193       0.00267661
N        9.29288727       9.91245377       4.26213442       0.00266299       0.00216503      -0.00475752
C        7.71070405       9.81432702       1.05835132      -0.00340670       0.01233076       0.00167662
C        9.26279326       9.55010986       2.97505937      -0.00279653       0.01724023       0.00266778
C        7.42202102      10.68955261       3.41448390      -0.02563536      -0.00233978       0.00101194
C        8.15581826      10.62684217       4.55529197      -0.00744301      -0.00336111       0.02451801
C        6.42131405       9.02796638       0.96761328       0.00348181       0.00519875      -0.00493421
C       10.39101807       9.67278860       5.17764205       0.00340277       0.01734888      -0.00100026
H        7.63189124      10.80193157       0.60479529      -0.00730145       0.01293635       0.00744566
H        8.53924720       9.32163009       0.55945218       0.00223306       0.01848923      -0.00002427
H       10.07228860       9.06803066       2.43711060       0.00509204       0.02079927      -0.00309752
H        6.48941436      11.19632519       3.22679464      -0.00889135      -0.02091611       0.01278335
H        7.97499684      11.03325810       5.53326315      -0.01106089      -0.02054124       0.00197591
H        6.56816731       8.00567304       1.30653560       0.00696722       0.00636648      -0.00508412
H        6.09343673       8.99011414      -0.07080420       0.00736256       0.00432182      -0.00496835
H        5.62243300       9.47479245       1.55658312      -0.00088573       0.00035080      -0.00729011
H       10.88379183       8.74576746       4.90072187       0.00753208       0.01764324      -0.00091634
H       11.10748412      10.49198666       5.13964465      -0.00170064       0.01911667      -0.01234743
H        9.99029326       9.57673935       6.18430896       0.01055121       0.02206497      -0.00101224
O       10.45536410      10.31492312       0.27752090       0.01876271      -0.03508119      -0.00630927
O       11.94021352       9.30295326       1.60569934       0.01472139      -0.00011516       0.02277315
C       12.48308499      11.46524544       0.76877321       0.00148827      -0.00751424       0.00136437
C       11.55719289      10.26915330       0.88829560       0.01304513      -0.01475441       0.00594009
H       12.82739883      11.75511383       1.75913547       0.00282784      -0.00521307      -0.00015411
H       12.00158908      12.30160533       0.27065006      -0.00667733      -0.01237696       0.00196787
H       13.35971758      11.18140369       0.18526162       0.00106277      -0.00185281      -0.00180955
O        5.29809007       9.00327199       8.90161327      -0.01040721      -0.00087738      -0.00791329
C        3.87156164       8.98002801       9.05747571      -0.00983834      -0.00345653      -0.00445938
C        3.45483613       8.06348852      10.19342765      -0.00486463       0.00106901       0.00069821
C        3.30804242      10.37581912       9.23537864      -0.01247253      -0.00408304      -0.00978510
H        3.51403440       8.55959422       8.11170198      -0.01080140      -0.00879230      -0.00151601
H        2.36746445       8.00902817      10.26977800      -0.00440843      -0.00135591       0.00334861
H        3.84736431       7.06173221      10.03981894      -0.00252520       0.00149798       0.00480083
H        3.83601159       8.44240903      11.14645516      -0.00386504       0.00685295      -0.00208946
H        2.21988336      10.34361308       9.28147840      -0.01226565      -0.00588497      -0.00905270
H        3.60748899      11.03626615       8.42201270      -0.01416331      -0.00702487      -0.01278265
H        3.66509239      10.80920071      10.17410243      -0.01277791       0.00059297      -0.01207140
H        5.66582069       9.45132624       9.67115399      -0.00972434       0.00287351      -0.01053077
O        6.11169897       3.94935621      12.41924630      -0.00431722      -0.00176775       0.00065660
C        6.50192482       4.82512867      11.34458428      -0.00508814      -0.00347459      -0.00082558
C        5.46073859       4.84258343      10.23910470      -0.00493592      -0.00685235      -0.00070703
C        6.74662004       6.21868684      11.88259653      -0.00530265      -0.00253880      -0.00370285
H        7.42452774       4.39110103      10.96167383      -0.00492257      -0.00368774      -0.00012925
H        5.73867383       5.57635707       9.48120366      -0.00359876      -0.01105040      -0.00429587
H        5.37605126       3.86089117       9.78160819      -0.00591658      -0.00871176       0.00380770
H        4.48926009       5.13137959      10.64667044      -0.00471935      -0.00377828      -0.00249309
H        7.11104936       6.87885927      11.09323166      -0.00748266      -0.00369304      -0.00531480
H        7.47423577       6.20378065      12.69323927      -0.00345370      -0.00052867      -0.00526033
H        5.80951304       6.63828839      12.26039134      -0.00463326      -0.00245920      -0.00230316
H        5.33944840       4.33947972      12.84181298      -0.00192842       0.00076514       0.00266258
O       10.86295698      11.84132928      10.81585792       0.00050265      -0.02284932       0.00452453
C       11.27145451      11.01335370       9.74685087       0.00361913      -0.01046312      -0.00314415
C       12.40896088      11.71161723       9.02225654      -0.00529075       0.00489193      -0.00086561
C       11.66484760       9.62102852      10.22072935       0.01621047      -0.01063466      -0.01599219
H       10.43123663      10.90883731       9.03530258       0.00222999      -0.01164508      -0.00092983
H       12.74484623      11.12474997       8.16339683      -0.00515817       0.01653430      -0.00835181
H       12.09759189      12.69462840       8.67331700      -0.01443347       0.00570412       0.01114592
H       13.24730670      11.85649852       9.70547633      -0.00311889       0.00448836      -0.00376476
H       11.94807650       8.99000736       9.37509000       0.01641859      -0.00147459      -0.02229613
H       10.84545203       9.14355467      10.75856832       0.02237073      -0.02101931      -0.01661050
H       12.51295206       9.67930546      10.90645855       0.01878583      -0.00963154      -0.01957516
H       10.61106669      11.28604085      11.59214852       0.00794644      -0.03104277       0.00091895
O        8.16145185       5.70197787       8.42803879       0.00675362      -0.00401548      -0.00673175
C        9.19705973       6.66982641       8.21380691       0.00186575       0.00166443      -0.00405192
C        9.77374421       6.52706525       6.81379669       0.00310013       0.00827090      -0.00377446
C        8.72278224       8.08098738       8.51142207      -0.00494063      -0.00158358      -0.00065653
H        9.96102283       6.39773369       8.94449074       0.00285184       0.00405292      -0.00424635
H       10.70650519       7.08444003       6.71247971      -0.00025280       0.01391044      -0.00214346
H        9.98135651       5.47844638       6.59298649       0.00970226       0.01031953      -0.00624488
H        9.07306054       6.91142853       6.06487312       0.00143136       0.00578416      -0.00318116
H        9.55191825       8.78526236       8.41894071      -0.00847483       0.00233176      -0.00011360
H        8.34317063       8.14858895       9.53067058      -0.00421665      -0.00534337      -0.00025956
H        7.92171008       8.38550226       7.83490683      -0.00678940      -0.00411804       0.00068298
H        7.50077365       5.79124848       7.73048535       0.01205941      -0.01356402      -0.01285931
O        3.64041400       9.38613154       4.49426575       0.00222006       0.00279456      -0.01243943
C        2.38439786       8.76270521       4.17254591       0.00095493       0.00386757      -0.00963534
C        2.43753744       7.26571798       4.42696233       0.00054624       0.00389922      -0.01064910
C        1.23890429       9.41135926       4.92055055       0.00356984       0.00416651      -0.00626644
H        2.25063247       8.93410438       3.10149934      -0.00184245       0.00460929      -0.00895149
H        1.50898444       6.79440564       4.10307027       0.00005589       0.00472242      -0.01014777
H        3.25672696       6.81331407       3.86968909      -0.00016229       0.00402385      -0.01151092
H        2.57919437       7.05776143       5.49151203       0.00146226       0.00333915      -0.01094852
H        0.29951144       8.99319196       4.56387570       0.00268146       0.00426006      -0.00356230
H        1.21598195      10.48879335       4.75491410       0.00312431       0.00398301      -0.00647813
H        1.31978491       9.21853946       5.99615011       0.00688721       0.00455764      -0.00664015
H        3.62636807       9.61223028       5.43012818       0.00629564      -0.00258572      -0.01130494
O        6.67661043       2.05672819      10.38675513      -0.00053332      -0.00812992       0.00295776
C        6.90100726       1.02325545       9.43684846       0.00263429      -0.01031196       0.00622460
C        8.13063605       0.20948894       9.77451103       0.00387657      -0.00671500       0.00946271
C        5.65409582       0.16557038       9.30496484       0.00459492      -0.01307923       0.00698622
H        7.07703688       1.55825924       8.49944053       0.00241865      -0.01259604       0.00510448
H        8.33812293      -0.52491139       8.99219766       0.00499563      -0.00970475       0.01272165
H        8.99774923       0.85479205       9.88940625       0.00295754      -0.00499989       0.00643800
H        7.99153138      -0.34290745      10.70886182       0.00512899      -0.00302421       0.01167965
H        5.78444797      -0.62865980       8.56812830       0.00569342      -0.01295894       0.00714514
H        4.79311864       0.77105985       9.01670809       0.00344135      -0.01498526       0.00704952
H        5.42992678      -0.29856789      10.26936620       0.00569152      -0.01311144       0.00724950
H        6.78155882       1.71288618      11.27914185      -0.00091735      -0.00550142       0.00390110
O       12.56691200       6.53647906       0.95001094      -0.00051367       0.03386694       0.01030540
C       11.41526185       6.01062442       1.59736288       0.00539589       0.01050927      -0.00290710
C       11.42945675       6.38558166       3.07749715      -0.00929920      -0.00840244       0.00107306
C       10.14276155       6.46504381       0.89347647       0.00226027      -0.00044715      -0.00309160
H       11.49751135       4.92448548       1.50999650       0.02121070       0.01333714      -0.01438241
H       10.49089126       6.12199215       3.57310553      -0.00812262      -0.02857776      -0.00936544
H       12.24485801       5.87671100       3.59366615      -0.00557756      -0.00136565       0.00122017
H       11.58949853       7.46199973       3.16100896      -0.02696217      -0.00795008       0.01665011
H        9.25524551       6.16501132       1.45691313       0.00526378      -0.02108935      -0.01101953
H       10.07905122       6.02616978      -0.10336914       0.01276919       0.01235721      -0.00877945
H       10.15238327       7.55208894       0.78619951      -0.01574602       0.00018695       0.00882706
H       12.48779823       7.50502229       1.02290759      -0.01221015       0.03203288       0.02604560
O        9.74011421       0.72266228       2.87680346       0.00966217      -0.00915302      -0.00619304
C       10.01993462       1.54628772       1.72937901       0.00267896      -0.00686377      -0.00556897
C        8.98319669       2.64685619       1.56736440      -0.00248682      -0.01179284      -0.00133947
C       11.42500403       2.10977041       1.82011378       0.00035441      -0.00047761      -0.01021685
H        9.95035460       0.85514110       0.88568309       0.00292933      -0.00684723      -0.00562054
H        9.12869689       3.17597204       0.62306649      -0.00653538      -0.01245030      -0.00184356
H        7.96830294       2.25164293       1.58739412      -0.00101760      -0.01562407       0.00191518
H        9.07446272       3.37939717       2.37607796      -0.00251383      -0.01123653      -0.00207527
H       11.67365753       2.67788207       0.92060473      -0.00672346       0.00037226      -0.01146860
H       12.16252173       1.32398473       1.96015654       0.00437048       0.00280428      -0.01222542
H       11.51050356       2.79088407       2.67276747      -0.00091559       0.00002743      -0.01064077
H        9.93249087       1.25469309       3.65553085       0.00699955      -0.00997247      -0.00522943
O        6.16413473       2.26095216       4.08042422       0.00561377       0.00517464      -0.00060567
C        6.99581893       1.39389616       4.86198174       0.00232074       0.00283903       0.00002331
C        8.15586192       2.14487960       5.48927064       0.00642031      -0.00123265      -0.00315762
C        6.17568837       0.67748687       5.92344182       0.00074059       0.00831580       0.00215203
H        7.39419680       0.66576821       4.15218932      -0.00263977      -0.00006676       0.00047728
H        8.86446132       1.44212070       5.92882313       0.00425304      -0.00340067      -0.00333204
H        8.67811031       2.74500418       4.73987865       0.00740314      -0.00458038      -0.00487293
H        7.81389763       2.80598178       6.28894463       0.01061562       0.00087805      -0.00338957
H        6.81765151       0.04466432       6.54091909      -0.00147598       0.00569778       0.00147362
H        5.40318724       0.06202315       5.46579525      -0.00303772       0.01192730       0.00414933
H        5.70373629       1.40537525       6.58643194       0.00568750       0.01120321       0.00229545
H        6.21187725       3.14857479       4.47049772      -0.00219869       0.00215935       0.00684898
O        4.84357646      12.58235455       3.21963652      -0.00189377       0.00823367       0.00362902
C        4.25877556      11.82391783       2.16036370       0.00151640       0.01095311      -0.00022078
C        2.75207695      11.93219135       2.15637542       0.00162333       0.00859916      -0.00176993
C        4.86128517      12.17769447       0.81262103       0.00348231       0.01638478       0.00239843
H        4.49624926      10.78908949       2.42067084       0.00251018       0.01034909      -0.00360285
H        2.33014805      11.17636585       1.49643100       0.00375820       0.00821789      -0.00247341
H        2.36316424      11.74782624       3.15851053       0.00112617       0.00733370      -0.00240599
H        2.41457239      12.91128408       1.80901775       0.00035955       0.00799720      -0.00124566
H        4.45663208      11.52833396       0.03253020       0.00487527       0.01907595      -0.00033024
H        5.94583813      12.07096643       0.82297348       0.00341007       0.01659005       0.00385825
H        4.62318165      13.20880673       0.54268514       0.00358686       0.01701626       0.00586077
H        5.02849024      13.49406881       2.95663413       0.00532563       0.00721537       0.00427718
O        0.78802785       2.30809407      10.83201612       0.00095493      -0.00676131      -0.00234357
C        2.00787997       3.04358712      10.97636614      -0.00099093      -0.00587989       0.00692728
C        1.77649112       4.32624874      11.75850421      -0.00650673      -0.00886792       0.00970578
C        3.08308285       2.16450532      11.58723801      -0.00371981      -0.00623539       0.01040205
H        2.29142767       3.29379691       9.94910839       0.00455742      -0.00215495       0.00959033
H        2.70265719       4.89513735      11.86528849      -0.00750677      -0.00900792       0.01701937
H        1.04187829       4.96344665      11.26936685      -0.00368501      -0.00750233       0.00762689
H        1.40416630       4.10824152      12.76188838      -0.01189492      -0.01306200       0.00663733
H        4.06110663       2.64909528      11.57908171      -0.00445025      -0.00497033       0.01714541
H        3.16054631       1.22839981      11.03316342       0.00079591      -0.00460562       0.00855573
H        2.82367811       1.93116302      12.62441415      -0.00919755      -0.00926368       0.00811687
H        0.53721451       1.98081731      11.70255093      -0.00113062      -0.01369142      -0.00572944
O        1.50905631       2.07980790       3.51392843       0.00593274      -0.00121671       0.00119555
C        2.27704258       3.24996804       3.81415327      -0.00216651       0.00287126       0.00454860
C        2.87563899       3.13678530       5.20509626      -0.00195748       0.00361156       0.00430042
C        3.32901855       3.48973948       2.74220413      -0.00315440       0.01253418       0.00616539
H        1.54973262       4.06661486       3.78815081      -0.00747013      -0.00204268       0.00629641
H        3.42127280       4.04151350       5.47915945      -0.00995378       0.00725923       0.00726310
H        2.09182824       2.96613171       5.94357245      -0.00046334      -0.00516330       0.00348265
H        3.58384407       2.30482562       5.23853145       0.00465004       0.00944497       0.00220631
H        3.88197952       4.41228956       2.93403959      -0.01170392       0.01700439       0.00777330
H        2.86185849       3.56471245       1.76111979      -0.00229186       0.00956892       0.00573120
H        4.05595963       2.67553517       2.73438772       0.00344531       0.01867570       0.00620515
H        2.08817930       1.32154445       3.64806723       0.01098803       0.00249083      -0.00088213
O        6.65287278       4.85066148       5.28351663      -0.00236696       0.00317398       0.01323728
C        5.81606880       5.97143507       4.92983078      -0.00062564       0.00312692       0.00776554
C        5.75228603       6.96865559       6.06734250       0.00114120       0.00739059       0.00368071
C        6.26977757       6.60550693       3.63227670       0.00185438      -0.00333065       0.00571775
H        4.82996335       5.52730691       4.78924410      -0.00136420       0.00466332       0.00893908
H        5.06802556       7.77964803       5.81975484       0.00150011       0.00675614       0.00117979
H        5.41542720       6.49577432       6.99170351       0.00203708       0.01146728       0.00578806
H        6.73314898       7.41814341       6.23848060       0.00137046       0.00719306       0.00124680
H        5.60688360       7.43174656       3.37153544       0.00574231      -0.00127684       0.00305768
H        6.27966512       5.87956624       2.81645375      -0.00171005      -0.00586218       0.00817382
H        7.27803201       7.02161727       3.73976726       0.00370556      -0.00787745       0.00442772
H        7.57032300       5.09486518       5.11661719      -0.00348338      -0.00418749      -0.00217052
O        9.58104890       3.31521029       9.38165089       0.00139403       0.00073731       0.00322448
C       10.92826927       3.03968815       9.00596120       0.00079823       0.00123095       0.00185025
C       10.99954497       2.36672443       7.64296715      -0.00046209       0.00277707       0.00105721
C       11.80539065       4.28056750       9.05323888       0.00078613       0.00118083       0.00218728
H       11.28864779       2.33868774       9.75993147       0.00188199       0.00074154       0.00062758
H       12.02920302       2.10322287       7.39135870      -0.00076602       0.00281513       0.00013020
H       10.39618441       1.45840720       7.63672074      -0.00074740       0.00308858       0.00005140
H       10.62301887       3.03547118       6.86370086      -0.00073908       0.00393549       0.00245037
H       12.85271772       4.00581320       8.92721577       0.00071523       0.00132615       0.00239155
H       11.69720065       4.78823607      10.01179573       0.00050942       0.00095399       0.00226432
H       11.54182840       4.97443918       8.25239692       0.00083580       0.00137691       0.00256819
H        9.20841134       4.02670923       8.84145555       0.00145325       0.00176842       0.00440631
