197
Lattice="13.24996799243401 0.0 0.0 0.0 13.24996799243401 0.0 0.0 0.0 13.24996799243401" Properties=species:S:1:pos:R:3:forces:R:3 energy=-149191.21875 stress="-0.001815697061829269 -0.0003267873398726806 5.5643693485762924e-05 -0.0003267873398726806 -0.0011313804425299168 0.00038447504630312324 5.5643693485762924e-05 0.00038447504630312324 -0.002437883522361517" pbc="T T T"
N        9.49550651      10.31540018       0.24294017      -0.00598133       0.00214076      -0.00794591
N        9.17403807       8.21536750       0.64717269      -0.00529058       0.00357175      -0.00104254
C        9.27031288      11.76537540       0.16230337      -0.00691229       0.00157404      -0.01325426
C        8.57760621       9.40046994       0.54790276      -0.00595367       0.00274467      -0.00670266
C       10.72424994       9.70531424       0.13929991      -0.00518328       0.00281405      -0.00251684
C       10.51504266       8.38637353       0.39090219      -0.00503343       0.00334320       0.00188550
C        9.59796724      12.46574736       1.46810889      -0.00761011       0.00596002      -0.01567590
C        8.55219254       6.96347132       1.05004904      -0.00630161       0.00409615      -0.00145297
H        9.90184987      12.13506711      -0.64437430      -0.00721419      -0.00069974      -0.01436722
H        8.22606855      11.90536772      -0.11225161      -0.00673270      -0.00021420      -0.01405114
H        7.53052275       9.59087521       0.67846573      -0.00624613       0.00191210      -0.00973387
H       11.60698018      10.31199790      -0.10065807      -0.00588656       0.00136420      -0.00451039
H       11.18624602       7.55131774       0.44308179      -0.00507919       0.00387992       0.00699531
H        8.89793926      12.17792948       2.24884332      -0.00575586       0.00596002      -0.01399732
H        9.51783897      13.54090432       1.31986587      -0.01050274       0.00533852      -0.01850479
H       10.61889342      12.25163313       1.78282420      -0.00681530       0.00952130      -0.01633195
H        7.51217219       7.14282806       1.29766084      -0.00564933       0.00529937      -0.00031476
H        8.60973959       6.24329230       0.23647819      -0.00801647       0.00463501      -0.00181183
H        9.06126466       6.59273455       1.93722674      -0.00609994       0.00274766      -0.00227138
N       12.68245801      13.19294708      -0.04791818      -0.01627129       0.03185761      -0.00946517
C       12.65743003      12.05920467      -0.32607592      -0.00648519      -0.00835216      -0.03116366
O       10.24305623       5.60051197       5.43862701       0.01847774       0.00834587      -0.00708729
O       11.15243434       3.91560688       6.60869286      -0.01451176      -0.00771165      -0.00452033
C       10.20134087       5.79020731       7.78220014      -0.00840835      -0.00274414      -0.00726110
C       10.58605413       4.98374265       6.58667690      -0.00223279      -0.00140464      -0.00604890
H       10.82317233       6.68315019       7.83379251      -0.01502073       0.00190550      -0.00659260
H        9.17682361       6.14426442       7.68268621      -0.01071535      -0.00974889      -0.01015545
H       10.32653869       5.19660235       8.68151157      -0.00828974      -0.00154188      -0.00663634
H       10.54246125       5.05374680       4.69636052       0.02110726       0.00882888      -0.00632134
O        4.98754923      10.38289187       2.00807049       0.00251938       0.03198165      -0.00109297
O        3.96452154       8.47605953       2.57138812       0.02190042       0.01374555      -0.02758440
C        3.43398004      10.50624816       3.77359958      -0.00149116      -0.00860041      -0.00145906
C        4.12495888       9.66175814       2.77323100       0.00940156       0.01319808      -0.01248396
H        4.12515952      11.23409811       4.19440281      -0.01121174      -0.00528145       0.00857833
H        2.66180004      11.07366361       3.24662987      -0.00911927      -0.01195961       0.00601511
H        3.00494670       9.90239583       4.56390090       0.00640805      -0.02494991      -0.00972915
H        5.20800924       9.90314557       1.18827760       0.00847108       0.04555565      -0.00813788
O        4.92751065      10.35503498      10.52531735      -0.01376852      -0.01033390      -0.00344673
O        5.78259013      10.30135747      12.59253790      -0.01211720      -0.01919824      -0.00479406
C        6.24811159      12.19083685      11.16835091      -0.01712906      -0.01135516       0.00319457
C        5.62853050      10.88231779      11.52947708      -0.01476046      -0.01346596      -0.00144935
H        5.73259194      12.65348764      10.33262029      -0.03099345      -0.00040597       0.01769128
H        6.23522620      12.86122023      12.02357181       0.00045513      -0.02095301       0.01070857
H        7.28772106      12.01659160      10.87324779      -0.02299327      -0.01193300      -0.01806374
H        4.54531771       9.50801458      10.80260113      -0.00706667      -0.01558572      -0.01044050
O        2.19347319      12.17006079       1.06229328      -0.02200770      -0.00195271       0.00749961
O        3.15505488      12.15633431      -0.96643916       0.02267158       0.01476699       0.02820754
C        2.32893458      10.09482451      -0.04761418      -0.00093894       0.00812370      -0.00702509
C        2.61969543      11.56783046      -0.05698545       0.00234839       0.00726551       0.01180828
H        3.18014183       9.53516526      -0.43071703      -0.00475648       0.01066416      -0.01835994
H        2.05598049       9.73434608       0.94037849       0.00208826      -0.00419730      -0.01059145
H        1.47819667       9.94002142      -0.71409672      -0.00592323       0.02145994      -0.00402558
H        2.15617919      13.12544332       0.89702815      -0.01881039      -0.00096875       0.01544961
O        5.25062961       8.88732243       7.86029515       0.01318389       0.00903457      -0.00067511
O        3.61690468      10.08167334       6.90397839       0.00698018       0.00244469       0.00201023
C        5.61760290      11.21858963       7.55219620       0.00923264       0.00729847      -0.01271477
C        4.71808818      10.03774401       7.39422819       0.00912154       0.00604057      -0.00311592
H        6.51732048      10.99522328       8.11853469       0.01014614       0.01115481      -0.01276344
H        5.88024175      11.56008675       6.54984691       0.00839715      -0.00053457      -0.01561695
H        5.05979314      12.01819815       8.03565031       0.01052466       0.01145743      -0.01821676
H        4.63763357       8.18422025       7.59873226       0.01350075       0.00625947       0.00642505
O        9.16720683       6.80623606      10.84230993       0.00363338      -0.00139588       0.00267303
O        9.92411509       8.85755275      10.35264284       0.00915688      -0.00732949      -0.01294295
C        7.70133428       8.24823378       9.66948790       0.00068742      -0.00015763       0.00894102
C        9.03292882       8.04841533      10.30129161       0.00572628      -0.00285745      -0.00168652
H        7.54589860       7.52512047       8.86925162      -0.00717168      -0.00000988       0.01032595
H        6.90516875       8.07502798      10.39403629       0.00667308       0.00222673       0.01593132
H        7.63921413       9.25478819       9.27165595      -0.00021588      -0.00050405       0.00839102
H       10.05844045       6.77466320      11.21928328       0.00669920      -0.00445583      -0.00498867
O        7.00073558      11.37401650       3.76550479       0.00521874       0.01721945       0.02120727
O        8.39345862       9.66859061       3.32443331      -0.00490986       0.01625085      -0.00635266
C        8.81360145      11.09268887       5.21277582       0.01972064       0.00009689      -0.00016868
C        8.06627537      10.60968520       4.01140419       0.00521033       0.01153892       0.00419813
H        9.29183484      12.04036841       4.94659093       0.03046686      -0.00622752      -0.00326994
H        8.11346420      11.27813882       6.02834199       0.02865703       0.00778972       0.00574651
H        9.55388383      10.35818637       5.51375784       0.01355338      -0.00867619      -0.00672102
H        6.45589159      10.97155642       3.06132473       0.00003180       0.02634624       0.02022788
O        6.85842331       4.78738750      12.30696697      -0.00153726      -0.00571927       0.01788226
O        6.55325240       2.57129395      12.42858238       0.00154024      -0.00622207       0.00252731
C        8.78352681       3.42483768      12.15208215       0.00036460      -0.00467951       0.00669695
C        7.29807221       3.52075468      12.30240483       0.00031888      -0.00494438       0.00791576
H        9.16442071       4.21625365      11.51059606       0.00497811      -0.00395671       0.01032600
H        9.24941077       3.53178217      13.13312497       0.00031380      -0.00974217       0.00709072
H        9.06224831       2.44688270      11.77159555      -0.00184553      -0.00389326       0.00345779
H        5.90233144       4.76492456      12.52593320      -0.00170904      -0.00919388       0.01691634
O        5.78291883       5.50951791       8.28938457      -0.01782703      -0.01583114      -0.00858214
O        5.32415207       3.33349319       8.55766799      -0.00377083      -0.01710701       0.00485164
C        7.53646194       4.11084149       9.05402063      -0.01188958       0.00118565       0.01007488
C        6.11580623       4.24051670       8.62941210      -0.01053149      -0.01105654       0.00217340
H        8.15121899       4.15041761       8.15586905      -0.00815837      -0.00407840       0.01236820
H        7.83926441       4.92714062       9.70610592      -0.01880575       0.00812787       0.00449051
H        7.67756763       3.14722111       9.53430395      -0.00922349       0.00630891       0.01921649
H        4.87837718       5.45170280       7.94469863      -0.01442558      -0.02558732      -0.01571508
O        3.58283324       5.35592956      10.63508452       0.00248285      -0.00928801       0.00125465
O        2.47835817       4.71198503       8.80659538       0.00234847      -0.00149313      -0.00110716
C        3.02296301       3.07262313      10.47684211      -0.01000894      -0.00521606      -0.00046790
C        3.00477780       4.43468326       9.88809595      -0.00112784      -0.00507894      -0.00023580
H        4.00030026       2.86480979      10.90952731      -0.01283002      -0.01036311       0.00296712
H        2.27928391       3.04705807      11.27660401      -0.01313402      -0.00090557      -0.00329253
H        2.78410234       2.33260214       9.72125934      -0.01174583      -0.00391051      -0.00101817
H        3.36172602       6.26591876      10.27839112       0.00917053      -0.00764874       0.00245109
O        1.08032911       2.11999314       6.39378735       0.02740082      -0.01456398       0.02383024
O        3.01837498       3.15481972       5.96163889       0.02401090      -0.02277771      -0.01052141
C        0.98047243       3.96544454       4.93989247       0.01261064      -0.02389169       0.01262337
C        1.81964782       3.07506113       5.80488087       0.02159613      -0.02055997       0.00695154
H        1.05969595       3.59497847       3.91357840       0.01076660      -0.02046251       0.01130661
H       -0.06522614       3.92131314       5.23563292       0.01410148      -0.02884386       0.01676709
H        1.35888912       4.98569994       4.97486246       0.00797257      -0.02218455       0.01287005
H        1.69014803       1.56984305       6.90465255       0.03314817      -0.01281478       0.01886207
O       10.75750302      12.00581532       7.49222865       0.00665593       0.01449551       0.00194031
O        9.16589081      11.84154801       9.05752128      -0.00107402       0.00473069      -0.00670141
C       11.47263957      11.45752474       9.67676989      -0.00330049       0.00847042       0.00316679
C       10.33323705      11.76077584       8.77346115       0.00112945       0.00835997      -0.00122368
H       12.15774834      10.75794344       9.19901713       0.00119306       0.01175565       0.00472029
H       12.02718480      12.37564950       9.88432125      -0.00687109       0.00925457       0.00898011
H       11.11546708      11.04260646      10.61033911      -0.00633888       0.00472154       0.00016040
H        9.96115529      12.19162970       6.97422036       0.00917715       0.01616593      -0.00080611
O        6.40648042       7.37610616       3.54760176       0.00224984       0.00609381      -0.00900400
O        5.83731416       8.99661188       4.97564908       0.00505930       0.00266731      -0.00433470
C        7.58176637       7.45947291       5.58915141       0.00287163      -0.00192598      -0.00966495
C        6.53010883       8.03606317       4.70691124       0.00336248       0.00255311      -0.00755264
H        7.35195306       6.41521584       5.80909794       0.00083788      -0.00195834      -0.01218715
H        8.54160473       7.46938088       5.07526968       0.00234058      -0.00298353      -0.01058148
H        7.64658762       8.03865983       6.50539108       0.00493719      -0.00471555      -0.00809765
H        5.61984641       7.73998604       3.09563989       0.00520852       0.01099540      -0.01046247
O        6.31222937       4.17400677       2.91432040       0.00305253      -0.00514308       0.00174415
O        4.40714563       2.99236073       2.85050803      -0.00145602       0.00348091      -0.01131964
C        4.39532942       5.13464302       3.91655585       0.00039500       0.00393373      -0.01275027
C        5.01091173       3.99045834       3.18168586       0.00088817       0.00061333      -0.00703359
H        5.02572115       5.40623437       4.76145642       0.00120221       0.01179816      -0.01624228
H        4.32319028       6.00469960       3.26783877      -0.00303398      -0.00114076      -0.01943764
H        3.41146541       4.84563048       4.25756562       0.00124325       0.00406358      -0.01003171
H        6.66737451       3.30508137       2.63334750       0.00109412      -0.00680280       0.00380651
O       12.44521983      10.11370684       6.15556897       0.00722966       0.01102525       0.00877053
O       10.77508966       8.83160913       6.91883424       0.01716000       0.01070813       0.02970225
C       12.71060733       7.75847621       5.99544058       0.00807232       0.01118118       0.01085211
C       11.86771398       8.92588459       6.40393374       0.01165092       0.01105412       0.01835662
H       13.64267511       8.05971506       5.52730140       0.00986582       0.01156391       0.01484952
H       12.94240975       7.16733768       6.88229874       0.00275356       0.00236073       0.00612989
H       12.12271313       7.12796641       5.33038401       0.00683799       0.01926054       0.00409234
H       11.86920183      10.80628415       6.53952289       0.00840154       0.01141100       0.00970964
O       13.14540860       5.95442138       9.17812147      -0.00187266      -0.00137556       0.01240960
O       13.57647390       5.02908816      11.17735898       0.01563662      -0.00210774       0.00843748
C       12.85253202       7.31819839      11.08141250       0.00958516      -0.00422001       0.01703358
C       13.22054365       5.97914590      10.52712216       0.00864789      -0.00216621       0.01176885
H       13.71082625       7.98265619      10.96541032       0.00906694      -0.00278080       0.02081767
H       12.01040946       7.77906854      10.56360064       0.00957036      -0.00287812       0.01842900
H       12.65301039       7.22145546      12.14293843       0.00972420      -0.00981141       0.01651520
H       13.51013440       5.10191547       8.88438205      -0.00168794       0.00018197       0.00893176
O        5.91570976       1.92010177       6.01015025      -0.01481658      -0.00576785      -0.01144255
O        7.04398007       3.85841904       5.96989548      -0.01029041      -0.00811654       0.00499005
C        8.28203940       1.79595870       5.99041098      -0.01517868      -0.01073322      -0.00621577
C        7.05572950       2.65334406       5.98303344      -0.01348548      -0.00820065      -0.00328675
H        8.22206559       1.06704988       6.80077930      -0.01562252      -0.01075512      -0.00634812
H        8.33240747       1.26055320       5.04029971      -0.01793939      -0.01076515      -0.00626382
H        9.17013890       2.41233307       6.10404991      -0.01383218      -0.01257941      -0.00737573
H        5.14428188       2.51251654       6.10499194      -0.01555127      -0.00607556      -0.01235912
O        2.31460980       7.07503522       7.80143377      -0.00389560       0.00317022       0.01166546
O        2.75618130       7.75304481       9.88446893       0.01628594      -0.00027232       0.00828853
C        1.36180071       9.12525706       8.50168615       0.01121894       0.00663930       0.01969267
C        2.21830559       7.94428828       8.79166057       0.00812566       0.00283311       0.01269504
H        1.43664811       9.41895084       7.46138608       0.01038092       0.01045439       0.02068946
H        0.33094926       8.81838560       8.70204665       0.01050219       0.00967488       0.02030625
H        1.61734228       9.95686548       9.15173310       0.01557408       0.00326794       0.02215815
H        2.50495908       6.15397579       8.18811718      -0.00069456       0.00271341       0.00815731
O        5.26590691       0.36607151       3.79654793      -0.01423344      -0.00186831      -0.01348442
O        7.00391364       1.52200661       2.99267790      -0.00926822      -0.00384325      -0.00517888
C        5.52737836       0.41451319       1.45936041      -0.00564450       0.00209537      -0.01222587
C        6.00852955       0.83641756       2.80354757      -0.01038229      -0.00103998      -0.01002377
H        5.66968157      -0.65907731       1.33511651      -0.00122466       0.00312465      -0.01385386
H        4.45763145       0.59820624       1.38471889      -0.00612304      -0.00295871      -0.01584480
H        6.06406374       0.95829234       0.68947301      -0.00524053       0.00544085      -0.00931837
H        5.58816119       0.76469700       4.63094992      -0.01552585      -0.00445147      -0.01167153
O       13.70030820       6.73945772       2.35183200       0.01842868      -0.00663596       0.00206595
O       11.53179285       6.79184274       2.89769052       0.01508719      -0.01877400      -0.00903258
C       12.77906497       8.86000159       2.80580707       0.00441039      -0.01308769       0.00319608
C       12.57287768       7.38160057       2.70942067       0.01378304      -0.01354024      -0.00189078
H       13.62535888       9.08708424       3.45275414       0.00631961      -0.00844597      -0.00132786
H       13.02135123       9.26332307       1.82074087      -0.00444184      -0.00780901       0.00292373
H       11.87759274       9.34046639       3.17396885       0.00246286      -0.02243818       0.01068114
H       13.49222153       5.79404547       2.27412662       0.02389687      -0.00712836      -0.00514432
O        4.39345784       4.29174511       0.19714480      -0.01262292      -0.00004894       0.00440934
O        2.23355976       3.84520150       0.61273984      -0.01379120       0.01916915       0.01911131
C        2.92552163       6.13588190       0.38502751      -0.00305383       0.01127034      -0.02037458
C        3.09622185       4.65435585       0.40429748      -0.00982732       0.01095545       0.00255415
H        3.05340566       6.51581440       1.39981687      -0.01728239       0.02352031      -0.02314222
H        3.66441769       6.61850896      -0.24909078       0.00744791       0.00059833      -0.01610056
H        1.91734594       6.37452366       0.06077099       0.00202525       0.00927618      -0.03817884
H        4.47670338       3.33256396       0.32818888      -0.01832460       0.00280017       0.02664107
O       11.36513822       2.01867084       0.81907183      -0.01030672       0.00636890      -0.00138950
O       12.20433421       1.83130172       2.90387480      -0.00329828      -0.01049864      -0.00598562
C       10.24676170       3.16190012       2.54612188       0.00486660       0.00419158       0.01035309
C       11.38531243       2.26293200       2.12187966      -0.00261700      -0.00058550       0.00099686
H       10.42169168       4.17754261       2.18245737       0.00340827       0.00277483       0.00607456
H        9.30182596       2.81174019       2.13025235      -0.00051902       0.00572123       0.02123605
H       10.17965080       3.16930403       3.63171169       0.01703104       0.00584541       0.01097256
H       12.02840929       1.27892122       0.54687851      -0.01502751       0.00396283      -0.00767992
