188
Lattice="12.118137758496534 0.0 0.0 0.0 12.118137758496534 0.0 0.0 0.0 12.118137758496534" Properties=species:S:1:pos:R:3:forces:R:3 energy=-94735.8671875 stress="-0.004698173142969608 0.0010093118762597442 0.0009767935262061656 0.0010093118762597442 -0.004306858871132135 0.0006209524290170521 0.0009767935262061656 0.0006209524290170521 -0.004947675857692957" pbc="T T T"
N        9.17467154       8.61257438       2.20454275       0.00822812       0.00658756       0.00277325
N       10.45032962      10.29780809       1.75831415       0.01131493       0.00952357       0.00776494
C        6.77591706       8.28760002       2.51760393       0.00837409       0.00418552      -0.00512457
C        6.31727290       9.35607794       1.53779487       0.00878146       0.00615512      -0.00283134
C        8.08908909       7.63248541       2.12535746       0.00934970       0.00746197      -0.00600222
C        4.91054173       9.84015929       1.84197650       0.00842312       0.00434430      -0.00318018
C        4.40712944      10.91870082       0.89651038       0.00853825       0.00605994      -0.00067413
C        9.60380401       9.40723353       1.22188051       0.01090154       0.00831500       0.00144219
C        9.75054048       9.00437769       3.38528665       0.01844108       0.02330270      -0.00275356
C        3.00094847      11.35488079       1.26989616       0.00716558       0.00192910      -0.00272748
C       10.54171386      10.07241433       3.11265402      -0.00728968      -0.01153286       0.00941861
C       11.29287342      11.21964818       1.01710580       0.00878212       0.00955230       0.00725076
H        6.87700868       8.71537327       3.51754868       0.00513157       0.00089712      -0.00363284
H        6.03314641       7.49298893       2.59473967       0.00956644       0.00283211      -0.00960212
H        6.35670259       8.96154516       0.51543377       0.01004589       0.00832556      -0.00344977
H        6.99942417      10.21395530       1.55908355       0.00812474       0.00615105      -0.00038672
H        8.06209711       7.23625838       1.11012938       0.01137919       0.01263922      -0.00640103
H        8.34509942       6.81093665       2.79354258       0.00918315       0.00458252      -0.00846669
H        4.22142892       8.98786374       1.80765310       0.00925179       0.00401708      -0.00553383
H        4.87664724      10.21591604       2.87252640       0.00735869       0.00189270      -0.00250345
H        5.09161178      11.77377186       0.91303463       0.00670123       0.00716349       0.00335304
H        4.41712060      10.53640637      -0.12988235       0.01166132       0.00970834      -0.00161693
H        9.26381670       9.38621099       0.19253590       0.01253342       0.01148300       0.00395391
H        9.57953061       8.49945440       4.31605468       0.00246759       0.00325635       0.00271712
H       11.14273701      10.67236021       3.77077766       0.00529921       0.00696415       0.00893507
H        2.96778688      11.69076951       2.30621982       0.00395029      -0.00257397      -0.00161755
H        2.63335884      12.16797149       0.64923805       0.00715880       0.00357935      -0.00015964
H        2.30950161      10.51429643       1.17518215       0.00904434       0.00117344      -0.00784507
H       12.30105771      10.81449867       0.93989815       0.00726303       0.00697711       0.00130738
H       10.88271845      11.35840312       0.02152206       0.00534438       0.01693536       0.01151195
H       11.32527078      12.17427353       1.53770272       0.01492429       0.00612757       0.01411757
O        9.43696532      11.23695424       6.45421150      -0.00272630       0.00236702       0.00550409
O       10.59271098       9.31816925       6.19606877      -0.00779510       0.01021445       0.00479391
C        8.22464505       9.20386029       6.24575057       0.00135982       0.00030607       0.00488559
C        8.23636998       7.80745522       6.21019707       0.00411858       0.00020201       0.00239112
C        7.00200092       9.86239529       6.12904937       0.00104077      -0.00200838       0.00659034
C        7.06249081       7.08891513       6.01959611       0.00486029      -0.00131406       0.00221157
C        5.81892441       9.14855381       5.96857497       0.00226909      -0.00307296       0.00530582
C        5.84819865       7.75851734       5.89972626       0.00384431      -0.00195371       0.00357266
C        9.54298543       9.99965166       6.31910331       0.01027799      -0.00542188       0.00345233
H        9.19282443       7.30685024       6.31211818       0.00440447       0.00180953       0.00027876
H        7.01031205      10.94587700       6.14111705       0.00010112      -0.00198579       0.00913114
H        7.08851619       6.00530083       5.97455033       0.00639547      -0.00012091      -0.00040198
H        4.87670163       9.67694675       5.87958511       0.00202781      -0.00417864       0.00618221
H        4.93270148       7.19742960       5.75493405       0.00491674      -0.00311690       0.00335120
O        4.59604232       3.03816733       8.30565979      -0.00144163      -0.00133538      -0.00190243
C        5.52133672       2.24638638       6.28659594      -0.00672361       0.00618172      -0.00699729
C        6.58687063       2.22278713       7.37461849      -0.00535065      -0.00042214      -0.00903757
C        4.51754720       3.22033011       6.88999407      -0.00582319       0.00286484      -0.00079617
C        5.72057578       2.20527363       8.62003996      -0.00320286      -0.00534607      -0.00808656
H        5.90073639       2.56354053       5.31538519      -0.00810236       0.01179823      -0.00531916
H        5.08008056       1.25292511       6.17873903      -0.00719732       0.00724027      -0.01250008
H        7.27302837       1.38252926       7.29886826      -0.00641631      -0.00058758      -0.01414938
H        7.17002363       3.14530259       7.33908105      -0.00439833      -0.00124246      -0.00538287
H        4.79240317       4.25819571       6.64656491      -0.00781995       0.00378656       0.00213277
H        3.48409912       3.06066479       6.57660067      -0.00620463       0.00254795       0.00139101
H        5.36618272       1.19138981       8.83618334      -0.00459993      -0.00572520      -0.01278681
H        6.21023986       2.60589773       9.51240547      -0.00133477      -0.01078641      -0.00716925
O        8.50114336       9.63844658      10.42470138       0.01007021       0.02398527       0.02675374
C        7.92562597      11.66183865       9.28491452       0.01157084       0.01511997       0.01434061
C        9.42071135      11.62336740       9.61578032       0.01602447       0.00252199      -0.01130906
C        7.37210481      10.37464170       9.90859483       0.01096383       0.01906800       0.02174921
C        9.66830891      10.13345274       9.75012003       0.00522277       0.00413197       0.00708756
H        7.43792041      12.54742413       9.68573631       0.02605303       0.01832891       0.02318242
H        7.81257135      11.63577806       8.20273629      -0.00902944       0.01830057       0.01742789
H       10.02419467      12.07004571       8.82798366       0.00471027      -0.01811240      -0.02963394
H        9.60936147      12.13277244      10.56347628       0.03907897       0.01458012      -0.02424523
H        6.69765105      10.55397752      10.74737739       0.00968209       0.02302432       0.01938269
H        6.85649903       9.76526621       9.16105051       0.01431023       0.01337886       0.02379274
H        9.77759609       9.66556409       8.76683386      -0.01243033      -0.01104498       0.01345384
H       10.53889500       9.86493168      10.35480422       0.00969529       0.00471878       0.00036988
O        0.91628787       4.74792830       7.86804840       0.00384892      -0.00415346       0.00553179
C        1.51902684       7.01585412       7.54030126      -0.00335196      -0.00313437      -0.00111133
C        0.87661146       6.87686994       8.91830066      -0.00727189      -0.00137037      -0.00303519
C        1.04223006       5.74823889       6.84713719       0.00664704      -0.00823343       0.00211968
C        0.94256038       5.37360615       9.15776254      -0.00034077       0.00055671       0.00281001
H        1.19086135       7.91592027       7.02278512      -0.00643450      -0.00735247      -0.00556688
H        2.60875019       7.02838858       7.62232565      -0.00397483       0.00357042       0.00261898
H        1.40089321       7.43623262       9.69150144      -0.01342790       0.00442713      -0.00337020
H       -0.15816700       7.22118530       8.86795508      -0.00857121      -0.00708288      -0.00809463
H        0.06422158       5.91902900       6.37881740       0.00938910      -0.01545337      -0.00507250
H        1.72494619       5.38311514       6.08380869       0.01310089      -0.00850862       0.00824949
H        1.86691103       5.09513180       9.66915950       0.00006866       0.00715645       0.00519659
H        0.10622105       4.99033966       9.74500596       0.00072235      -0.00122502       0.00292550
O        0.51154383       1.52629563       4.16456689      -0.00742465      -0.00925999      -0.02225018
C        2.80613557       1.91337603       4.02914638      -0.00779212      -0.00552947      -0.00416026
C        2.61512205       0.61536360       4.81375167      -0.01139969      -0.00364178      -0.00268289
C        1.46103768       2.58147769       4.25852445      -0.01014763      -0.00744612      -0.01655115
C        1.13923455       0.29887949       4.55168627      -0.00891876      -0.00650113      -0.01130689
H        3.65061799       2.50719080       4.37073674      -0.01187856      -0.00324954       0.00073813
H        2.94237861       1.70505150       2.96530233       0.00056387      -0.00789907      -0.00224969
H        3.28174340      -0.18720120       4.49443053      -0.00911990      -0.00370526       0.00307181
H        2.79423932       0.78354255       5.87690998      -0.01805344      -0.00143309      -0.00229862
H        1.42835787       3.04400554       5.25757191      -0.01903710      -0.00559305      -0.01821560
H        1.19017590       3.33892076       3.52359969      -0.00534499      -0.00975728      -0.02021328
H        1.03105168      -0.39096073       3.71194475      -0.00187443      -0.01060301      -0.00831848
H        0.62426153      -0.12968184       5.41743185      -0.01434672      -0.00227402      -0.01300550
O        2.28764009       6.85903698       4.34118654      -0.00558606      -0.00925855      -0.00508187
C        1.66653351       9.09684332       3.91101229       0.00201261      -0.00880325      -0.01000185
C        1.16272346       8.19873751       2.78362242      -0.00119101      -0.00902596      -0.00798875
C        2.73011205       8.21188395       4.53585220      -0.00111657      -0.01074171      -0.00821413
C        1.12105528       6.86638137       3.50423373      -0.00474153      -0.00760528      -0.00597435
H        2.08212779      10.03885867       3.56709558       0.00434999      -0.01070145      -0.01137383
H        0.86070175       9.29786368       4.62404289       0.00273538      -0.00575117      -0.01043457
H        0.19346453       8.48396328       2.38388472      -0.00059028      -0.00669431      -0.00750741
H        1.88430468       8.16785430       1.96318749      -0.00247270      -0.01243849      -0.00844592
H        3.69504990       8.33991266       4.03327169      -0.00059727      -0.01492986      -0.00788438
H        2.87004128       8.39374786       5.60284291      -0.00095423      -0.00888516      -0.00865597
H        0.21911746       6.79950563       4.12677296      -0.00518245      -0.00406389      -0.00619942
H        1.15831978       5.99796948       2.84606597      -0.00669443      -0.00854999      -0.00397569
O        3.92368871       6.74926005      10.35863174       0.00065151      -0.00134831       0.00830257
C        5.86484671       5.68080321       9.58720758       0.00179428       0.00769195       0.00220218
C        6.06176902       7.18231748       9.38617816       0.00129938       0.00944778       0.01426813
C        4.35499456       5.57763960       9.66081450       0.00211322       0.00447986       0.00104988
C        4.86985364       7.80251889      10.12389782      -0.00744116       0.00409986       0.00502384
H        6.27297593       5.08019513       8.77455933       0.00258160       0.01455958      -0.00210327
H        6.31782452       5.34478610      10.52254679       0.00147554       0.00051437      -0.00072512
H        7.02054370       7.54710085       9.75084304      -0.00382277       0.00718728       0.02858217
H        6.00784706       7.42132842       8.32718516       0.01437851       0.01721410       0.01576170
H        3.92110568       5.54762709       8.65390908       0.00235187       0.01018847       0.00105470
H        3.99175411       4.70639878      10.20397037       0.00391483       0.00077686      -0.00437388
H        5.14822802       8.21501180      11.09717949      -0.01602228       0.01287153       0.00311533
H        4.39754354       8.60226169       9.54266894      -0.01115155      -0.00431424      -0.00300008
O        2.84292282       0.55126705       8.87833184      -0.01299214      -0.00288436      -0.00630519
C        0.81814640       1.64134841       9.52616273      -0.01203328      -0.00542235      -0.00004093
C        1.54596051       1.06589114      10.73856090      -0.00699252      -0.00382510      -0.00258857
C        1.61382635       1.07086200       8.34458720      -0.01369655      -0.00188038      -0.00281316
C        2.97306264       1.01816259      10.21670438      -0.00890833      -0.00246440      -0.00720486
H       -0.23456175       1.36765660       9.48893382      -0.01086292      -0.00923882       0.00265596
H        0.88629003       2.72865487       9.52618120      -0.01538819      -0.00546327       0.00028007
H        1.43008266       1.67560663      11.63597784      -0.00474124      -0.00352593      -0.00283754
H        1.19714523       0.05148416      10.95242626      -0.00467153      -0.00388384      -0.00072220
H        1.09968278       0.24366042       7.84960618      -0.01373535      -0.00022733      -0.00464296
H        1.82790695       1.85088164       7.60785482      -0.01493120       0.00059587      -0.00015590
H        3.41777919       2.02278116      10.23123110      -0.00969027      -0.00243235      -0.00896683
H        3.63384479       0.32903651      10.74395589      -0.00703573      -0.00193691      -0.00931180
O       10.35936600       5.32580808      12.45480319      -0.00609918      -0.00757971       0.01032439
C        9.41483268       5.29282375      10.28336954      -0.00109616       0.00023940       0.00854135
C        9.73121769       6.73022083      10.67585186       0.00413680      -0.00211394       0.01189062
C        9.41558539       4.60801874      11.63806588      -0.00627551      -0.00251593       0.00695789
C       10.77285898       6.50827622      11.76141778       0.00031739      -0.00828552       0.01370624
H        8.46778413       5.17888827       9.76132423      -0.00030333       0.00532137       0.00668748
H       10.20039321       4.89515385       9.64192199      -0.00178987      -0.00201472       0.00933865
H       10.07689478       7.34757950       9.84945405       0.00906277      -0.00229834       0.01424590
H        8.84166532       7.21140205      11.08704752       0.00532174       0.00086208       0.01048118
H        8.42603855       4.67522023      12.10607829      -0.00678778      -0.00055976       0.00538221
H        9.70528600       3.55595537      11.59971601      -0.00955121      -0.00301951       0.00522819
H       11.76856487       6.35827892      11.32907373       0.00038594      -0.01174462       0.01547453
H       10.84460450       7.32229964      12.48594570       0.00197572      -0.01019841       0.01518768
O       10.24890796       2.88252520       5.24549665      -0.00452881       0.01171201      -0.00854069
C        9.62572269       4.31136923       7.01313177      -0.00181741       0.00394160      -0.00277936
C       10.04791075       2.97048604       7.61563686      -0.00175929       0.00220752      -0.00762451
C        9.35045299       3.93267038       5.56548544      -0.00616916       0.00812483      -0.00255540
C       10.78487551       2.30670291       6.45668774      -0.00796655       0.00257428      -0.01169699
H        8.76104852       4.76300651       7.49863568       0.00041099       0.00340578       0.00098942
H       10.45374328       5.01941644       7.07487609      -0.00098357       0.00288433      -0.00369038
H       10.69693516       3.08783637       8.48117640       0.00221504      -0.00026268      -0.01055905
H        9.18201432       2.38141525       7.91704098      -0.00112033       0.00339220      -0.00465402
H        8.31255860       3.58429868       5.44714077      -0.00548691       0.00616276       0.00024419
H        9.50989061       4.75500137       4.85999610      -0.01036155       0.01003590      -0.00073871
H       11.85029183       2.54680739       6.50636273      -0.00652295      -0.00503033      -0.01273057
H       10.65158685       1.22345093       6.41874272      -0.01497959       0.00408661      -0.01559078
O        5.91863627       5.23927081       1.99851616       0.00369468       0.00065971       0.00683835
C        3.71220440       5.88088654       1.54713537       0.00507319      -0.00660610      -0.00730224
C        3.66219463       4.68344368       2.48880037       0.00330812      -0.00393516      -0.00465610
C        5.07836157       5.68389538       0.92717135       0.00886303      -0.00423855       0.00125310
C        5.09230187       4.64169070       3.01179172      -0.00074905       0.00391908       0.00479562
H        2.91399094       5.91379929       0.80741199       0.00961386      -0.01075547      -0.01188819
H        3.69092220       6.80313984       2.13121624      -0.00050450      -0.00524807      -0.01032706
H        2.94669210       4.79881397       3.29689498      -0.00254795      -0.00497784      -0.01016241
H        3.42497300       3.77643993       1.92720592       0.01120951      -0.00635359      -0.00359419
H        5.03155704       4.91655905       0.14458380       0.01547657      -0.00617534       0.00319493
H        5.51819345       6.58558819       0.50039671       0.00880711      -0.00414383       0.00144546
H        5.19792221       5.23075109       3.93067121      -0.00944307       0.00988257       0.00165072
H        5.44425748       3.62586196       3.20596605       0.00177763       0.00687206       0.01306699
O        7.58809573       1.57576866       0.24982931      -0.00796495      -0.00823247       0.00776038
C        8.75756179       1.44291725       2.31709966      -0.00460488      -0.01140228       0.00402677
C        8.01598721       2.77610706       2.23884218      -0.00186759      -0.01010704       0.00760323
C        8.76035312       1.01886612       0.85240762      -0.00464101      -0.00584142       0.00296021
C        6.96935638       2.47920449       1.17658405      -0.00320500      -0.00546552       0.00814149
H        9.75256604       1.53971865       2.75099890      -0.00511101      -0.01428967       0.00500141
H        8.19478299       0.73070640       2.92658430      -0.00636858      -0.01221399       0.00100842
H        7.58263860       3.08189411       3.18836755      -0.00054491      -0.01142347       0.00844064
H        8.68937610       3.57074642       1.91288942      -0.00045428      -0.01094940       0.00923185
H        9.64425241       1.41355037       0.33258668      -0.00674832      -0.00001836       0.00425479
H        8.72748771      -0.06372440       0.70853643      -0.00083063      -0.00479016      -0.00261592
H        6.08978209       1.98975021       1.62119535      -0.00481302      -0.00192207       0.00791577
H        6.63235714       3.35643058       0.62801759       0.00049971      -0.00392354       0.00887886
