194
Lattice="12.517355575908043 0.0 0.0 0.0 12.517355575908043 0.0 0.0 0.0 12.517355575908043" Properties=species:S:1:pos:R:3:forces:R:3 energy=-161082.609375 stress="-0.0027414520736783743 0.0008200877346098423 0.00017826401017373428 0.0008200877346098423 -0.0007843913626857102 -0.0003439136198721826 0.00017826401017373428 -0.0003439136198721826 -0.0020405156537890434" pbc="T T T"
N        8.24376110       6.99871356       3.38603396      -0.00251991       0.00235480       0.00433889
N        6.60644431       6.19689754       2.21765869       0.00148553       0.00386739       0.00410786
C        8.58349368       8.97368790       4.83671859       0.00106302       0.00468022      -0.00193815
C        7.12064216       9.10838203       5.22392870       0.00096402       0.00507909      -0.00251897
C        8.99602165       7.54363303       4.51756260       0.00062686       0.00418373       0.00012791
C        6.76528500      10.50270022       5.71433381       0.00058541       0.00320670       0.00179228
C        5.29161706      10.60382496       6.07527615      -0.00046781       0.00170058      -0.00267528
C        7.02489917       6.46293682       3.45437138       0.00118518       0.00603221      -0.00250566
C        8.61241180       7.07485151       2.06609252       0.02016199       0.00883599       0.00775039
C        4.83052110      12.02160232       6.35747399      -0.00017995      -0.00046366       0.00741167
C        7.58880891       6.56532471       1.33322409      -0.00604776      -0.00449872      -0.01372969
C        5.29573966       5.67996075       1.86169886       0.00393170       0.00478080      -0.00469829
H        8.81616095       9.62598792       3.98928287       0.00108007       0.00287095      -0.00337079
H        9.19811800       9.30888339       5.67162032       0.00146542       0.00647712      -0.00297755
H        6.90039435       8.38814232       6.02071360      -0.00000820       0.00261390      -0.00511578
H        6.48251161       8.87072918       4.36600057       0.00160454       0.00879873      -0.00355965
H        8.81886710       6.89428669       5.37394871      -0.00403956       0.00651076       0.00154322
H       10.05185645       7.46744181       4.25256252      -0.00002232       0.00149977       0.00450317
H        7.37445153      10.76037061       6.58664337      -0.00162657       0.00003798       0.00415608
H        7.00853898      11.23769409       4.93894568       0.00251839       0.00586501       0.00515658
H        4.68762930      10.18073217       5.26282498       0.00253803       0.00930616      -0.00856236
H        5.11899996       9.97047487       6.95044179      -0.00442283      -0.00556856      -0.00874826
H        6.47971369       6.26353144       4.35962608      -0.00148057       0.00974007      -0.00373918
H        9.56053237       7.48305608       1.76655587       0.00147923      -0.00375499       0.00344484
H        7.46346773       6.45129125       0.27411888       0.01087885      -0.00211010       0.00528325
H        4.94511215      12.63693747       5.46403339       0.00522699       0.00686784       0.01325418
H        3.77543386      12.05158494       6.63080454      -0.00140718      -0.00153260       0.00234192
H        5.40949741      12.46420871       7.16833661      -0.00339186      -0.00797599       0.01368618
H        5.40246951       4.71071112       1.37511817       0.00309850       0.00312662       0.00096835
H        4.69745263       5.55507331       2.76152876       0.00213839       0.00898052      -0.00445884
H        4.80860666       6.38425553       1.18716038       0.00595899       0.00168988      -0.00736877
Br      12.78869926      13.60328870      -0.59016290      -0.00047037       0.00508612      -0.01098545
O       11.83764965       3.45292853       3.36286449       0.00227135      -0.00504509       0.01156226
C       11.78205885       3.52104837       1.92448153       0.00455755      -0.00813177       0.01152955
C       11.27850232       4.86383636       1.44218020      -0.00069205      -0.01147133       0.00816560
H       12.75318028       3.26800599       1.49660238       0.00656170      -0.00366419       0.01363949
H       11.10781372       2.72383950       1.61330256       0.00923178      -0.01218009       0.01231480
H       11.19734736       4.86770050       0.35297342       0.00165327      -0.01359638       0.00813879
H       10.29374277       5.06349061       1.86426119      -0.00207396      -0.01481673       0.00627118
H       11.95151146       5.67568477       1.73152531      -0.00439939      -0.00845794       0.00809187
H       12.63794813       3.89513198       3.66225690      -0.00641477       0.01014699       0.01217185
O        3.03284205       4.42966091       4.03432042      -0.00019713       0.00070298      -0.00160074
C        3.72375682       4.36223860       5.29477154      -0.00924703      -0.00299026       0.00307479
C        4.72047633       3.22815301       5.33522819      -0.00313935       0.00249425       0.00437185
H        4.22255295       5.32772574       5.41888707      -0.01566474      -0.00110242       0.01143800
H        3.00120966       4.27304132       6.11118780      -0.01454893      -0.01157460      -0.00255999
H        5.27354507       3.23187220       6.27561837      -0.01113884      -0.00039965       0.00892848
H        4.21473936       2.26369760       5.25329847       0.00316451       0.00015748      -0.00578975
H        5.44003033       3.30912255       4.51806117       0.00307670       0.01195830       0.01099744
H        2.96096957       3.52834190       3.70224950      -0.00678420       0.00065696      -0.00010369
O        6.15784832       9.22931669       1.62262719      -0.00788522       0.00550767       0.02634159
C        7.23280307      10.13972151       1.38922021      -0.01686133       0.00992298       0.00004387
C        6.94151325      11.52889523       1.91667203       0.00556055       0.01783073      -0.00328173
H        8.09609350       9.71634244       1.90361435      -0.01217875       0.00663614      -0.01139224
H        7.48216263      10.18169873       0.32204041      -0.03675229       0.00002744      -0.00473595
H        7.86110656      12.11664010       1.96975067       0.01161022       0.01256316      -0.03285084
H        6.22189460      12.04589632       1.27654975      -0.00635242       0.02031244       0.01232639
H        6.50805362      11.47009283       2.91606155       0.03446083       0.03097987       0.00932236
H        5.33406692       9.70946989       1.48634824      -0.01788108      -0.02999917      -0.03528251
O        3.16044764       4.83290233      10.00756952       0.00902833       0.01011619       0.00924987
C        2.27010278       4.33334262      11.00452645       0.00466835       0.00422494       0.00216538
C        1.79923328       5.42294294      11.94923145      -0.00521436      -0.00004709       0.00188017
H        1.41953915       3.82501978      10.54541637       0.00948644       0.00264229      -0.00481792
H        2.82265172       3.57028326      11.55563868       0.00373262       0.00481236       0.00369614
H        1.18514157       4.98798297      12.73856029      -0.00513963      -0.00464389      -0.00084807
H        2.65351434       5.93664741      12.39368135      -0.00982818       0.00399408       0.00593985
H        1.20254074       6.17326481      11.42610418      -0.00789502      -0.00297461       0.00089362
H        2.67795843       5.24805040       9.27136736       0.01183905       0.01000073       0.00695288
O        2.74794718       0.01676358       3.79941228       0.00261348      -0.00693864       0.00273576
C        2.04851110       1.11312977       3.23155430       0.00022225      -0.00879806       0.00289327
C        2.87023378       1.81228501       2.15483266      -0.00332487      -0.00819744       0.00074849
H        1.07830605       0.80881687       2.82628566      -0.00017786      -0.01077490       0.00527197
H        1.83118232       1.80249506       4.05836942       0.00083044      -0.00852183       0.00262326
H        2.39826263       2.74647921       1.83512662      -0.00533618      -0.00899100       0.00177233
H        3.87809529       2.02382163       2.52651559      -0.00294574      -0.00666949      -0.00166456
H        2.95467764       1.19730899       1.26141245      -0.00475603      -0.00809763       0.00051403
H        2.48708966      -0.80782443       3.35960290       0.00961287      -0.00613996      -0.00315960
O        9.18590390       3.75540275       4.16727986      -0.00363412      -0.00386250      -0.00280023
C        8.69608760       2.58754690       3.51204120      -0.00449598      -0.00343329      -0.00269562
C        7.67685518       2.97102866       2.46041915      -0.00526139      -0.00248140      -0.00133407
H        9.52146355       2.02279606       3.06811845      -0.00530028      -0.00347003      -0.00402053
H        8.22420856       1.93127157       4.24933619      -0.00399360      -0.00385275      -0.00283542
H        7.27566118       2.08575064       1.96141877      -0.00570083      -0.00226742      -0.00107004
H        6.84423624       3.49601345       2.92892884      -0.00476389      -0.00263042      -0.00052628
H        8.11966399       3.63190064       1.71386383      -0.00563930      -0.00250928      -0.00142159
H       10.15095105       3.75789353       4.05039487      -0.00314807      -0.00690662       0.00189150
O       12.61845109       5.05234962       7.63562812       0.00076070       0.01124072      -0.00493884
C       11.98593623       3.78851893       7.36147450       0.00292449       0.01053834      -0.00642940
C       11.61737205       3.04714574       8.62587627      -0.00237568       0.01190442      -0.00750339
H       11.09788667       3.94101518       6.73710391       0.00567299       0.00994178      -0.01043025
H       12.71572374       3.22622786       6.77717965       0.00547045       0.01037481      -0.00290035
H       11.22358164       2.06102261       8.37884164      -0.00256927       0.01239038      -0.00805133
H       12.47116833       2.90466607       9.28550553      -0.00501607       0.01247483      -0.00399391
H       10.83806692       3.58055105       9.17482732      -0.00478472       0.01219980      -0.01142357
H       12.04374342       5.52992516       8.24237269       0.00327960       0.00647311       0.00105229
O        7.98760291       0.17844739      11.47855599      -0.00883806       0.00678813      -0.00562346
C        9.26781313       0.83522866      11.51474131      -0.00455973      -0.00162509      -0.00426537
C        9.13868564       2.34216511      11.47127878       0.00423819      -0.00110793       0.00103198
H        9.82731403       0.52019115      12.39750940      -0.00628063      -0.00757194      -0.00551981
H        9.81590712       0.45634561      10.65143765      -0.00782499      -0.00239517      -0.00599116
H       10.13410633       2.78570282      11.42166286       0.00684781      -0.00676989       0.00808501
H        8.54918129       2.67008168      10.61312913       0.01069462       0.00607659      -0.00043356
H        8.64754470       2.71112755      12.37270483       0.00177556      -0.00329468       0.00063573
H        7.48949642       0.45010374      12.25408380      -0.01415398       0.02334110      -0.01491594
O       10.83639935       9.78231109       7.94489716      -0.00974655       0.00214034       0.00284004
C       11.57788538       9.15702797       6.89300293      -0.00148556       0.00534374       0.00691143
C       12.07715630      10.15033755       5.86602245       0.00127877       0.00786120       0.01089117
H       12.40013913       8.57645764       7.31838281      -0.00201184       0.00813581       0.01152202
H       10.88468423       8.44333593       6.44699949       0.00362575       0.00342706       0.00228544
H       12.59177554       9.64417374       5.04676736       0.00427449       0.00988951       0.01168954
H       11.24843555      10.71790502       5.44124485       0.00186193       0.00777891       0.00985166
H       12.78301081      10.85477539       6.31172736      -0.00111049       0.00757030       0.01481436
H       11.41104181      10.40424019       8.40300280      -0.01393336       0.00195873       0.00794837
O        2.28412857       7.45043500       2.53831599       0.01567356       0.00210595       0.01503819
C        2.07942156       7.45451432       3.95542025       0.00193143       0.00578300       0.01284957
C        0.73005534       6.88603629       4.33146965      -0.00207877       0.00789547       0.00104469
H        2.88125709       6.89700219       4.44531480      -0.00355786       0.00596762       0.02184063
H        2.16358147       8.50084181       4.25063441       0.00002670       0.00623241       0.01152005
H        0.56983077       6.90306014       5.41160840      -0.01135542       0.00847948      -0.00047119
H       -0.07011721       7.45124004       3.85092219       0.00310092       0.00846319      -0.00670232
H        0.66366858       5.84366207       4.01745435       0.00002117       0.00777379       0.00086945
H        2.19704369       6.54772029       2.21554490       0.01652191       0.00114703       0.01784122
O        7.17601390      11.49596158       9.09437937       0.01302800      -0.00331587      -0.00454500
C        6.57595676      10.30072101       9.58336325       0.01352984      -0.00579229      -0.01069748
C        5.13806690      10.51166904      10.01048268       0.01493961      -0.00567816      -0.00650203
H        6.64526637       9.56716942       8.77849398       0.01076062      -0.00107166      -0.01506096
H        7.16341181       9.90425796      10.42289273       0.01566979      -0.01115537      -0.01475412
H        4.71182486       9.60241843      10.44116696       0.00965966      -0.00873889      -0.01824231
H        5.07987221      11.30279352      10.75963669       0.01898920      -0.01556703       0.00427333
H        4.51169078      10.81716142       9.17238348       0.01730378       0.00917295      -0.00268523
H        7.36353571      12.04523796       9.87313811       0.00440204      -0.00377546      -0.00211447
O        2.06834914      10.19128775       2.30832406      -0.00225674       0.00138474      -0.00104317
C        2.03293949      10.82898956       1.02722091      -0.00926188      -0.00865388      -0.00557899
C        3.41959141      11.14725943       0.51730347      -0.01287955      -0.01474106      -0.01884733
H        1.49060452      10.21058474       0.30603061      -0.01477733      -0.01378024       0.00305113
H        1.46023453      11.74812811       1.14239840      -0.00722340      -0.00699538      -0.00841328
H        3.35580461      11.79646938      -0.35778399      -0.01981017      -0.01973584      -0.02200235
H        3.98489047      11.65809630       1.29947867      -0.00340961      -0.01297694      -0.02703968
H        3.94602475      10.23986529       0.21281130      -0.01795622      -0.01770978      -0.01926861
H        2.24752707       9.24709002       2.18228635       0.00843878       0.00256896       0.00580567
O        2.64567806       6.38957389       7.84142555      -0.00316215      -0.00382113       0.00838920
C        3.38737486       7.58168315       7.56685965      -0.00239526      -0.00406498       0.01102636
C        2.50989849       8.80977746       7.52192601      -0.00028497      -0.00268281       0.01224355
H        4.11622330       7.65885279       8.37380958      -0.00286648      -0.00614543       0.01158229
H        3.93982022       7.47237778       6.62401047      -0.00140671      -0.00309771       0.01167220
H        3.09950175       9.71459918       7.38905239       0.00168590      -0.00347714       0.01642102
H        1.81763685       8.75269802       6.68146988       0.00160573       0.00102895       0.01051125
H        1.94426118       8.91333495       8.44836042      -0.00233507      -0.00403402       0.01104634
H        1.86149531       6.31827624       7.28487642      -0.00513707      -0.00305344       0.01107293
O        8.66888937       8.07259838       7.94783407       0.00200440      -0.01121908      -0.01349293
C        9.15660833       6.86272598       8.49958583      -0.00277539      -0.00757319      -0.00161569
C        8.28952304       5.72695777       8.01208744       0.00491783      -0.01125786      -0.00651641
H       10.20229344       6.69867344       8.19147276       0.00114790      -0.00714318       0.01190877
H        9.14819312       6.90689465       9.59889822      -0.01609506      -0.00193309      -0.00206399
H        8.57249369       4.77542099       8.46085797      -0.00174911      -0.00808254       0.00426914
H        7.24634578       5.92743676       8.25648378       0.00139050      -0.00984043      -0.02251285
H        8.36993587       5.60684444       6.93076290       0.02049541      -0.01866954      -0.00438184
H        9.28380946       8.78856719       8.17803709      -0.00259261      -0.00886442      -0.00880900
O       11.12024817      11.80954208       1.89171603      -0.01436934       0.02364874      -0.02949120
C       11.16282656      10.40655007       1.67903085      -0.00402060       0.02190322      -0.01474425
C       10.90673033      10.03497356       0.23022754      -0.00670338       0.00388420      -0.00958180
H       12.12025718       9.99040225       2.01717804       0.00026476       0.03282648      -0.01434276
H       10.38530832       9.98580228       2.32684745       0.00172925       0.02277289      -0.00751051
H       10.91834132       8.95017221       0.09195965       0.00791844       0.00264575       0.00173235
H        9.94311980      10.42230981      -0.10423056      -0.01385252      -0.01300611      -0.00803222
H       11.68083606      10.46556758      -0.40762573      -0.01573297       0.00728746      -0.01818095
H       11.67864104      12.24098944       1.21818989      -0.01039721       0.02038132      -0.02860735
O        8.47037755       2.29510843       8.07121667      -0.00033903      -0.01806502       0.01054782
C        8.16376242       1.38317407       7.01270505       0.00136471      -0.00433683      -0.00156021
C        9.40969193       0.74479296       6.43384483       0.00137687      -0.00340877      -0.00244194
H        7.47935607       0.61324044       7.37303221      -0.00348946      -0.00520700      -0.01330906
H        7.64647670       1.98318213       6.26285243       0.00788298       0.00634813       0.00265232
H        9.15148029       0.06214749       5.62191248       0.00156328       0.00350946      -0.00819696
H       10.09324248       1.50154022       6.04533495       0.00470549      -0.00281906       0.00489962
H        9.92441580       0.15485780       7.19684381      -0.00251351      -0.01051524      -0.00545384
H        8.89598236       1.78412162       8.76557090      -0.02040692      -0.03152312       0.01281997
O        4.39126514       7.09165972      10.92145679       0.01855785      -0.00552121       0.02594355
C        5.77825748       6.93363181      10.68744595       0.01419777      -0.00445905       0.00027508
C        6.21281456       5.47996927      10.77556602       0.01907966      -0.00317436      -0.00300569
H        6.06353174       7.34273041       9.70681670      -0.00446629      -0.00733860      -0.00622743
H        6.28427087       7.55424554      11.43461948       0.02721675      -0.00086164      -0.01175305
H        7.29875607       5.37919790      10.72793943       0.01849911       0.00013293      -0.01808948
H        5.85407803       5.03119541      11.70296821       0.03419236      -0.00209848       0.00321645
H        5.78602215       4.89950501       9.95783629       0.00911327      -0.00601644       0.00437313
H        3.93776381       6.30479961      10.54901398       0.01158179      -0.00039155       0.02289031
O        2.24515831      -0.04575283       9.52390052      -0.00249588      -0.00688368      -0.00402807
C        3.16007956       1.01209972       9.28824513      -0.00300249      -0.00448549       0.00514817
C        2.72322547       1.93460318       8.16348119       0.00008193       0.00077957       0.00861049
H        3.31487910       1.59644513      10.20311732      -0.00848291      -0.00934142       0.00900036
H        4.11688653       0.55445206       9.02857280      -0.00128675      -0.00165695       0.00705215
H        3.51383192       2.65190030       7.93742739      -0.00207704       0.00616671       0.01841082
H        2.50052329       1.35715878       7.26417428       0.00820257       0.00584802       0.00344521
H        1.83530866       2.49992304       8.44218138      -0.00450471      -0.00574657       0.00700422
H        1.59033898       0.26400829      10.17870734      -0.00660148      -0.00805695      -0.00760162
