193
Lattice="13.093090290040985 0.0 0.0 0.0 13.093090290040985 0.0 0.0 0.0 13.093090290040985" Properties=species:S:1:pos:R:3:forces:R:3 energy=-889575.75 stress="-0.00022562987578567117 0.0006383364379871637 -6.130808651505504e-05 0.0006383364379871637 -4.886892384092789e-06 0.000237161286349874 -6.130808651505504e-05 0.000237161286349874 -0.000746033270843327" pbc="T T T"
Ac      12.37085627      12.90241359      -0.17989317      -0.00497238       0.00812308      -0.00111322
P        6.43237410      11.82701356       3.71592781       0.00196411       0.00342244      -0.00497829
F        7.13182768      10.90380313       2.59302557      -0.00519419      -0.00483048      -0.00276679
F        7.44371664      11.20011730       4.83427990       0.00458890       0.00305343      -0.00448096
F        7.58700942      12.98639556       3.42379916       0.00765550      -0.00362617      -0.01295406
F        5.49279975      12.48733771       2.59510951       0.00282651       0.00257632      -0.00336677
F        5.35861720      10.67731083       4.01831699      -0.00054216       0.00956130       0.00492045
F        5.79265441      12.78361665       4.83347858       0.01169157       0.01102298      -0.00621414
P       12.59996490      10.71396590       9.25745560       0.00295082      -0.00790763      -0.00265996
F       13.81072404      10.99682354      12.93372611       0.00069723       0.01314029       0.00229985
F       12.64169622      12.00844588      10.20365721      -0.01838840      -0.01008150       0.00137325
F       13.85769569       9.99013168       9.85088942       0.01678175       0.01338908      -0.00582872
F       10.69571095      14.07934090      11.82660210      -0.01080072       0.00733939       0.00653782
F       13.94221640      14.29917615      12.19886765      -0.01027241       0.00878355      -0.01245753
F       11.50120542       9.92293770      10.05028885       0.01947933      -0.03129101      -0.00218068
P        6.17439438      12.66920959       8.66675119       0.00230589       0.00231129       0.00696979
F        5.87285899      11.23030283       8.18527862      -0.00111505      -0.00106993       0.01867601
F        5.40242753      12.57499655      10.04958851       0.01157078       0.01121257       0.01273873
F        7.39970286       8.92975210       9.29954780       0.01159608      -0.00316727      -0.00015787
F        7.03275148      13.10285191       7.40000968      -0.00605485      -0.00641866      -0.00206378
F        4.89352855      13.34993466       8.00912727      -0.00223151      -0.00286585       0.01040381
F        7.53274169      12.33869139       9.43093408       0.00766546       0.00466824      -0.00059485
O        7.38633211       7.73835223      11.48865051      -0.00080931       0.00013596       0.00161105
C        6.15967151       7.12468215      11.77070092      -0.00292277       0.00355812      -0.00103012
C        5.02184915       8.12212111      11.93403717       0.00044012       0.00770134      -0.00538495
H        5.88882659       6.39899440      10.98590881      -0.00349006       0.00445759      -0.00161344
H        6.28507195       6.55238734      12.69711118      -0.00701439       0.00334269      -0.00050932
H        4.07834652       7.61076731      12.14543868      -0.00317369       0.01146876      -0.01153946
H        5.23388431       8.80981818      12.75356828      -0.00146586       0.00615028      -0.00366582
H        4.89675017       8.70331656      11.01938795       0.01004077       0.00869732      -0.00582004
H        7.34256026       8.22587275      10.60101160       0.00265326      -0.00094876       0.00050495
O        6.17527695       8.01047412       7.43767459       0.00629759      -0.00129706       0.00096786
C        5.86198387       6.73071661       7.95408624       0.00351031      -0.00104272       0.00128046
C        7.11039740       5.94683769       8.32959427       0.00167435      -0.00368947       0.00070353
H        5.20455038       6.82575389       8.82895695       0.00432804       0.00133283       0.00124478
H        5.29370479       6.19454016       7.18423897       0.00208750       0.00028750       0.00152832
H        6.83695227       5.01067634       8.82332200      -0.00064381      -0.00412971      -0.00161073
H        7.69989252       5.71170111       7.44211498       0.00205475      -0.00244793       0.00067391
H        7.71574055       6.53493009       9.02033370       0.00207414      -0.00607005       0.00254208
H        6.71839484       8.49478602       8.20028625       0.00749967      -0.00204501       0.00031826
O        2.50880153       5.39266946       9.68280006       0.00887154      -0.01246840       0.04732932
C        2.64367523       3.98472742       9.53497224      -0.00249344      -0.00891334       0.02196821
C        4.10211113       3.61590956       9.60635853      -0.00113738      -0.01081420       0.00369652
H        2.08427285       3.46410293      10.32101456       0.00269666      -0.02421388       0.01412243
H        2.23189427       3.65310400       8.57073503      -0.00840214       0.00964168       0.01778328
H        4.22460331       2.53642916       9.53611926      -0.00311006      -0.01039809      -0.01627792
H        4.64972817       4.08252433       8.78547422      -0.00656754       0.00219093       0.00902787
H        4.53707463       3.96217233      10.54635567       0.00594461      -0.02938247       0.00708406
H        1.63305843       5.54413303      10.06699056      -0.00478385      -0.01118977       0.03948446
O        9.81906018      12.91359704       5.52645511      -0.01270610      -0.00135100       0.00480351
C       10.48799487      11.75506729       6.00064258       0.00309889      -0.00173628       0.00943023
C        9.77342756      11.09923839       7.16687638      -0.00091571      -0.00196537       0.00649685
H       10.62482023      11.02525174       5.19403158      -0.00398881      -0.00027567       0.00528568
H       11.48622430      12.09097889       6.29899221      -0.00115472      -0.00465998       0.00597087
H       10.29138554      10.18845013       7.47230521      -0.00227464      -0.00312476       0.00475889
H        9.70357017      11.77722112       8.01889246       0.00313098      -0.00221461       0.00885172
H        8.75572451      10.81850212       6.89375264      -0.00168172       0.00168209       0.00924931
H        8.95161326      12.63110764       5.20959876       0.01143439       0.00667617       0.01316534
O        6.44287360       7.16585298       4.83522878       0.00198901      -0.00326836       0.00327086
C        7.20086563       7.84669369       3.84895099      -0.00425558       0.00010973       0.00293797
C        6.53587611       7.71791157       2.49624360      -0.00655693      -0.00271322       0.00442761
H        7.31025820       8.90298183       4.10547419      -0.00794624       0.00148320       0.00203265
H        8.20650834       7.40707947       3.78667967      -0.00158429       0.00581077       0.00041805
H        7.18046105       8.12297905       1.71395203      -0.01171815       0.00273833       0.00322279
H        6.33300325       6.66880875       2.27335581       0.00033497      -0.00395249       0.00388612
H        5.59685388       8.26853828       2.47994293      -0.01055044      -0.00980000       0.00790387
H        6.47440704       7.64877465       5.68426896       0.00291265      -0.00386162       0.00492610
O        2.04405386       3.67922508       5.08839517      -0.01370591       0.00367236      -0.01698774
C        3.00162408       4.71061556       5.32986510      -0.00100267       0.00298348       0.00162621
C        3.85569378       5.02648083       4.12389138      -0.00282320      -0.00075951      -0.00146997
H        2.49855462       5.61833592       5.68975360      -0.00469980       0.00313550      -0.00508487
H        3.61798477       4.34148523       6.15170200      -0.00621828       0.00446273      -0.00092995
H        4.60560272       5.78318883       4.36516681      -0.00196606      -0.00072312      -0.00059706
H        4.36847657       4.13248708       3.76850791      -0.00187020      -0.00179794       0.00164516
H        3.24680808       5.40985984       3.30132397      -0.00009044      -0.00184921      -0.00260262
H        1.61284821       3.87186607       4.25085369       0.00330560      -0.00301518       0.01293751
O        1.62416638      12.66627241       3.27874275      -0.00553930       0.00366611       0.00860935
C        1.34709512      12.32987292       4.64607959      -0.00071698       0.00402995       0.01064903
C        2.60944951      12.18156935       5.46093220       0.00497568       0.00197444       0.00209856
H        0.73407183      13.14850880       5.03028778       0.00168639       0.00145116       0.01461531
H        0.73690988      11.41845160       4.68028546       0.00049320       0.00235957       0.01225178
H        2.36536657      11.97713500       6.50500620       0.01200747       0.00986444       0.00525425
H        3.22879082      11.35844832       5.10709595      -0.00048858      -0.00103611       0.00256705
H        3.19931230      13.09558548       5.41824500       0.00735490       0.00071102      -0.00774143
H        1.97145857      11.86847624       2.82237339      -0.00915844       0.00690497       0.00652529
O       10.43496810       8.50458816       5.17900643      -0.02114040       0.00909775       0.00209525
C       10.68519073       7.36795471       5.99636716       0.00804473      -0.00816298       0.00468952
C        9.97705998       6.12674594       5.50307440      -0.00368816       0.00149441      -0.00281084
H       11.76990832       7.23678111       5.96684132      -0.00933456       0.00169816       0.00453230
H       10.40525436       7.58218554       7.03700992      -0.00670156      -0.00392884       0.00233424
H       10.19988328       5.25628287       6.11900722       0.00144486      -0.00239238      -0.00580937
H        8.89431821       6.25326931       5.52484416       0.00119758      -0.00351381      -0.00521359
H       10.27276415       5.89376311       4.47969773       0.00252287       0.00360666      -0.00512591
H        9.49241260       8.70130731       5.21940331       0.01213074      -0.00056879       0.00516023
O       12.98509118       5.46106989      10.71895582      -0.01480499      -0.00370538       0.00291669
C       12.30981506       6.02564459       9.58212637      -0.01061923      -0.00490955       0.00031549
C       12.30695683       5.07668563       8.40809136      -0.00135942      -0.00273710      -0.00096145
H       11.29411485       6.31963105       9.86239547      -0.01332802      -0.00868671      -0.00435455
H       12.86472612       6.93583623       9.35118965      -0.01340142      -0.00199482       0.00443316
H       11.80485646       5.53118539       7.55708319      -0.00086436      -0.00498351      -0.00233082
H       13.32259328       4.81730609       8.10949528       0.00139663       0.00310306       0.00227920
H       11.76923250       4.15793394       8.65391093       0.00341651      -0.00641888      -0.00401144
H       12.64861628       4.56683675      10.85880670      -0.01644140      -0.00364903       0.00286899
O        8.41613054       3.50660691       5.26979778      -0.00400561      -0.00261706      -0.01225799
C        7.69853107       2.50402847       5.96590251      -0.00121593       0.00043994      -0.00624883
C        6.24724182       2.89448493       6.18927053      -0.00132304      -0.00072944      -0.00452724
H        7.74187899       1.54593736       5.44323055      -0.00172373      -0.00214231      -0.00200346
H        8.23235506       2.35518228       6.90723873       0.00151372       0.00543425      -0.00669301
H        5.67297670       2.07819812       6.63277303       0.00076832       0.00069360       0.00093073
H        6.17226686       3.79528826       6.80235574      -0.00145412       0.00205737      -0.00874866
H        5.78320155       3.10839901       5.22710953      -0.00386197      -0.00671909      -0.00444546
H        8.01238506       3.55929010       4.39049797      -0.00532796      -0.00905963      -0.01285979
O        3.69003417       9.06945735       6.73263662       0.00698620      -0.01860076      -0.01678473
C        2.76178151       8.32697135       7.48427957       0.00802708      -0.00355081       0.00135627
C        1.37688113       8.70989161       7.00870543       0.00736642      -0.00898606       0.00222528
H        2.90779986       7.24472365       7.35978497       0.00637314      -0.00588167       0.01895592
H        2.85799534       8.52798221       8.56149058       0.01486249       0.01510794      -0.00286305
H        0.60055935       8.17365931       7.55877279       0.00975586       0.00122087       0.01469255
H        1.21878447       9.78193091       7.13155849       0.00969860      -0.00646234      -0.01470586
H        1.26618939       8.48381734       5.94819260       0.00210844      -0.02602261       0.00609204
H        4.59663084       8.81433071       7.00165145       0.00519085      -0.01167517      -0.01218117
O        7.09796047       2.60127545       2.98265905      -0.00349307      -0.00833274      -0.00714779
C        6.12452522       2.52350048       1.94239610      -0.00319784       0.00510365      -0.00934225
C        6.66437777       1.79244646       0.73068070      -0.00673419       0.00744930      -0.01217115
H        5.23092942       2.01255677       2.31578064      -0.00724626       0.00911251      -0.01259354
H        5.85141608       3.54830347       1.69225678       0.00431482       0.00758517      -0.00412568
H        5.89645443       1.72607705      -0.04204209      -0.00480650       0.02049615      -0.01513790
H        7.53495756       2.31267651       0.32708896      -0.00016327       0.00126864      -0.00608261
H        6.95577976       0.77729246       1.00150046      -0.01742944       0.00275654      -0.01813389
H        7.28296040       1.68889116       3.24902292      -0.00595412      -0.00801585      -0.01479814
O       10.00403117      11.66419845      12.15766669       0.01189185      -0.00239781      -0.01676655
C        8.96296608      10.75139166      11.72669913       0.01151302      -0.00642084      -0.00541358
C        7.60903525      11.12809615      12.27746172       0.01456982      -0.00329258      -0.00106376
H        8.93460249      10.71735546      10.63713626       0.00546398      -0.01394354      -0.00537521
H        9.26160069       9.76546973      12.07614376       0.01571296      -0.00341374      -0.00047979
H        6.86265140      10.47768820      11.82258146       0.01180065      -0.00630932       0.00831586
H        7.55772196      11.02629332      13.36070224       0.02057884       0.00456700       0.00024274
H        7.34737847      12.15332046      12.01278489       0.01345608      -0.00515279      -0.00682003
H        9.80655685      12.56630963      11.83995631       0.00212116      -0.00172113      -0.01057113
O       12.12194266      10.91114216       1.76068361      -0.01056916       0.00659369      -0.00415185
C       11.46204481       9.72938519       2.24786784      -0.01028329       0.01026010       0.00230234
C        9.97649110       9.94557851       2.24841950      -0.00987267       0.01537055       0.00591240
H       11.73253125       8.88574634       1.60504879      -0.01556563       0.00720334       0.00468445
H       11.81540709       9.50612815       3.25705038      -0.00812577       0.01304521       0.00199658
H        9.47483883       9.05323958       2.62030274      -0.01151462       0.01816568       0.01162989
H        9.69658854      10.77700381       2.89486206      -0.00548655       0.01890349       0.00228807
H        9.61344564      10.16069699       1.24533098      -0.01221308       0.01068824       0.00598213
H       12.93776099      10.64032357       1.29777286      -0.00742172       0.00404796      -0.00064306
O        4.05847793       4.77341308       0.35064623      -0.00392476       0.00284791      -0.02529103
C        2.93003513       3.91312148       0.49460589       0.00058049      -0.00647208      -0.00907512
C        1.62834198       4.67812732       0.61294268      -0.00135678      -0.01035619      -0.00495367
H        2.87127406       3.20088706      -0.33475490      -0.00129826      -0.00755692      -0.00858641
H        3.11802592       3.33466244       1.40054394       0.00839137      -0.00219840      -0.01067400
H        0.79199561       3.98546798       0.72446730       0.00148179      -0.01345684      -0.00242859
H        1.64680770       5.35385178       1.47046271      -0.00066568      -0.01060078      -0.00432655
H        1.45685278       5.27689157      -0.28561976      -0.00620597      -0.01075460      -0.00359234
H        3.94133073       5.28854156      -0.45375184      -0.01051542      -0.00859661      -0.01761518
O       12.76900260       0.83475249       2.16683089       0.00055188      -0.00084046       0.00096373
C       11.64901689       0.94324149       3.07030523       0.00457782       0.00229353       0.00451899
C       10.48904934       1.55395759       2.32596941      -0.00037795      -0.00574169       0.00569141
H       11.38805831      -0.04263599       3.45832385       0.00849099       0.00443870       0.01222463
H       11.93167240       1.57136967       3.91884787       0.00698201       0.00880536      -0.00109768
H        9.64487532       1.68454723       3.00021936       0.00376800       0.00182517       0.00971192
H       10.75716207       2.52616047       1.90942544      -0.00308622      -0.01032272      -0.00631832
H       10.14289451       0.91146688       1.50728153      -0.00596842      -0.01500463       0.01549985
H       13.53003629       0.35391836       2.62363091       0.00134856       0.00018670       0.00378099
O       11.33828605       4.84112384      13.15424507       0.00496572      -0.00069711       0.00731161
C       10.22249378       5.49579454      12.55267522       0.00050950      -0.00496221       0.01048944
C       10.30037378       7.00075661      12.66151917      -0.00435087      -0.00471020       0.01097411
H       10.12839663       5.19964767      11.49788207      -0.00060775      -0.00429526       0.01052117
H        9.33670225       5.11630968      13.06372199       0.00327080      -0.00894350       0.01221350
H        9.42539736       7.45089928      12.18870714      -0.00664523      -0.00697321       0.01346776
H       10.32741659       7.30262870      13.70922250      -0.00167185      -0.00495029       0.01089899
H       11.20339773       7.37618157      12.17165837      -0.00670364      -0.00215018       0.00803035
H       12.12444977       5.29636773      12.83486254       0.00127931       0.00072688       0.00392040
O        2.32353074      10.39733476       1.94384416      -0.00395799       0.02276716       0.00336051
C        2.74842342       9.13118759       2.44690593      -0.00177370       0.02251947      -0.00878102
C        1.60307834       8.31617186       3.01878631       0.00218648       0.01388788      -0.01472020
H        3.26427052       8.56903192       1.66265978       0.00290343       0.02923778      -0.00926453
H        3.47621483       9.34962398       3.22776281      -0.00324434       0.02126126      -0.00400579
H        1.99152125       7.44292578       3.54795142       0.00596529       0.00835419      -0.02661806
H        1.03684973       8.91498166       3.73246083       0.00181432       0.00318171      -0.00668880
H        0.91763398       7.97038750       2.24305461       0.00184585       0.02116206      -0.01838870
H        1.93323882      10.34513801       1.05508881      -0.01135186       0.02581517      -0.00317042
O        6.50445890       1.51055877       9.27214643       0.00698498       0.00300848      -0.00803351
C        7.42911480       1.92639298      10.31446117       0.00639901       0.00224820      -0.00631747
C        8.76267756       2.34868401       9.76011685       0.00820804      -0.00383180      -0.00580080
H        6.93538230       2.73392324      10.85720299       0.00787738       0.00493607      -0.00922683
H        7.51368072       1.07045617      10.97627940       0.00206064       0.00340530      -0.00441664
H        9.44393031       2.55842780      10.58466902       0.00983153      -0.01025141      -0.00562549
H        9.20381915       1.54706814       9.16871841       0.00314043      -0.00511086      -0.00824834
H        8.66276217       3.24173587       9.13881159       0.01286113      -0.00188072      -0.00361557
H        6.62631505       2.04813741       8.47726495       0.01640306      -0.00459319      -0.01110160
