196
Lattice="14.21765643252229 0.0 0.0 0.0 14.21765643252229 0.0 0.0 0.0 14.21765643252229" Properties=species:S:1:pos:R:3:forces:R:3 energy=-1066031.5 stress="-0.0007235545199364424 5.858207714481978e-06 -2.1778910195280332e-05 5.858207714481978e-06 -0.0011589092900976539 0.00034314021468162537 -2.1778910195280332e-05 0.00034314021468162537 -0.00011794367310358211" pbc="T T T"
Ac       9.39067767      12.94178929      -1.97113292      -0.01684332       0.00687376      -0.00308698
Br       5.60503319      13.85188498       3.35695474       0.01010508       0.00010298       0.00199120
O        6.19347163      12.67886835       4.31108434       0.00805992      -0.00045347       0.00266659
O        6.76277903      14.36184414       2.33656717       0.01113796       0.00509953       0.00717258
O        4.35181962      13.30875039       2.47382464       0.01595426      -0.00023103      -0.00455022
O        5.10108669      15.07801715       4.30174650       0.00709653      -0.00084352       0.00034618
Br       6.58970738      12.48908247      13.97114925      -0.01359046       0.01736591       0.00624216
O        8.00524701      11.54892696      13.92892061      -0.02089971       0.00601757      -0.01213150
O        5.61661869      11.87886957      12.82250309      -0.02880532       0.02663487       0.01487327
O       11.04889803      13.55522852      13.15438907      -0.01460505       0.00429213      -0.00532794
O        7.21155392      13.91031275      13.30081754      -0.00929911       0.01382577       0.00425729
Br       7.36867117      12.47358098       8.43393145      -0.00344298      -0.00029264       0.00166976
O        8.02035801      12.41406971       9.96025486      -0.00785144      -0.01295774       0.00272888
O        6.53378621      13.84738917       8.30038685       0.00658214       0.00626355       0.00883949
O        8.59681206      12.43578456       7.37709485      -0.00131774      -0.00204100       0.00480425
O        6.42841294      11.17080732       8.25248525      -0.01239246       0.00793839      -0.00774326
C        6.62276801       5.36762556       8.81195063      -0.00118199       0.00165589       0.00340223
C        7.44790537       6.47139744       9.00048044       0.00198538      -0.00017300       0.00210118
C        7.14189547       4.19077850       8.28536407      -0.00412555       0.00118333       0.00049916
C        8.79203271       6.39894074       8.65520934       0.00003420      -0.00215468      -0.00128720
C        8.48718101       4.11567875       7.94624025      -0.00607077      -0.00071044      -0.00310206
C        9.30873795       5.21959328       8.13183591      -0.00290942      -0.00246382      -0.00423642
H        5.57406884       5.42602493       9.07522810       0.00011307       0.00312726       0.00619593
H        7.04066837       7.39289517       9.39923023       0.00423014       0.00007877       0.00436806
H        6.50416430       3.32779958       8.13675894      -0.00680435       0.00286306       0.00149064
H        9.43137158       7.26541248       8.77600662       0.00238927      -0.00360781      -0.00219034
H        8.89017310       3.20021303       7.53486782      -0.00807334      -0.00061560      -0.00567777
H       10.35414349       5.15898683       7.85897024      -0.00431630      -0.00399344      -0.00729679
C        2.14421728       4.42716797      10.76479985      -0.00383960       0.00676103      -0.00093858
C        2.36348924       5.67875606      11.32814493      -0.00128651       0.00478028       0.00429391
C        3.18062307       3.50091004      10.70445152      -0.00472616       0.00537159      -0.00213290
C        3.61743280       6.00551621      11.83195959      -0.00245437      -0.00002229       0.00653049
C        4.43383636       3.83042488      11.20338521      -0.00597315       0.00053632       0.00033612
C        4.65155635       5.08138739      11.76877135      -0.00324908      -0.00147442       0.00526334
H        1.17185545       4.17259298      10.35937505      -0.00310569       0.01042555      -0.00289341
H        1.56821013       6.41127278      11.36206375      -0.00057539       0.00572436       0.00567501
H        3.01472821       2.52481587      10.26522127      -0.00669913       0.00701337      -0.00600523
H        3.78852173       6.98568290      12.25823274      -0.00054766      -0.00177789       0.01058605
H        5.24554017       3.11986083      11.13726357      -0.00690865      -0.00085524      -0.00046971
H        5.63175220       5.33832447      12.14783885      -0.00401181      -0.00500834       0.00753377
C        2.11640840       4.45939696       5.83448677      -0.00078624       0.00059377      -0.00265837
C        2.22958288       3.54765113       6.87795100       0.00186038       0.00017074      -0.00063141
C        1.15698645       4.27634863       4.84552490      -0.00050452      -0.00195388       0.00000410
C        1.38338037       2.44653349       6.93122066       0.00296274       0.00002448      -0.00117198
C        0.30857089       3.17539128       4.90236160       0.00058678      -0.00210370      -0.00058647
C        0.42328096       2.26067714       5.94307878       0.00326073      -0.00265074       0.00136445
H        2.77865177       5.31417334       5.77930271      -0.00165892       0.00091419      -0.00250779
H        2.98113239       3.68991351       7.64488231       0.00180781       0.00218813      -0.00222017
H        1.08291783       4.98872423       4.03325294      -0.00256639      -0.00174874      -0.00116590
H        1.48430986       1.71991908       7.72738602       0.00480263      -0.00002295       0.00002269
H       -0.43421348       3.02199583       4.12876153       0.00050418      -0.00400014       0.00112708
H       -0.21828182       1.38932528       5.97513986       0.00420356      -0.00291167       0.00115741
C       12.51590310      11.61543523      11.30854268      -0.00264376       0.00445755       0.00443323
C       11.56829019      10.62739904      11.57113275      -0.00277580       0.00157245       0.00584894
C       12.50764775      12.27418791      10.08226631      -0.00074421       0.00042757       0.00614285
C       10.60885081      10.31280454      10.60764782       0.00107989       0.00065592       0.00159038
C       11.55057950      11.95574580       9.12247391       0.00294128      -0.00037809       0.00194925
C       10.60318235      10.97161363       9.38152571       0.00251676      -0.00321435       0.00328781
H       13.22866061      11.89241802      12.07067018      -0.00545594       0.00548957       0.00728717
H       11.57469020      10.11793174      12.52760173      -0.00399794       0.00435738       0.00525314
H       13.23532000      13.05135426       9.88723617      -0.00108922       0.00236715       0.00530444
H        9.85940118       9.55621990      10.80788498       0.00127562      -0.00151898       0.00165267
H       11.52192819      12.48068150       8.17597958       0.00441342      -0.00316766       0.00243175
H        9.85868532      10.73778336       8.63530963       0.00488806      -0.00375114       0.00072412
C        7.17278589       6.46090136       5.21955664      -0.00024715       0.00185937       0.00154674
C        8.43712497       6.98562739       4.97923719       0.00045530       0.00047036       0.00054066
C        6.19188247       7.26470884       5.78960070       0.00006112      -0.00145862      -0.00142869
C        8.71660282       8.30900729       5.30488754      -0.00240809       0.00400334       0.00015659
C        6.47083946       8.58637131       6.11831132      -0.00290261       0.00217521      -0.00180376
C        7.73479191       9.11128345       5.87535568      -0.00218150       0.00070572      -0.00306154
H        6.96461151       5.42300683       4.98897400       0.00177751      -0.00018786       0.00206756
H        9.21156520       6.35408595       4.55977648       0.00071053       0.00237709       0.00245687
H        5.21201312       6.84972169       5.99544594      -0.00039430      -0.00055596      -0.00071805
H        9.70396711       8.71137701       5.12113715      -0.00198269       0.00326516      -0.00068425
H        5.71512214       9.21374258       6.57402206      -0.00312437       0.00033577      -0.00405021
H        7.94640929      10.14184967       6.13185166      -0.00513085       0.00313178      -0.00378227
C        5.19670831       2.49429646       0.40407515       0.01356481       0.00057176      -0.00221406
C        5.99904342       3.57361091       0.75533952       0.00503594      -0.00708397      -0.00124024
C        4.12570935       2.13457226       1.21137906       0.00442794      -0.00669467      -0.00568295
C        5.73944797       4.28321678       1.92264184       0.00780495      -0.00078544      -0.00049467
C        3.87121002       2.83717702       2.38192663       0.00715432       0.00071709      -0.00508910
C        4.68099133       3.90652988       2.74074835      -0.00126088      -0.00753245      -0.00438175
H        5.42903843       1.90556437      -0.47365789       0.01094794      -0.00232662      -0.00318645
H        6.84198735       3.84408932       0.13157506       0.01109551      -0.00315323       0.00230455
H        3.52322100       1.27260609       0.96047631       0.01083425      -0.00301002      -0.00705862
H        6.36604799       5.12365197       2.20069121       0.00400992      -0.00515056       0.00139386
H        3.06605374       2.53149101       3.03617180       0.00107571      -0.00381756      -0.00806578
H        4.48870294       4.43709718       3.66419764       0.00005754      -0.00317436      -0.00427066
C        3.17171466      11.61616772       6.46263377       0.00138655       0.00262795       0.00351860
C        3.34835649      12.92557800       6.03063897       0.00412664       0.00210744      -0.00146787
C        2.05003213      10.89650458       6.06497681       0.00181460       0.00381304       0.00465102
C        2.40098962      13.51839017       5.20450255       0.00537432      -0.00104657      -0.00455225
C        1.10419738      11.48897104       5.23427964       0.00300756       0.00063851       0.00150615
C        1.27752864      12.80141243       4.80924866       0.00570098       0.00012735      -0.00329708
H        3.91809213      11.16047249       7.10141516       0.00044528       0.00502203       0.00585079
H        4.23626771      13.47469607       6.31375752       0.00395006       0.00136973      -0.00219541
H        1.91520235       9.87566304       6.40202140      -0.00013460       0.00457321       0.00832026
H        2.56352432      14.52675868       4.85091514       0.00724698      -0.00178039      -0.00791460
H        0.24060349      10.92380161       4.90705760       0.00307234       0.00131103       0.00257817
H        0.54596741      13.25682430       4.15215673       0.00662868      -0.00214304      -0.00558720
C       12.38034595       9.46295074       6.35142278       0.00205864      -0.00427033       0.00156546
C       12.33038492       8.65372625       7.48054985       0.00238732      -0.00339323       0.00068529
C       12.36037222       8.89006723       5.08491334      -0.00017411      -0.00181246       0.00124975
C       12.25968294       7.27248539       7.34465344       0.00097215      -0.00488738      -0.00019163
C       12.28777084       7.50737263       4.95190047      -0.00182022      -0.00324306       0.00035758
C       12.23948072       6.69690927       6.07911816      -0.00093784      -0.00232646      -0.00074821
H       12.43496415      10.53842465       6.46242929       0.00231928      -0.00343983       0.00200682
H       12.34872124       9.10876137       8.46288171       0.00346135      -0.00502528       0.00099325
H       12.38966556       9.51527332       4.20039660      -0.00136123      -0.00204034       0.00186990
H       12.21688114       6.64316199       8.22579442       0.00141699      -0.00454872      -0.00084531
H       12.26587971       7.06307402       3.96512045      -0.00364018      -0.00124410      -0.00027429
H       12.18558034       5.62055205       5.97281585      -0.00199125      -0.00316225      -0.00125211
C       13.09673274       5.42883490      12.36412571      -0.00333160      -0.01217891       0.01353188
C       12.89607958       6.26912617      11.27382405      -0.00043058      -0.00348945      -0.00397810
C       12.19965313       5.44370734      13.42552036       0.00284826      -0.00077035      -0.00381669
C       11.80427380       7.12906222      11.25037246       0.00027620      -0.00942864       0.01227216
C       11.10797478       6.30360501      13.40064852       0.00281646      -0.00743866       0.01343742
C       10.91215242       7.14889636      12.31633317       0.00562195       0.00160149      -0.00437171
H       13.95067912       4.76389314      12.38798967      -0.00266427      -0.00950047       0.00240673
H       13.59516762       6.26346194      10.44551784      -0.00258400      -0.01101636       0.00438751
H       12.34503930       4.77388737      14.26280182       0.00074806      -0.00558761       0.00705160
H       11.65169048       7.79039217      10.40752671       0.00232411      -0.00425768       0.00176665
H       10.40283044       6.31213759      14.22149180       0.00552130       0.00058202       0.00478485
H       10.06003260       7.81638725      12.30383842       0.00583349      -0.00114097       0.00644271
C       10.15571195       3.06934377       4.52319229       0.00711256       0.00062045       0.00827560
C        8.85167554       3.21729306       4.06313622       0.01162160       0.00308250       0.00633369
C       10.46374379       2.04597144       5.41363273       0.01094931       0.00208070       0.00431379
C        7.85566049       2.35136424       4.49607181       0.00811994      -0.00203511       0.00457266
C        9.46702621       1.17468433       5.84414109       0.00811703      -0.00345284       0.00243799
C        8.16296169       1.33025092       5.38851907       0.01222727      -0.00122470       0.00043829
H       10.93255166       3.74451206       4.18325684       0.00867367       0.00407079       0.01029828
H        8.60849136       3.99623210       3.35008946       0.00888817       0.00300567       0.00907262
H       11.48015425       1.93158497       5.77088282       0.00880150       0.00073481       0.00605232
H        6.84389966       2.44349605       4.12594961       0.01083189      -0.00050351       0.00345265
H        9.69215141       0.36910005       6.53161959       0.01053409      -0.00319134      -0.00035745
H        7.38763605       0.65026474       5.71782236       0.01048127      -0.00457056      -0.00113592
C        3.92075820       8.18532760       8.73943086       0.00162449       0.00377866       0.00208093
C        2.71771175       7.57760653       8.39810378       0.00180423      -0.00019003       0.00014452
C        3.92208406       9.39012675       9.43497807      -0.00188677       0.00137062       0.00064714
C        1.51283395       8.17438898       8.75097249       0.00116797      -0.00115050       0.00162591
C        2.71515237       9.98588006       9.78554418      -0.00231993       0.00133809       0.00111327
C        1.51068660       9.37925409       9.44567240      -0.00208139      -0.00348060       0.00012527
H        4.85880654       7.72504558       8.45691594       0.00213452       0.00331643       0.00311635
H        2.71309081       6.63572016       7.86252062       0.00413771       0.00082628       0.00149116
H        4.85646197       9.87991588       9.67700462      -0.00237447       0.00455074       0.00138410
H        0.57742027       7.71072247       8.46523227       0.00161387      -0.00547089       0.00296203
H        2.71922487      10.93651266      10.30288105      -0.00497280       0.00014050       0.00014380
H        0.57181892       9.85418967       9.70579723      -0.00251122      -0.00396848       0.00058563
C       11.04798872      11.37470077       1.57296850      -0.01120020       0.00478846      -0.01193716
C       10.20443565      10.36799159       2.02983403      -0.01000974       0.01240559      -0.00989921
C       12.29584046      11.05783842       1.04705571      -0.00632229       0.00879884      -0.00758677
C       10.60341971       9.03808061       1.94105972      -0.00945215       0.00919441      -0.00037078
C       12.69953670       9.72991736       0.96887288      -0.00693424       0.00602612       0.00188032
C       11.84789780       8.72065705       1.40864048      -0.00410643       0.01169960       0.00284222
H       10.73597237      12.40932840       1.59282819      -0.00278825       0.00845969      -0.02045106
H        9.23068238      10.61944736       2.42988947      -0.01339585       0.01432832      -0.01324178
H       12.92542514      11.85462842       0.67395392      -0.01059811       0.00826873      -0.00666255
H        9.94384913       8.25198707       2.29135690      -0.00663427       0.01137513       0.00101943
H       13.66930959       9.47619143       0.55713209      -0.00391316       0.00821117       0.00543076
H       12.15350128       7.68534473       1.32151243      -0.00405024       0.00965436       0.00974844
C        1.67039703       6.98382729       1.68010719      -0.01244032       0.00509694       0.01784123
C        3.02241534       6.73585419       1.88496527      -0.00210445      -0.01066496      -0.01123753
C        0.90819711       7.55533079       2.69352291       0.00341456      -0.00636554      -0.01510551
C        3.61086887       7.07039428       3.09795501      -0.00925009       0.00548552       0.01730243
C        1.49592002       7.88192403       3.90944130      -0.00337236       0.00907414       0.01315048
C        2.84961282       7.64614666       4.10731817       0.00693361      -0.00697263      -0.01627985
H        1.21313772       6.73693823       0.72879458      -0.00768227      -0.00501281       0.00067891
H        3.61971494       6.28763106       1.10174983      -0.00995164      -0.00603116       0.00588597
H       -0.14190898       7.75756489       2.53620382      -0.00309180       0.00417051       0.00365940
H        4.66997985       6.90992858       3.24900742      -0.00232263      -0.00507141      -0.00203966
H        0.89915771       8.32569467       4.69583292       0.00426830       0.00443234      -0.00375332
H        3.31582391       7.93562996       5.04142190       0.00211386       0.00379430       0.00118960
C        8.75851219       1.31750630      10.61990155      -0.00598400      -0.00055547      -0.01303381
C       10.09698053       1.58090793      10.33448652      -0.00547688      -0.00180283      -0.01615892
C        7.99351472       2.24678871      11.31839716       0.00048508      -0.00066479      -0.00422883
C       10.65120060       2.79956564      10.70633163      -0.00072651      -0.00770836      -0.01143458
C        8.54381033       3.47187892      11.66402062       0.00546865      -0.00686827       0.00115418
C        9.86632979       3.75254856      11.33970754       0.00578721      -0.00772917      -0.00137753
H        8.27759820       0.41811003      10.24960807      -0.01020002       0.00450650      -0.01662396
H       10.69846593       0.84523776       9.81121676      -0.01068684      -0.00115522      -0.02338032
H        6.97259533       1.99973880      11.57461769      -0.00004269       0.00102084      -0.00263656
H       11.68795048       3.01936711      10.48504087      -0.00067244      -0.00888957      -0.01385516
H        7.94271707       4.22009402      12.16617019       0.01052232      -0.00730880       0.00864406
H       10.28287556       4.71972462      11.57607971       0.01007084      -0.01226668       0.00353161
C        6.20886379       9.41851665       2.47530336       0.00211430      -0.00435883      -0.00268975
C        6.10256269       9.09554523       1.12603919      -0.00131817      -0.00590278      -0.00546154
C        5.16589678      10.06995468       3.11881177       0.00154779      -0.00123970      -0.00535455
C        4.94622088       9.41888012       0.42557853       0.00114419      -0.00567849      -0.00120100
C        4.01139877      10.39563565       2.41798428       0.00366521      -0.00175466      -0.00101647
C        3.90092644      10.06653045       1.07485684      -0.00015375      -0.00396901      -0.00370325
H        7.10842388       9.17561174       3.02813875       0.00045189      -0.00418180      -0.00416382
H        6.93346154       8.62743408       0.61325043      -0.00054233      -0.00770082      -0.00395618
H        5.26209443      10.35431649       4.15628479       0.00454533       0.00139472      -0.00432426
H        4.87720513       9.20792951      -0.63320800      -0.00268856      -0.00619458      -0.00279178
H        3.21275366      10.92382721       2.92067682       0.00334243      -0.00004207      -0.00268462
H        3.00682787      10.33639669       0.52795255       0.00120912      -0.00511228      -0.00192443
