193
Lattice="13.441391918869398 0.0 0.0 0.0 13.441391918869398 0.0 0.0 0.0 13.441391918869398" Properties=species:S:1:pos:R:3:forces:R:3 energy=-942115.3125 stress="0.0003650680009741336 -0.0004707781336037442 -4.0131088098860346e-05 -0.0004707781336037442 -0.00014007449499331415 -0.0001726525224512443 -4.0131088098860346e-05 -0.0001726525224512443 -0.002375305164605379" pbc="T T T"
Ac      15.55424575      14.33389625       0.79620285      -0.01044922      -0.00075868      -0.01966472
S        5.39666755      12.18121351       5.36381175       0.00375986      -0.00065657       0.00654419
F        7.62049537      13.46659983       6.05268376       0.00488675       0.01058853      -0.02321558
F        7.91482838      12.03155237       4.46437474       0.00023532      -0.01679114       0.00042367
F        7.64270868      11.34526929       6.50316381       0.00700712       0.01835662       0.01321876
O        5.00382390      10.87364993       5.82137106       0.00816768      -0.00380194       0.00444162
O        5.27521706      12.36992234       3.90353788      -0.00255978       0.00283551       0.00727940
O        4.88897437      13.31262563       6.11162454       0.00493973      -0.00506580       0.01196861
C        7.25565439      12.25208172       5.61970809       0.00368714       0.00252618      -0.00086504
S        5.56445626      13.45301139      10.14856071      -0.00812453      -0.00129390      -0.00263858
F        6.14722835      11.29509099       8.78221827       0.00625661      -0.00512153       0.01047802
F        4.07291786      11.38758001       9.40522984      -0.00434035       0.00329419      -0.02428626
F        5.61870397      10.91487643      10.84358170      -0.02988069      -0.00049445       0.00206310
O        4.08645279      13.85667775      10.27160101      -0.00943142       0.00621644      -0.02778225
O        6.15971040      14.03115506       8.96923526       0.01477998      -0.00477481       0.00817686
O        6.26145251      13.56646574      11.39437702      -0.03052339      -0.00226616       0.01029474
C        5.32585152      11.62807011       9.76047168      -0.00837562      -0.00070584      -0.00425652
S        3.09779291      11.42924976       0.16127696      -0.01483575      -0.00532036      -0.00805409
F        2.38603077       8.99825786       0.80489621      -0.02095197      -0.00702266      -0.02023356
F        2.44294028       9.38168204      -1.32824828      -0.02019135       0.00351039      -0.01836459
F        0.80056455      10.14126503      -0.13404247      -0.01770705       0.00244929      -0.01412521
O        2.53793556      12.43438474      -0.78823743      -0.00054780      -0.00526595      -0.01481171
O        4.45097128      11.05445212      -0.03656104      -0.01267116      -0.01287482       0.00545819
O        2.68830493      11.87803580       1.51103105      -0.02330108      -0.00308018      -0.01192704
C        2.11494830       9.88730908      -0.14587534      -0.01796891      -0.00110233      -0.01575531
O        4.16866584       2.76291585      10.94536926       0.00428493       0.00203983      -0.01821971
O        3.31514209       2.40657551      12.96127576      -0.00122625      -0.00754622      -0.02195409
C        5.22653946       3.85311972      12.76145915      -0.00442973      -0.00342804      -0.00968319
C        4.17856836       2.95568220      12.16949629      -0.00040454      -0.00316420      -0.01745546
H        5.65482988       3.40888696      13.66135779      -0.00795078      -0.00694179      -0.00986405
H        6.00550714       4.02289518      12.02341576      -0.00109683       0.00151565      -0.00505248
H        4.78174023       4.80726167      13.04866402      -0.00785415      -0.00587496      -0.00712699
H        4.01442141       1.44156194      10.54735136      -0.00515109       0.00613283      -0.02341418
O        6.57450366       8.49174368       7.81440536       0.00548041      -0.00291121      -0.01292694
O        4.45893973       8.57753540       8.55741249       0.00881767      -0.00369954      -0.00457251
C        4.89361092       7.82879041       6.31437391      -0.00029290      -0.00201231      -0.00658309
C        5.25541488       8.35238702       7.66636583       0.00515082      -0.00289884      -0.00735974
H        5.69991508       8.01149261       5.61086457      -0.00320838      -0.00093080      -0.00949173
H        4.72451834       6.75237616       6.40395798       0.00035448      -0.00206630      -0.00722225
H        3.97236871       8.28779027       5.96175331      -0.00178079      -0.00186663      -0.00221878
H        6.77808439       8.77388896       8.72670014       0.00850517      -0.00260727      -0.01323003
O        6.73129129       7.55173146      12.11746970       0.00510442       0.00770760      -0.00738452
O        7.70256987       8.55238060      10.36389856       0.00318499       0.00373071      -0.01092571
C        8.69068258       6.55278924      11.25673991       0.00112861       0.00272256      -0.00941756
C        7.68223003       7.65147104      11.16988199       0.00337175       0.00460190      -0.00906223
H        9.37356178       6.78882146      12.07610461      -0.00214422      -0.00354094      -0.00508523
H        8.22302657       5.59005696      11.46177248      -0.00213249       0.00292538      -0.01606949
H        9.25870615       6.50577275      10.33309126       0.00519599       0.00522030      -0.00715449
H        6.22839007       8.38246896      12.11282102       0.00512770       0.00765413      -0.00849263
O        9.22651292       9.66795252       2.33100635      -0.00817555       0.00450414       0.00683782
O        7.56652116       9.51896720       0.82655143      -0.00639659       0.00586808       0.00008285
C        8.81133953       7.53695081       1.38504198       0.00397848       0.00745451      -0.00483425
C        8.44884438       8.98088509       1.44049089      -0.00027293       0.00325698       0.00354224
H        9.87666684       7.39168292       1.20218053       0.00467038       0.01462087      -0.00604802
H        8.59553685       7.10239189       2.36124897       0.00696751       0.00144009      -0.00692376
H        8.21504292       7.04545229       0.62484052       0.00673276       0.00799876      -0.00712092
H        8.75544021      10.49180620       2.53416720      -0.01422319      -0.00060010       0.01329150
O       10.40234404      11.78810262       6.29087003       0.00810426       0.00224787       0.00248805
O       12.39104642      10.99464344       5.62418573       0.00378352       0.00466001      -0.01087034
C       12.20564292      13.30211175       6.27287264       0.00757715       0.00169319      -0.00083956
C       11.70371003      11.90534037       6.02844110       0.00624096       0.00187731      -0.00426298
H       11.49213083      14.04222020       5.90955940       0.00591984       0.00298473       0.00526860
H       12.31328858      13.44924511       7.34779191       0.01235198      -0.00294397      -0.00078094
H       13.17859668      13.43134877       5.80711788       0.00525199       0.00366308      -0.00493468
H       10.12249333      10.85208641       6.14221712       0.00648589       0.00238800       0.00070000
O       10.87969378       1.94066950       9.85034265       0.01236781      -0.02480292      -0.00053388
O       10.20144825       3.66195000       8.59130891       0.00613033      -0.01212478       0.01860031
C        9.29971631       1.49598776       8.14812351       0.00507647      -0.00774515       0.00025624
C       10.16012185       2.46416846       8.86404065       0.00681483      -0.01599950       0.00616954
H        9.82184434       0.56348440       7.94017192       0.00208096      -0.00794202      -0.00656883
H        8.46497129       1.22899173       8.80044157       0.00378081      -0.01008330      -0.00190474
H        8.92570064       1.94178767       7.23285510       0.00634288       0.00016145       0.00355254
H       11.31891769       2.67301977      10.36199355       0.01485757      -0.02948147       0.00086633
O        6.28168150       3.08111139       7.99158653       0.00667021      -0.00491607       0.00068235
O        7.11699014       3.57091665      10.01704867       0.00455463      -0.00254333       0.00289798
C        7.01158090       5.30561861       8.36951248      -0.00544097      -0.00171685       0.00213860
C        6.81511544       3.92272771       8.90186207       0.00141051      -0.00232309      -0.00062180
H        6.56302237       5.45081076       7.39197355      -0.00900163      -0.00281854       0.00364137
H        6.59322639       6.02646036       9.06900602      -0.00628436      -0.00398798       0.00392486
H        8.08460687       5.48791514       8.30560391      -0.00647691       0.00302189      -0.00094633
H        6.20620317       2.17247388       8.38038670       0.00987939      -0.00529820       0.00078246
O        3.56394922       4.93832355       8.74594694       0.00423849      -0.00400931       0.00517583
O        1.76025620       4.79712390      10.06960116       0.00448120      -0.00339472       0.00687839
C        3.55313408       6.28737361      10.67477678       0.00180951       0.00411552      -0.00105983
C        2.85045477       5.26979143       9.84139263       0.00524622      -0.00064215       0.00362188
H        4.57783968       5.97211611      10.86876243       0.00088596       0.00456106       0.00465212
H        3.61842598       7.22842092      10.12302483       0.00507273       0.00020453      -0.00731818
H        3.01475601       6.43422615      11.60715999      -0.00077339       0.01106375      -0.00368527
H        3.07360784       4.23446247       8.29737729       0.00680944      -0.00800526       0.00879676
O       11.55987059      11.94291894       9.24174670       0.01006591       0.00316185       0.00168049
O        9.34942426      11.60313987       9.39914057       0.00982010       0.00424713       0.00766049
C       10.79050538       9.71868223       8.97357314       0.00982811       0.00194716       0.00179277
C       10.45013923      11.15340775       9.20998777       0.00580376       0.01426733       0.00672613
H       11.44542084       9.60377231       8.10962728       0.00610498       0.00785301       0.00454673
H       11.31481655       9.33353757       9.85214166       0.00630581       0.00605736       0.00130628
H        9.87365849       9.15804218       8.83019966       0.00740850       0.00881615       0.00281407
H       11.25838039      12.82605871       9.50896209       0.00594631       0.01041311       0.00340347
O        4.86355181      10.03952617       2.80671574      -0.01395619       0.00319713       0.00602236
O        6.78731438       9.32536109       3.72592263      -0.00920951       0.00022432      -0.00618935
C        5.29146316       7.74130192       2.73133940      -0.01083168       0.00331581      -0.00826076
C        5.73845395       9.11064140       3.15220357      -0.01191133       0.00178540      -0.00315017
H        4.22635435       7.62372422       2.91954573      -0.00989655       0.00005707      -0.00525470
H        5.47367313       7.62909680       1.65960284      -0.01361547       0.00887853      -0.00925277
H        5.85821655       6.98941678       3.27505315      -0.00725066       0.00208753      -0.01389455
H        5.14586564      10.92812975       3.16836136      -0.01057561       0.00150048       0.00697786
O        3.22265398       5.47654802       4.30993487      -0.00631189      -0.00189146       0.00025994
O        1.74599493       4.09194617       3.33041744      -0.01010007       0.00586654      -0.00453643
C        3.62085916       4.88019423       2.07812246       0.00340155      -0.01112521       0.00479358
C        2.77351290       4.75785176       3.29817711      -0.00547957      -0.00186160      -0.00036969
H        4.63899284       5.17655169       2.30863428       0.00770211      -0.03099243       0.01248048
H        3.59622538       3.95905092       1.50277763      -0.00976507      -0.00677359      -0.00171424
H        3.17668884       5.66430729       1.45698422       0.02243501       0.00158519       0.00710662
H        2.55121971       5.56900514       5.01848544      -0.00873131       0.00162786      -0.00253564
O        2.25642768      11.60521448       4.32629162      -0.00076738      -0.01350245       0.00197023
O        2.01943239       9.39886379       4.63131712       0.01071491      -0.01450396       0.01525879
C        1.93437651      10.83938731       6.55338038       0.00362798      -0.00217365       0.00709462
C        2.06555991      10.51186110       5.10353311       0.00566916      -0.00744605       0.00968599
H        2.00313365      11.90902967       6.73125886       0.00462620      -0.00146258       0.00209905
H        0.98006727      10.45380279       6.90739231       0.00205703       0.00119373       0.00686855
H        2.74675652      10.34416344       7.08608176       0.00059725      -0.00134212       0.01242912
H        2.50585482      11.29183122       3.44030622      -0.00142348      -0.01728496       0.00327136
O        9.81881086       7.79982804       4.35070422      -0.00372241       0.00254321       0.00142461
O        9.69524149       9.16949326       6.11710291       0.00070405       0.00533879      -0.00058055
C       10.07403206       6.81847878       6.46568219      -0.00790402       0.00473702       0.00215006
C        9.85184526       8.05826746       5.66377747      -0.00327501       0.00463724       0.00032885
H        9.21150769       6.15917608       6.36307363      -0.00981134       0.00754723       0.00113614
H       10.93458341       6.27745036       6.07709458      -0.00879848       0.00196421       0.00432038
H       10.23486173       7.06615381       7.50984331      -0.00937691       0.00544235       0.00224480
H        9.58203171       8.61643841       3.86528505      -0.00148879       0.00262496      -0.00081121
O       11.63631313       5.39653985       9.71542250       0.00527164      -0.00982136       0.01464914
O       11.93452227       3.91970619      11.35731593       0.02170068      -0.01904961       0.00145790
C       12.65769850       6.20385809      11.66085500       0.00942352      -0.01819813       0.01772174
C       12.04933059       5.07406250      10.90366430       0.01249919      -0.01480749       0.01014273
H       13.53504067       6.54142062      11.10784340       0.01557496      -0.02043633       0.02603985
H       11.95077801       7.03444395      11.70250699       0.01182747      -0.01640403       0.01609018
H       12.93483299       5.90912470      12.66658149       0.00157347      -0.02263114       0.01868847
H       11.10880775       4.63004541       9.27086961       0.00651091      -0.01161921       0.01570887
O        6.47842250       3.80833301       5.34212367       0.01610544       0.00244553       0.00093114
O        8.70375079       3.52280891       5.47917822       0.01512372      -0.00819764      -0.00478947
C        7.77137819       4.38263501       3.44757197       0.01375863      -0.00082266      -0.00130516
C        7.72743355       3.86005978       4.85333808       0.01511371      -0.00251117      -0.00199622
H        7.96452820       3.54740712       2.77353496       0.00814265      -0.00094166      -0.00271744
H        6.83697467       4.85799879       3.15947176       0.01500884       0.00361206       0.00194725
H        8.59869180       5.08309787       3.35516841       0.01623768      -0.00409319      -0.00294627
H        6.49433547       3.43445366       6.25457065       0.01602857      -0.00062104      -0.00026730
O        1.19547705       6.68047031       5.68147194      -0.01276690      -0.01109405       0.00904727
O       -0.53065271       8.01253558       6.17444901      -0.00044096       0.00155467       0.01389396
C        1.03436248       7.46028385       7.91509801       0.00230780      -0.00552604       0.00791633
C        0.47064458       7.44881408       6.53532912      -0.00447083      -0.00387961       0.00969651
H        0.93661417       6.46230896       8.34753029       0.00329684      -0.00545827       0.00781491
H        2.09311679       7.72643716       7.90267615       0.00244981      -0.00674481       0.00271352
H        0.47680652       8.16642515       8.52365969       0.00615489      -0.00470233       0.01036802
H        0.82509880       6.83344054       4.78811979      -0.01591158      -0.00986132       0.00982791
O        6.32836532       1.33616398       2.77402617      -0.02359557       0.00541931      -0.01063013
O        4.40351928       0.85421272       1.77421474      -0.04146982       0.01418673       0.02332810
C        4.34604731       1.94029119       3.89913416      -0.00313404       0.00893718       0.02644220
C        5.01357675       1.32138729       2.74198092      -0.02276671       0.01050447       0.01388270
H        4.46195760       1.26371066       4.75798686       0.00589053       0.00181296       0.01916260
H        4.81532883       2.88271103       4.17479099       0.00815699       0.00301227       0.02432536
H        3.28509206       2.07580623       3.69015628      -0.00434196       0.01548545       0.04295488
H        6.66444334       0.77144537       2.05903763      -0.03569958       0.00664967      -0.01830280
O       11.51459102      11.69509550      12.13302351       0.00353152      -0.01292783       0.00712073
O       10.46369902       9.77223088      12.58692521      -0.00506172      -0.01059127       0.00842330
C        9.18075406      11.82173618      12.60453097       0.00429296      -0.00181961       0.00653058
C       10.38942658      10.97023617      12.47433829      -0.00179077      -0.00414866       0.00675288
H        9.42753158      12.80806653      12.98666768       0.00875664      -0.00528006       0.01303171
H        8.76777108      11.93913009      11.59862599       0.00840705       0.00710265       0.00515822
H        8.43846279      11.32007485      13.21812859      -0.00070834      -0.00007160       0.00152779
H       12.18990659      11.04263237      11.89273330       0.00313553      -0.01508766       0.01708350
O       13.79659134       6.46411603       3.06621025      -0.00692743       0.00539577       0.01195551
O       12.15416656       6.21897791       1.57226636       0.00050533       0.01723939       0.00121737
C       12.63679702       8.41937546       2.45399748       0.00280764       0.01179945       0.01350239
C       12.79406935       6.94936404       2.28804841      -0.00071672       0.01256573       0.00902939
H       12.27569616       8.62015070       3.46580735       0.00515475       0.01104166       0.01440045
H       13.60884879       8.90575896       2.37178505       0.00405809       0.00920238       0.01272366
H       11.93589365       8.79942242       1.71597555       0.00306304       0.01475157       0.01490906
H       13.86159402       5.49884366       2.95097798      -0.00685334       0.00606519       0.00674437
O       11.61474667       3.40225530       0.46137875       0.01868284       0.03412026      -0.01137316
O       13.49894812       2.30763206       0.94477479       0.00755331       0.01541982      -0.01127567
C       12.03620748       2.95120182       2.72958508      -0.00449567      -0.00056904      -0.01604319
C       12.43877734       2.86692471       1.29743197       0.00773807       0.01763953      -0.01283336
H       11.20587356       3.63580230       2.86846308      -0.00659418      -0.00337009      -0.01547964
H       11.73914969       1.95922358       3.07716204      -0.00866031      -0.00591102      -0.03436311
H       12.89308606       3.26180598       3.32746997      -0.00893486      -0.00979979      -0.00547360
H       11.92752246       3.47648049      -0.49329227       0.01778424       0.02420941      -0.01469725
O       13.12456486      12.75682525       0.72778998      -0.00850743       0.01053537      -0.01303601
O       11.04851050      13.39660760       1.29405138      -0.00510670       0.01874449      -0.00149345
C       12.34558468      12.24318135       2.94301443       0.00051571       0.01115397      -0.00996625
C       12.07010022      12.86589238       1.62753995      -0.00363266       0.01367767      -0.00678977
H       12.28704659      11.15776496       2.84224211      -0.00450681       0.01144975      -0.01219110
H       13.34175746      12.44832646       3.33555975       0.00325716       0.00525005      -0.01203039
H       11.58260406      12.56222184       3.64197469       0.00468734       0.01199239      -0.00582311
H       12.68737789      12.78379208      -0.14801527      -0.01303321       0.00691473      -0.01033551
