192
Lattice="12.971055435997588 0.0 0.0 0.0 12.971055435997588 0.0 0.0 0.0 12.971055435997588" Properties=species:S:1:pos:R:3:forces:R:3 energy=-87169.6171875 stress="-0.0013070217100903392 -0.000945758045418188 0.00026038652868010104 -0.000945758045418188 -0.0030323765240609646 -7.087824269547127e-05 0.00026038652868010104 -7.087824269547127e-05 -0.0010595349594950676" pbc="T T T"
N       13.60823424      12.25508388       0.11328241       0.02250107      -0.00248644      -0.00957716
H       14.07641004      13.11047315      -0.16171783       0.02589608      -0.00156111      -0.00242748
H       13.12807561      11.74908829       1.65417798       0.00112636       0.00380424      -0.02111378
H       12.66849872      12.28321850      -0.27635361       0.02965930      -0.00449679      -0.02584012
H       14.07441205      11.47377727      -0.33095177       0.02847325      -0.00245699      -0.00258385
O       12.44927007      11.39148465       2.31932255      -0.00372881       0.00906852      -0.01883710
O       12.69279946       9.54208106       1.07738094      -0.02482843       0.01724243       0.01585579
C       10.63833760       9.88964884       2.27285018       0.00041944       0.00951630       0.01055980
C       12.03131321      10.22070292       1.83921282       0.01099628      -0.00795513      -0.02413568
H        9.97095968      10.41222065       1.58279895      -0.00994740       0.02421373       0.03062725
H       10.43315692      10.25849147       3.27543063       0.01818799      -0.00651629       0.01912712
H       10.45983122       8.82194981       2.21195001      -0.00687737       0.01083356      -0.00357044
O       10.54166412      11.89683630      11.87887633       0.01819021       0.01405413       0.00157225
C       10.49816021      11.91943524      10.44032119       0.00446457       0.00578132       0.00221577
C       11.93308824      11.80446552       9.97468096      -0.00088227      -0.00460457      -0.01021922
C        9.62984675      10.80165910       9.88888344      -0.00674936       0.00776446       0.01662809
H       10.09362933      12.88725096      10.11180912       0.00603463       0.00588530       0.00125095
H       11.98481999      11.83304160       8.88605161      -0.01285458      -0.01269929      -0.01057442
H       12.53146136      12.62472855      10.36855562       0.00695115      -0.00511321      -0.02149189
H       12.36011660      10.86186798      10.32272928      -0.00260078      -0.00436185      -0.00763118
H        9.59343518      10.85249577       8.79707429      -0.02065749       0.00543262       0.01736031
H        8.60463890      10.86489568      10.26836560      -0.00101282       0.01179713       0.03019976
H       10.03443724       9.83117511      10.18123376      -0.00679866       0.00690897       0.01247304
H        9.64855454      12.01669039      12.21869552       0.02416876       0.03526792       0.00798661
O       13.15796100       7.57870321       7.65039988       0.00369978       0.00963497       0.00014898
C       12.02429046       8.43902867       7.81996046       0.00189584       0.00678538       0.00047159
C       11.83347885       9.34005148       6.61193798       0.00282567       0.01092726       0.00349706
C       10.78088399       7.62459521       8.12977179       0.00281537       0.00349122      -0.00555746
H       12.28479033       9.04694680       8.68989106      -0.00149298       0.00381950       0.00323451
H       10.99943257      10.02855492       6.76449266       0.00002973       0.00737702       0.00326873
H       12.73353225       9.92463085       6.42176883       0.00142628       0.01473992       0.00880223
H       11.63130189       8.74214260       5.71911060       0.00779422       0.01367006       0.00066897
H        9.91107886       8.27168439       8.25791599       0.00213899       0.00168917      -0.00201260
H       10.91735024       7.02337807       9.02778623       0.00300124      -0.00204513      -0.00941879
H       10.56466551       6.93632926       7.30837695       0.00421637       0.00886732      -0.01022772
H       12.96298407       6.99881022       6.90602760       0.00705750       0.01222552      -0.00256298
O        7.51824510      12.05311293       1.68688976      -0.00259356      -0.00201523      -0.00509566
C        6.99345852      10.90581538       1.01167895      -0.00980893       0.00280452      -0.00767286
C        7.06960577       9.66130311       1.87650174      -0.01581096       0.00066477      -0.01059806
C        5.57024040      11.14920742       0.53892546      -0.00910777       0.01115544      -0.00501920
H        7.65184522      10.78185534       0.14376416      -0.01052237       0.00210296      -0.00792766
H        6.81836412       8.78043520       1.28399807      -0.02353356       0.00343308      -0.01111027
H        8.06525511       9.52619855       2.29414136      -0.01525009      -0.00627961      -0.01451080
H        6.34931016       9.72772496       2.69547355      -0.01219979       0.00375299      -0.00774571
H        5.20672839      10.29495956      -0.03648036      -0.01308072       0.01461789      -0.00723034
H        5.50881262      12.04513186      -0.07819901      -0.00601454       0.01360497      -0.00160872
H        4.91214438      11.27119772       1.40372492      -0.00739533       0.00953813      -0.00371532
H        7.02305192      12.15682860       2.50774543      -0.00001436      -0.00203644      -0.00373310
O        3.74780488      10.40112367       4.08436353       0.00720486      -0.00822103      -0.00632912
C        3.15189546       9.75850930       5.23064385       0.00132951      -0.00198841      -0.00599542
C        2.05018383       8.82092449       4.79199254      -0.00310403       0.00362337      -0.00590652
C        4.26055833       9.03819753       5.96294537      -0.00469059      -0.00681281      -0.00205958
H        2.73148022      10.53353281       5.88780722       0.00467485       0.00206053      -0.00878748
H        1.58580744       8.34407673       5.65493145      -0.00782905       0.00910229      -0.00575224
H        1.26653021       9.36876530       4.26360478       0.00148895       0.00623134      -0.00950385
H        2.45991274       8.04449564       4.14310168      -0.00688145      -0.00076738      -0.00263397
H        3.86042442       8.54279528       6.84831285      -0.00952493      -0.00060951      -0.00098798
H        5.03868708       9.73237623       6.27518147      -0.00039233      -0.01123706      -0.00352686
H        4.69583527       8.27712550       5.31335459      -0.00906462      -0.01214348       0.00150460
H        3.02258555      10.72631732       3.54197593       0.01002169      -0.00411222      -0.00747636
O        7.06109013       0.01492103       8.34285788       0.00889003      -0.00947133       0.01293311
C        6.36054481       1.11675765       8.95770190       0.00692503      -0.00743375       0.00649202
C        5.31856250       0.58032617       9.92297920       0.00354958      -0.00407323       0.00431952
C        7.33105373       2.06766088       9.62561889       0.00430620      -0.00495055       0.00660712
H        5.86609337       1.62022807       8.12300333       0.01010379      -0.01046535       0.00301337
H        4.81632191       1.40019292      10.44241773       0.00108995      -0.00260636      -0.00075023
H        4.57975400      -0.03548481       9.40915083       0.00575881      -0.00644861       0.00433585
H        5.79995016      -0.02982107      10.69201186       0.00089830      -0.00091199       0.00821290
H        6.79643669       2.89339439      10.09767887       0.00267687      -0.00309737       0.00115399
H        8.03433797       2.48328412       8.90466337       0.00684327      -0.00755627       0.00784913
H        7.88392382       1.55424764      10.41869423       0.00133531      -0.00184532       0.01043808
H        7.56043952      -0.43029379       9.03663319       0.00604422      -0.00775471       0.01593459
O       12.40106715       7.66066691       3.54918518       0.00291252       0.00138807       0.00076617
C       11.84423726       6.44505682       3.04278331       0.00772464      -0.00299507       0.00529242
C       11.95520671       6.37046100       1.53064901       0.00282684      -0.00418534       0.00524133
C       12.49722964       5.25739851       3.72221737       0.01812455       0.00286514       0.00525203
H       10.78543859       6.47270967       3.32613342       0.00853896      -0.00999384       0.00881127
H       11.37698537       5.52781378       1.15009009       0.00399645      -0.00587143       0.00777108
H       11.59516223       7.28117911       1.05491629      -0.00207806      -0.00572366       0.00608015
H       12.99989401       6.24149645       1.22973524       0.00200540      -0.00095479       0.00124181
H       12.00438635       4.33010568       3.43731881       0.01917969      -0.00017093       0.01346563
H       12.40837545       5.33873755       4.80599291       0.02650058       0.00834065       0.00538531
H       13.55889364       5.21583449       3.46446486       0.01622729       0.00576750      -0.00235756
H       13.12907924       7.91438411       2.97249421      -0.01749032       0.01800242      -0.01673380
O       12.28392672       3.18434011       0.15994640       0.00035045       0.00178069      -0.00655079
C       11.51053181       2.13268830       0.75994756       0.00489217      -0.00160812      -0.00709203
C       12.19327528       1.62270580       2.01622650       0.00594872       0.00232820      -0.00654489
C       10.08083359       2.58590551       1.01183795       0.00285667      -0.00755453      -0.00812885
H       11.49594117       1.34291158       0.00406256       0.00919101      -0.00192085      -0.00653747
H       11.66120172       0.76916456       2.43847084       0.00839315       0.00166199      -0.00530616
H       13.21205010       1.30342877       1.79901627       0.00672545       0.00459418      -0.00614846
H       12.23414352       2.40532255       2.77632615       0.00360652       0.00345045      -0.00766542
H        9.47727645       1.76602827       1.41180998       0.00587951      -0.00979084      -0.00836676
H        9.60680847       2.92893304       0.09254937       0.00222929      -0.00951172      -0.00855848
H       10.05600077       3.40695954       1.73460276      -0.00118770      -0.00763062      -0.00855386
H       12.45747282       3.83802736       0.84571317       0.00228561      -0.00052175      -0.00500274
O       10.28737304       3.01410610       4.33647681      -0.00492291       0.00209236      -0.01204175
C        9.79944489       2.51093823       5.58818754       0.00139481       0.00313178      -0.00930089
C        8.35247874       2.09233094       5.42360620       0.00170517      -0.00082336      -0.00055592
C       10.68687947       1.38564025       6.09187544       0.00517878       0.00516856      -0.01198207
H        9.84432937       3.36351565       6.26504289       0.00301381       0.00421149      -0.01082718
H        7.91848536       1.76025907       6.36719777       0.00863108       0.00083445       0.00295493
H        7.76435271       2.92415961       5.03706231      -0.00348642      -0.00426114       0.00043732
H        8.29597152       1.26247310       4.71568064      -0.00009101      -0.00344935       0.00291361
H       10.32942352       1.00385386       7.04984817       0.01074240       0.00653115      -0.00953896
H       11.71395059       1.73183550       6.20699784       0.00531065       0.00644562      -0.01847879
H       10.66954250       0.54321120       5.39795214       0.00193381       0.00415573      -0.01061621
H       10.21665344       2.29220399       3.70329556      -0.00711022       0.00160597      -0.01103385
O        8.70586835      11.97772888       6.26631453       0.00042792      -0.00342751       0.00556242
C        7.96982750      11.30123966       5.24892500       0.00009197      -0.00031823       0.00395294
C        7.92682175       9.82073431       5.57156879       0.00117804      -0.00160694      -0.00240773
C        6.57878384      11.89000968       5.08134485      -0.00060534      -0.00144917       0.00750778
H        8.53370645      11.44264261       4.31769418      -0.00084910       0.00382894       0.00413823
H        7.39051745       9.25793049       4.80613549       0.00280789       0.00136336      -0.00566333
H        8.93883055       9.42300447       5.65388557       0.00128098      -0.00110330      -0.00257476
H        7.42234218       9.66700965       6.52704314      -0.00028171      -0.00625335      -0.00398596
H        5.97778626      11.31751432       4.37324991       0.00078555       0.00219782       0.00350304
H        6.62805852      12.92966123       4.75424338      -0.00239624       0.00053956       0.01443190
H        6.04342520      11.87394047       6.03364410      -0.00100809      -0.00900666       0.00705247
H        8.07608078      12.41227266       6.86062235       0.00102592      -0.00941633       0.01019049
O        2.18053656       2.61413564       9.61432707      -0.00386882      -0.00489068       0.00398144
C        2.39858462       3.87298070      10.26826260      -0.00491720      -0.00410819       0.00266095
C        2.71728683       3.67769162      11.73725245      -0.00316870      -0.00253336       0.00235897
C        3.46707421       4.66726008       9.54276156      -0.00694728      -0.00291005       0.00114110
H        1.44249996       4.39280150      10.17432409      -0.00579029      -0.00589308       0.00346588
H        2.81254679       4.64079520      12.24297141      -0.00477516      -0.00209758       0.00154690
H        1.93364058       3.10726954      12.23417834      -0.00168709      -0.00351101       0.00324940
H        3.66771782       3.15221058      11.86605793      -0.00202313      -0.00040486       0.00168836
H        3.60129530       5.65058417       9.99829611      -0.00961255      -0.00189345      -0.00050642
H        3.20773976       4.79972442       8.49246925      -0.00719310      -0.00521627       0.00108793
H        4.42429582       4.13973419       9.60009020      -0.00555498      -0.00006156       0.00220206
H        3.00316359       2.11813582       9.67010818      -0.00194901      -0.00193376      -0.00013867
O        3.22089191       2.64688591       1.78422166      -0.00476331       0.00298613       0.00941572
C        4.08629053       1.77486237       2.52514047      -0.00527757      -0.00357238       0.00205272
C        5.19173703       2.56965123       3.19790339      -0.00152171      -0.01049766       0.00364718
C        3.29715448       0.93556237       3.51105442      -0.00473434      -0.00723049      -0.00091201
H        4.53563916       1.12704684       1.76700371      -0.00895520      -0.00023487      -0.00265867
H        5.91367803       1.91205978       3.68363281      -0.00137434      -0.01532403      -0.00351808
H        5.72391380       3.17306312       2.46210500      -0.00240663      -0.00701725       0.00602424
H        4.77859798       3.22476940       3.97245811       0.00283499      -0.01492570       0.00941250
H        3.94373135       0.23490460       4.04207367      -0.00495599      -0.01140974      -0.00649823
H        2.51831703       0.36907894       2.99741648      -0.00722790      -0.00275197      -0.00187938
H        2.81809079       1.57892638       4.25616549      -0.00112442      -0.01061748       0.00410967
H        2.56441946       2.99852074       2.39452416      -0.00347632      -0.00037022       0.01255825
O        4.27000805       6.19359417       3.66096905       0.00370060      -0.01913583       0.00237384
C        5.11770278       6.69877913       2.62106502      -0.00193036      -0.00904582       0.00202107
C        6.56594943       6.30956704       2.87955667       0.00040728      -0.00369990      -0.00451551
C        4.62552098       6.23783258       1.26044671      -0.00414798      -0.00419095       0.00120807
H        5.01120139       7.78337121       2.69624508      -0.00721148      -0.01020300       0.00782032
H        7.22350797       6.66370116       2.08288470      -0.00216172       0.00565846      -0.00236860
H        6.91988613       6.73072548       3.82068731      -0.00116510      -0.01009498      -0.00138986
H        6.66460602       5.22252771       2.93716651       0.00404213      -0.00356385      -0.01322521
H        5.24071532       6.65412982       0.45904748      -0.00829989       0.00254650       0.00165445
H        3.59541273       6.55660285       1.09875535      -0.00566214      -0.00764491       0.00505624
H        4.65725325       5.14678501       1.18351795      -0.00011282      -0.00350729      -0.00493899
H        4.26184715       5.23460959       3.57282204       0.00464936      -0.01821847      -0.00754516
O       10.51940514       4.48601342       9.57328052      -0.00758655       0.00289571       0.00372750
C       11.26389297       3.47583050       8.87079625      -0.00795907       0.00436759       0.00119998
C       12.27940955       4.11283202       7.93557872      -0.00525922       0.00637618       0.00598103
C       11.89365009       2.50731662       9.85002357      -0.01128867      -0.00025013      -0.00150120
H       10.50850869       2.95770850       8.27923835      -0.00767425       0.00823626      -0.00237110
H       12.90692762       3.35500890       7.46493336      -0.00588951       0.00720370       0.00419950
H       11.76928742       4.68083387       7.15630330      -0.00263931       0.01057275       0.00761154
H       12.93276490       4.79488618       8.48341470      -0.00520156       0.00298635       0.01001041
H       12.45599383       1.73900532       9.32051813      -0.01311982       0.00005744      -0.00367700
H       11.12827540       2.03821398      10.47070233      -0.01287688      -0.00040992      -0.00377833
H       12.59229535       3.01838013      10.51461346      -0.01063909      -0.00431077       0.00073251
H       11.08555387       4.80141259      10.28628523      -0.01007698      -0.00314551       0.00809339
O        7.33652854       4.36913618      12.32553693      -0.01173174       0.01050209       0.00469983
C        7.99324670       5.24364886      11.39880448      -0.00631502       0.00726289       0.00589438
C        7.00800076       6.22299109      10.78555403      -0.00067055       0.01090914       0.00294860
C        9.16827075       5.95245821      12.04767860      -0.00525939       0.00319830       0.00828898
H        8.37807853       4.57878822      10.62536629      -0.00733237       0.00545019       0.00713941
H        7.49749599       6.83644821      10.02592140       0.00369889       0.00765837       0.00336792
H        6.17195273       5.69541112      10.32707764      -0.00194503       0.01424204       0.00165499
H        6.61180139       6.89964774      11.54828328       0.00106811       0.01353147       0.00136028
H        9.66069946       6.61431821      11.33159420       0.00035628      -0.00100365       0.00855875
H        9.89673550       5.22907745      12.41189688      -0.01018663       0.00077149       0.01276585
H        8.83645479       6.56410592      12.89241707      -0.00527657       0.00687642       0.00545640
H        6.99327355       4.90918631      13.04510225      -0.01422931       0.01255329       0.00186104
O        8.20434554       4.62758938       7.42852882       0.00495347      -0.00376876       0.00545162
C        7.27122355       5.32869211       6.59669988       0.00528845      -0.00632805       0.00313132
C        5.84606430       4.90953323       6.90556278       0.00601906      -0.00885600       0.00238711
C        7.43932252       6.82600195       6.71160213       0.00240368      -0.00591207       0.00052971
H        7.51851740       5.02493231       5.57470546       0.00644796      -0.00732243       0.00375789
H        5.15350945       5.36684541       6.19440132       0.00580363      -0.01244090       0.00052552
H        5.74000971       3.82487114       6.85691159       0.00916886      -0.00910704       0.00427072
H        5.57044679       5.23938618       7.90733421       0.00411755      -0.00775056       0.00141427
H        6.69910401       7.33970595       6.09987960       0.00274087      -0.00871608      -0.00203717
H        8.43182199       7.14137184       6.39540443       0.00217041      -0.00453557       0.00148915
H        7.28260480       7.14916430       7.74491923      -0.00004049      -0.00405609      -0.00056705
H        8.43806568       5.17227027       8.18785353       0.01106395       0.00068934       0.00009752
