186
Lattice="13.435735769783182 0.0 0.0 0.0 13.435735769783182 0.0 0.0 0.0 13.435735769783182" Properties=species:S:1:pos:R:3:forces:R:3 energy=-274512.90625 stress="-0.0021263433154672384 -0.000242115136643406 4.367976544017438e-05 -0.000242115136643406 -0.0009664140525273979 -0.0003278806689195335 4.367976544017438e-05 -0.0003278806689195335 -0.0008840867667458951" pbc="T T T"
N       12.27398811      10.87864039       1.04006985      -0.00863314      -0.01951098      -0.00388885
H       13.17331895      10.57014836       1.40119630       0.00039470      -0.02790895      -0.00294513
H       11.64760067      11.08511375       1.81460364      -0.00066686      -0.00584593      -0.00410020
H       12.44651697      11.82464914       0.40141877      -0.00400294      -0.03312153      -0.01390141
H       11.87014495      10.15568347       0.44974818      -0.01277691      -0.02655804       0.00710899
I       12.86726258      13.44041635      -0.79730969      -0.00892495      -0.03791592      -0.02913475
O        4.57036547       9.90838213       8.06704600      -0.00595579      -0.00300802       0.00067747
C        3.91441907      11.14009252       8.29222745      -0.00620735      -0.00367481       0.00389153
C        3.69374608       8.89988679       7.59595990      -0.00706282      -0.00351858       0.00434305
C        4.93703949      12.13961727       8.76668102      -0.00560817      -0.00356537       0.00216827
C        4.50363206       7.64540657       7.37578881      -0.00755420      -0.00317243       0.00142939
H        3.44321391      11.48407763       7.36026059      -0.00938579      -0.00350592       0.00574371
H        3.11212080      11.01081641       9.03338982      -0.00363994      -0.00490388       0.00620449
H        2.89625520       8.72844020       8.33561509      -0.00381267      -0.00380759       0.00768626
H        3.21489667       9.22777921       6.66289292      -0.01105927      -0.00390674       0.00636631
H        4.47655180      13.11607510       8.92278867      -0.00615193      -0.00415999       0.00439791
H        5.38623417      11.81373712       9.70520317      -0.00324903      -0.00418323       0.00025775
H        5.73107345      12.24372820       8.02696089      -0.00774495      -0.00189494      -0.00007272
H        3.87509349       6.83330340       7.01111568      -0.00902836      -0.00382932       0.00563005
H        5.29242843       7.82995933       6.64447239      -0.01138428      -0.00380574      -0.00273301
H        4.97030468       7.32313250       8.30670371      -0.00272571      -0.00189230      -0.00065972
O        1.68695083       9.27378324       4.57542823      -0.00337224       0.00782123      -0.00169018
C        0.93684605      10.46755029       4.50820192      -0.00301197       0.00779843      -0.00000974
C        0.88492426       8.10847338       4.50687228      -0.00297275       0.00799832      -0.00496746
C        1.88140719      11.64203429       4.55249424      -0.00394061       0.00818825       0.00309632
C        1.79012886       6.90503783       4.55504793      -0.00311509       0.00798649      -0.00581373
H        0.35278986      10.47251425       3.57038347      -0.00107808       0.01011051      -0.00113419
H        0.21051345      10.50209798       5.33342794      -0.00440696       0.00585375      -0.00113362
H        0.16711768       8.10173292       5.33970983      -0.00397661       0.00616678      -0.00599089
H        0.29674906       8.11537378       3.57356787      -0.00193752       0.01024683      -0.00569862
H        1.33240242      12.57717806       4.43308599      -0.00475705       0.00737774       0.00117619
H        2.40175436      11.66952813       5.50927532      -0.00681691       0.00917624       0.00416207
H        2.63215776      11.56061384       3.76635608      -0.00231139       0.00873564       0.00462151
H        1.20687618       5.98654796       4.54429595      -0.00310622       0.00795840      -0.00710682
H        2.46358497       6.89156899       3.69779268      -0.00219861       0.00872628      -0.00495121
H        2.39281201       6.92077119       5.46194238      -0.00423101       0.00744270      -0.00509267
O        6.58901845       3.00291599      10.54797134       0.00223532       0.01065870      -0.00359145
C        6.39153363       2.66618174       9.18723974       0.00066119       0.00829220      -0.00252798
C        6.03037813       4.25879401      10.88517424       0.00295849       0.01145051      -0.00597137
C        7.14470327       1.39209540       8.89464832      -0.00139406       0.00699618      -0.00106863
C        6.25738075       4.50356502      12.35613333      -0.00106680       0.01233805      -0.00557423
H        5.31584295       2.54070434       8.98932650       0.00041783       0.00943822      -0.00129845
H        6.74497391       3.48607167       8.54292716       0.00104739       0.00669739      -0.00441924
H        6.50335905       5.04823456      10.28086513       0.00562534       0.01024017      -0.00529689
H        4.95884912       4.26747205      10.64129570       0.00370973       0.01235067      -0.00894824
H        6.94631886       1.06051869       7.87514768      -0.00144684       0.00604125      -0.00020289
H        8.21848907       1.54103838       9.00229367      -0.00113109       0.00578712      -0.00076268
H        6.83799010       0.60459443       9.58195910      -0.00246669       0.00831482       0.00019076
H        5.82529484       5.46139912      12.64936962       0.00012836       0.01337251      -0.00772206
H        5.79183194       3.72042621      12.95489199      -0.00454274       0.01377182      -0.00646787
H        7.32624870       4.51095337      12.57018832      -0.00194725       0.01022466      -0.00215749
O       11.09137652       9.07479125       8.19666956       0.00977361       0.00785676       0.00618737
C       12.34819310       8.44341627       8.34609021       0.01040323       0.00869215       0.00414987
C       11.23052279      10.39512461       7.69728232       0.00789136       0.00708842       0.00437051
C       12.14442567       7.04347635       8.86722402       0.01144491       0.00860080       0.00406963
C        9.87116074      11.01729335       7.49639823       0.00737184       0.00737546       0.00974129
H       12.86490892       8.42261733       7.37342974       0.00902009       0.00926462       0.00363895
H       12.97990359       9.02587077       9.03292385       0.01094842       0.00892532       0.00337321
H       11.83928365      10.98984985       8.39429867       0.01118723       0.00762805       0.00065428
H       11.77792222      10.36101290       6.74208351       0.00346394       0.00588368       0.00183064
H       13.10163853       6.52839557       8.95735351       0.01148689       0.00807106       0.00071639
H       11.67312950       7.06519520       9.84830180       0.01460423       0.00832253       0.00535543
H       11.50815523       6.46917056       8.19226791       0.00901467       0.00963829       0.00570273
H        9.98564278      12.01010565       7.05836588       0.00606440       0.00604437       0.00665696
H        9.26394979      10.39871084       6.83677554       0.00374180       0.00641501       0.01443620
H        9.34452806      11.12210722       8.44475064       0.01258907       0.01052268       0.01219474
O        4.58598039      10.42725664       2.70951718      -0.00135087       0.00512949       0.00021062
C        3.77633519       9.57959355       1.91459529       0.00054854       0.00760609      -0.00391072
C        5.21514300       9.71009508       3.76913987      -0.00606808       0.00346473       0.00171801
C        3.00796001      10.42042346       0.92145466       0.00310870       0.01056704      -0.00307080
C        6.11974130      10.64618081       4.52997745      -0.00470486       0.00089043       0.00262994
H        4.40721073       8.84756692       1.38855067       0.00183472       0.00921190      -0.00434670
H        3.08797798       9.02312006       2.56365405      -0.00105226       0.00577052      -0.00727162
H        4.44203954       9.29049028       4.42771436      -0.00905919       0.00686224       0.00023270
H        5.78810820       8.86783717       3.35925194      -0.00817576       0.00124195       0.00316459
H        2.37770663       9.78324603       0.29704966       0.00515856       0.01294018      -0.00712682
H        2.38155226      11.15212294       1.43713433       0.00090070       0.00810061      -0.00244328
H        3.68193318      10.96931030       0.26443953       0.00479032       0.01305561       0.00104013
H        6.63175485      10.10381677       5.32645763      -0.01045032       0.00094876       0.00613752
H        6.86892372      11.08032493       3.86550928      -0.00015369      -0.00456749       0.00445260
H        5.54624904      11.45976143       4.97725742      -0.00266039       0.00476654      -0.00223155
O       12.08517406       2.85372938       4.12409359       0.00348541      -0.01226742       0.00173905
C       12.73872853       4.08522602       4.33027045       0.00087368      -0.01003021      -0.00115603
C       12.85269021       1.93559546       3.37506256       0.00628248      -0.00915354       0.00056852
C       11.83095434       4.98079407       5.13579465       0.00362760      -0.01258901       0.00455943
C       12.02721828       0.68638563       3.18401345       0.01318976      -0.01355436      -0.00047339
H       13.69609028       3.91878118       4.85011852       0.00427181      -0.00776617      -0.00713441
H       12.97177026       4.54930074       3.35763093      -0.00570488      -0.00944601      -0.00229189
H       13.12777411       2.36635778       2.40113400       0.00330821      -0.00714922       0.00081736
H       13.78477271       1.70546104       3.91211572       0.00759587      -0.00466970      -0.00037071
H       12.30014992       5.95180551       5.30521049       0.00200476      -0.01112215       0.00055004
H       10.88821434       5.12570831       4.61143769      -0.00058642      -0.01583077       0.01157984
H       11.60726266       4.53073335       6.10333204       0.01248908      -0.01256676       0.00640398
H       12.62156796      -0.04841750       2.64037729       0.01685480      -0.00843884      -0.00361468
H       11.72324653       0.28026976       4.15104319       0.01798848      -0.01826696      -0.00113136
H       11.13508710       0.90610765       2.59610871       0.01046793      -0.01788562       0.00229685
O        9.09705132       3.16589600       4.15919718      -0.00569235       0.00489742       0.00655156
C        8.77415357       1.96240657       4.82307614      -0.00659350       0.00478609       0.00577664
C        8.71570591       3.18754971       2.79390431       0.00270128       0.00381556       0.00428987
C        9.55134163       1.90229555       6.11635841      -0.01257119       0.00747888       0.00923479
C        9.44666862       4.31932662       2.11571051       0.00637224       0.00407925       0.00893600
H        7.69021200       1.90810451       5.01336322      -0.00733763       0.00271713       0.00042892
H        9.03435645       1.10605671       4.18334559      -0.00175159       0.00515294       0.00751439
H        8.97049513       2.22759485       2.32363259       0.00678109       0.00384721       0.00681916
H        7.62674108       3.31007134       2.70619718       0.00316143       0.00250825      -0.00274496
H        9.31812784       0.98397792       6.65624438      -0.01132125       0.00677353       0.00808459
H       10.61899980       1.93669745       5.90403856      -0.01169550       0.01093414       0.01359240
H        9.30087921       2.74955462       6.75659349      -0.01836130       0.00629649       0.00828589
H        9.14714989       4.40591307       1.07071991       0.01536282       0.00272266       0.00646664
H        9.22484820       5.25484152       2.62874143       0.00136463       0.00457340       0.00582115
H       10.52272256       4.14207023       2.14715653       0.00624722       0.00488926       0.01855427
O        2.09823880       2.84633325      12.26468491       0.00357103      -0.00720736      -0.00317810
C        3.36160986       2.20618996      12.21715088       0.00558142      -0.00296646      -0.00428498
C        2.21067742       4.24609385      12.11923213      -0.00229013      -0.00695074      -0.00115252
C        3.17932528       0.70970789      12.24295163       0.00811115      -0.00328785      -0.01429933
C        0.83336854       4.86272468      12.15952838      -0.00436270      -0.01219200       0.00436695
H        3.89293459       2.50369302      11.30208012       0.00715461       0.00466475      -0.00089532
H        3.97284778       2.53743915      13.07092303       0.00288361      -0.00683711      -0.00110614
H        2.84585948       4.66088360      12.91903486      -0.00117645      -0.00558434      -0.00295410
H        2.70564317       4.48257560      11.16400213      -0.00616705      -0.00348847      -0.00230038
H        4.15865434       0.22711659      12.22419575       0.00878966      -0.00180349      -0.01270995
H        2.64598151       0.39694218      13.13949270       0.00466229      -0.00891626      -0.01869960
H        2.59702804       0.37376825      11.38599641       0.01298265       0.00162124      -0.01956882
H        0.90472929       5.94513648      12.03866710      -0.00895358      -0.01219298       0.00385629
H        0.21152228       4.46139868      11.35929650      -0.00582458      -0.01482244       0.00700496
H        0.34082256       4.64860814      13.10826250       0.00065214      -0.01371301       0.00647387
O        4.38346517       2.28545404       2.45513597       0.00333342      -0.01220897      -0.00713101
C        4.67914490       0.90967658       2.26093423      -0.00125980      -0.01398331      -0.00023387
C        2.98558983       2.51166158       2.49271368       0.00421149      -0.00775689      -0.00511637
C        6.17257661       0.73983313       2.17520806      -0.00232428      -0.01979588      -0.00478741
C        2.73630824       3.97412400       2.75799444       0.00917639      -0.00600427      -0.01034577
H        4.26550444       0.32096169       3.09266315       0.00002386      -0.00814968       0.00454366
H        4.19458345       0.55792398       1.34204465      -0.00582886      -0.01713806       0.00349480
H        2.52598059       2.20665795       1.54167511       0.00189552      -0.00982411      -0.00276899
H        2.53733135       1.89371310       3.28489476       0.00401945      -0.00331220      -0.00219485
H        6.41791977      -0.30460912       1.98285286      -0.00768186      -0.02193120      -0.00062010
H        6.58066159       1.35113855       1.36921515      -0.00285222      -0.02564511      -0.00925943
H        6.64690636       1.04319319       3.10757220       0.00240879      -0.01720531      -0.00825649
H        1.66863782       4.18626938       2.71680588       0.01004040      -0.00195726      -0.01151217
H        3.10841262       4.26186966       3.74211539       0.00954489      -0.00355742      -0.01121131
H        3.23640639       4.58892448       2.00871822       0.01214524      -0.01087651      -0.01207134
O        6.95792595       6.40490639       3.29156865      -0.00095540       0.00454645      -0.00749904
C        6.90036882       6.75893207       1.92184223      -0.00447375       0.00342607      -0.00760165
C        5.90920207       5.51001859       3.63837320      -0.00126840       0.00598098      -0.00539744
C        7.95482013       7.79754916       1.62355881      -0.00734180       0.00549513      -0.00786889
C        6.14187158       4.98957460       5.03474612       0.00293820       0.00053996      -0.00813186
H        7.04987557       5.86182914       1.30658124       0.00615294       0.00544780      -0.00762495
H        5.90037659       7.15249157       1.68379163      -0.00892726      -0.00867650      -0.00761487
H        4.94747961       6.04104470       3.57070285      -0.00055233       0.00792930      -0.00124213
H        5.87219659       4.67990005       2.92013780      -0.00466515       0.00907952      -0.00799355
H        7.90648047       8.08736455       0.57331537       0.00017323      -0.00203514      -0.01016766
H        7.79939666       8.68867202       2.23258302      -0.00290108       0.00926898      -0.01201054
H        8.95235018       7.40723340       1.82673063      -0.01183625      -0.00246546      -0.00203773
H        5.35283654       4.28559271       5.30503510       0.00243877       0.00121351      -0.00744197
H        7.10298057       4.47598986       5.09277788       0.00133407      -0.00278318      -0.01387602
H        6.13748466       5.80687926       5.75537352       0.00940140      -0.00152145      -0.00607067
O        9.62608530       4.20660839      11.91223012       0.00057558       0.00302726       0.00961924
C        9.81345704       2.84242037      11.54323712      -0.00028481       0.00273871       0.00954467
C        9.61230577       5.06903167      10.79621290       0.01153600       0.00228953       0.00978973
C        9.56936806       1.98766952      12.75849072      -0.01564011       0.00009182       0.00372851
C        9.38530116       6.47761383      11.29049759       0.00965742       0.00277418       0.00596669
H        9.09950642       2.59067714      10.75244598       0.00670192       0.00758124       0.00155079
H       10.83085380       2.70093391      11.15386019       0.00246781       0.00109363       0.01898891
H       10.56094665       4.99036688      10.24496211       0.01677763       0.00163746       0.01910608
H        8.81209302       4.76579493      10.10258117       0.01824719       0.00103407       0.00271580
H        9.68724093       0.93476300      12.50701109      -0.02046923       0.00047037       0.00004923
H       10.28776769       2.22455450      13.54347116      -0.02055785      -0.00763259       0.01065452
H        8.55825537       2.15438778      13.13347214      -0.01723133       0.00530937      -0.00343011
H        9.38039134       7.18679456      10.46444263       0.01568572       0.00157176       0.00484422
H        8.42748735       6.54612288      11.80878644       0.00710866       0.00550624       0.00105885
H       10.17133811       6.76419888      11.99096728       0.00655460       0.00079871       0.00979950
O        8.54684676       8.09385341       6.52330626      -0.00103927       0.00489646       0.00558424
C        8.15333997       7.38590565       7.68512896      -0.00050476       0.00339216       0.00480264
C        9.36677100       7.32407720       5.66419631      -0.00475463       0.00373822       0.00343740
C        7.62444573       8.37409787       8.69553145      -0.00081456       0.00252187       0.00496605
C       10.03868196       8.25591650       4.68177245      -0.00835001       0.00066453      -0.00063899
H        7.39478841       6.63179853       7.42779724       0.00019786       0.00329548       0.00346053
H        9.02023176       6.84605668       8.09248279       0.00014195       0.00365597       0.00374389
H       10.12394415       6.80165988       6.26219666      -0.00235999       0.00419576       0.00063986
H        8.76962240       6.56888589       5.13779281      -0.00686800       0.00346440       0.00666016
H        7.17695467       7.85077910       9.54183136       0.00365345       0.00190768       0.00677244
H        8.43621800       8.99889603       9.06490134      -0.00200808       0.00584574       0.00120505
H        6.86173830       9.01331787       8.25359959      -0.00421086      -0.00096980       0.00575235
H       10.61695626       7.68057931       3.95620741      -0.00676004      -0.00282887       0.00349217
H        9.29295396       8.84292522       4.14546845      -0.00955190      -0.00497739      -0.00435562
H       10.71042386       8.93780134       5.20668990      -0.01074600       0.00555731      -0.00434688
