200
Lattice="12.795674799386763 0.0 0.0 0.0 12.795674799386763 0.0 0.0 0.0 12.795674799386763" Properties=species:S:1:pos:R:3:forces:R:3 energy=-92177.9453125 stress="0.0002436262439005077 0.000280997744994238 0.00013338551798369735 0.000280997744994238 0.0006097198347561061 -0.0001533152535557747 0.00013338551798369735 -0.0001533152535557747 0.00014378070773091167" pbc="T T T"
N       10.27155797      10.89029618       0.84791103       0.01144533      -0.00655994       0.00137168
H       10.32570566      11.94618387       0.94095574      -0.01330468      -0.00605416       0.00339675
H       10.20540865      10.62472326      -0.15890034      -0.00328050      -0.00476511       0.00329167
H       11.16571651      10.50195221       1.19608299       0.02772713       0.01295538      -0.01707466
H        9.45883240      10.52923816       1.37609322       0.02820420      -0.02424723       0.01329815
Cl      13.76575739      11.00089089       2.15502357       0.01019621       0.03292003      -0.03578568
O       12.94759535      10.06761339       1.20429589       0.00823277       0.02036208      -0.02023840
O       13.16755841      12.44197718       2.22465013      -0.02101249       0.01445913      -0.00332251
N        6.49078052       4.83965274       4.81274044      -0.00832045       0.00886342      -0.00561545
H        6.08980365       5.55421951       4.20637827      -0.01070881       0.00642379       0.00004902
H        5.91620260       4.81453274       5.64766792      -0.01451653      -0.00091682      -0.00521450
H        6.34926973       3.95935047       4.32986984      -0.00197634       0.00864153      -0.00842863
N        1.23626892       2.54571087       2.37406613      -0.00398165      -0.01261123       0.02231908
H        1.33938857       2.96721117       3.28932386      -0.00306353      -0.02032985       0.02321507
H        1.00438248       1.56233342       2.50170563      -0.00184276      -0.01575386       0.01782946
H        0.43551312       2.97899602       1.92834016      -0.00226530      -0.01677133       0.02873288
N       10.58096933       1.73693547       8.12221177      -0.00241417       0.00919677       0.00138742
H        9.56515556       1.84789648       8.14013651       0.00326640       0.00352859      -0.00460484
H       10.83313843       1.26777278       7.25666464       0.00851543       0.01578981      -0.00492676
H       10.94588618       2.68099425       8.05703691      -0.00252969       0.01118722       0.01105672
N        7.71022693      10.02787421       2.12085653      -0.01565206       0.00147162      -0.00968365
H        7.14867063      10.84719491       1.91816384      -0.01755735       0.00186568      -0.01707493
H        7.33533727       9.66252286       2.99568739      -0.02232679       0.00332067      -0.01355460
H        7.49444831       9.36041178       1.38198643      -0.01077645       0.00353865      -0.01142573
N        4.71457137       4.86403122      10.01898189       0.00665826      -0.01128703      -0.00174825
H        5.53432648       4.30859142      10.23659778       0.00144447      -0.00803055       0.01179941
H        4.82786044       5.17356070       9.05982945       0.00988263      -0.02980786      -0.00862017
H        3.92550770       4.22262865       9.98144043       0.00213535      -0.00871723       0.00895140
N        7.42315226       9.35371483       8.40924390       0.00993019      -0.00411817       0.00195350
H        7.73777253       9.48401997       9.36359493       0.01012435      -0.00060508       0.00393764
H        6.42371124       9.17465570       8.46981436       0.00836386      -0.01608615       0.00705133
H        7.53862030      10.25325155       7.94596305      -0.00107892      -0.01080953       0.00212086
N        9.81269184       7.79314496       7.11062934       0.00421054       0.00453997      -0.00279337
H        9.55224708       6.81980066       6.95437841       0.01740452       0.00254616      -0.00111629
H        8.99532516       8.25677290       7.51833539      -0.00193108      -0.00430837      -0.00148818
H       10.52293878       7.76758863       7.83367289       0.00402766       0.01661108      -0.00178066
N       10.82994468       6.17617821       0.66648783       0.00550319       0.00870168      -0.01476860
H       11.82876812       6.35196127       0.68190250       0.01633528      -0.01862237      -0.00652885
H       10.45831651       6.75500145       1.41405421       0.01623556       0.01851823      -0.02002017
H       10.49648419       6.56107591      -0.21444409       0.02403911       0.00571331      -0.01710281
N       10.32075644       3.68864227      10.81065490      -0.00035182       0.00419021       0.00922436
H        9.30691316       3.65816073      10.85748314      -0.00181279       0.00692213       0.02051122
H       10.64548803       3.75039156      11.76908081       0.01035479       0.00265671       0.00425845
H       10.63198141       2.80833111      10.41405641      -0.00786370       0.00479516       0.00346248
N       10.44359424       6.77724980      10.36568224      -0.00674065      -0.00680882      -0.01486331
H        9.82097673       7.00236421       9.59651439       0.00239334      -0.01675784      -0.02510071
H       10.48582051       5.75328232      10.40757550      -0.00128651      -0.00679082      -0.00683962
H       11.36609840       7.08675784      10.07571010      -0.00568174      -0.00222086      -0.00362970
N       12.13109107      -0.15545067       5.35504662       0.00446840       0.00343142      -0.01212879
H       12.51957869      -0.01004661       4.42313102      -0.00877520       0.00075077      -0.01686696
H       11.98603069      -1.15951232       5.39899704       0.01163923      -0.00284342      -0.00887854
H       12.88587970       0.04337324       6.01244420       0.00557349       0.00728538      -0.02135699
N        9.83805437       4.03553567       2.68567971       0.00041875       0.00697118      -0.00287586
H       10.33809208       4.51087128       1.93423961      -0.00525896       0.01324115      -0.00229666
H       10.50997701       3.79253242       3.40503424       0.00517063      -0.00959428      -0.01529332
H        9.23756631       4.74812567       3.08569172       0.01052510       0.00774136       0.01431472
N        1.50458947       7.74400676       9.44367008       0.00191009       0.00198398       0.01529518
H        1.41048737       8.25062296      10.31632826      -0.01027878      -0.01041367       0.01112488
H        0.84492198       6.97656327       9.47807096       0.02950856      -0.02106698       0.00651005
H        1.23695050       8.38003736       8.68539216      -0.02108906       0.00133489       0.01436807
N        4.44415564       8.05922323       8.23749629      -0.00497746       0.00492629      -0.01471587
H        5.14636906       7.33017933       8.27936070      -0.01648399      -0.00212540       0.00590839
H        4.02710418       7.98982463       7.31320641      -0.00020915      -0.01070850      -0.01709822
H        3.70729168       7.79451147       8.89046820      -0.01318463       0.02715714      -0.01545454
N        0.94191928       1.38214626      12.31029393       0.00516579       0.00395161      -0.00349396
H        1.46350007       2.09971169      12.80826892      -0.01888373       0.01106846       0.00183916
H        0.62477999       0.73474511      13.03175486       0.02405046      -0.01268080      -0.01360751
H        0.11767357       1.84476126      11.94277276      -0.01311240      -0.01856583       0.00211073
N        1.95018421       0.43269837       7.05988493       0.00161901       0.00273457       0.00954132
H        2.34777648      -0.00269313       6.21556623      -0.00345940       0.01424950       0.00028501
H        2.45861782       0.10730759       7.87779816       0.00918425      -0.00623135      -0.00064480
H        2.07628369       1.43353567       6.96665260      -0.00090199       0.00428448       0.02307334
N        9.87974762      10.70044871       4.33868336      -0.00409931       0.00006488       0.00437605
H        9.40087583      10.30632610       5.14076540       0.01446553      -0.00578824       0.00982335
H        9.22716456      10.64994655       3.56173366      -0.02025536       0.00048491       0.01536603
H       10.07561685      11.67590278       4.53286022      -0.00682353      -0.00045190       0.00410951
N       11.68578656       8.23706752       3.26483537      -0.01716425      -0.00661746       0.01017251
H       12.26874988       8.62085449       2.52268318      -0.04157190      -0.01624041      -0.00635102
H       12.30322342       7.86755944       3.97977391       0.00043561      -0.02995336      -0.01785962
H       11.21622047       9.04346580       3.68054729       0.01578942      -0.00169357       0.03420349
N        2.39636824       8.08508518       4.74238509       0.00640395      -0.00688365      -0.00189015
H        2.01506022       8.70164698       4.03083684       0.01490730       0.00530201       0.00277061
H        1.60528179       7.51966986       5.05832582       0.00005823      -0.00318516      -0.00995112
H        3.02045020       7.44975363       4.25547294       0.00238785      -0.00580081      -0.00539505
N        3.43797397       4.30710720       0.13260664       0.01369491       0.00237070      -0.01014241
H        3.61746072       4.74867411       1.02614824       0.00091147       0.00187667      -0.00870420
H        3.83918396       4.88385659      -0.59969180       0.02307487       0.00029299      -0.00418011
H        3.93513280       3.42151959       0.15879712       0.01715073      -0.00036637      -0.00363977
N       10.44993846      10.97577630       7.83633323       0.01244467      -0.00196826      -0.00622348
H       10.38354091      10.10830282       7.31227334       0.01991944      -0.00691338       0.00113545
H       11.31217726      10.95534139       8.37479611       0.01324621       0.00819584      -0.00393346
H       10.57642467      11.71965970       7.15802885       0.00691158      -0.00681824      -0.01067283
N        3.00017446      11.75942508       4.68338099      -0.01436635       0.00197080      -0.00560594
H        2.25028291      11.13648662       4.41317604      -0.00009084      -0.01837582       0.00670750
H        3.66078373      11.23520527       5.25868292       0.00587586       0.02191408      -0.01024228
H        3.48572448      12.04693776       3.84361310      -0.03290246       0.01080502      -0.01335623
N        2.88499144       3.71178357       4.74592014      -0.00618789       0.00637582      -0.01144778
H        3.35982506       4.05441705       5.57535427      -0.01078783       0.01675252      -0.01170110
H        2.83502388       4.48003126       4.07720204      -0.00421456      -0.00264230      -0.01922120
H        3.45375606       2.98655755       4.32586517       0.00002728       0.00273775       0.00056276
N        7.62430060       2.80478887       8.36221703       0.00295720       0.00791648      -0.00178609
H        7.33376953       3.03594234       9.30429712      -0.01235422       0.01103705      -0.00455193
H        6.80931662       2.46740476       7.85777280       0.00648706       0.00533061      -0.01046034
H        7.92134454       3.67214831       7.92648441       0.00684706       0.00321480       0.00206859
N        8.67265049       7.18824426       3.50993618       0.00494695      -0.00639255       0.00508305
H        8.33154736       8.06495283       3.89136925      -0.00384514      -0.00809699       0.00789810
H        9.68571956       7.30379035       3.44215419      -0.00095960       0.00095522       0.00717316
H        8.48710618       6.50593253       4.23775567       0.00577228      -0.00946371       0.00645242
N        2.41211247       2.42718644       9.52724872      -0.00551477      -0.00133646       0.01134622
H        1.61598047       1.97729136       9.08510988      -0.01362868      -0.00386472       0.02999838
H        2.23951324       2.30172175      10.52183236       0.00712968       0.00404052       0.01888098
H        3.20092432       1.82454764       9.31401202      -0.01218920      -0.00084531       0.00643413
N        7.67562404      12.29481657       6.89285529       0.00635988       0.00348565       0.00920258
H        8.17488685      12.18045339       6.01816665      -0.00285028      -0.00391596       0.00160842
H        8.38320304      12.40333504       7.61060738       0.01414918       0.01195814      -0.00223099
H        7.14782072      13.16179736       6.82475840       0.00264200       0.00020742       0.00564104
N        1.07817416       9.69320330       7.07067519      -0.00674551       0.01336971       0.00971454
H        1.80552929       9.41368290       6.41354053       0.00029246      -0.00941373       0.02617979
H        1.15480676      10.69429968       7.21556053      -0.00401028       0.01795863      -0.02704259
H        0.19602920       9.53864105       6.59387610       0.00002031      -0.00074701       0.00673325
N        4.79753356      10.97001160       7.03646450       0.00336934      -0.00445884      -0.00899079
H        5.74549616      11.34419060       7.06302096       0.00572841      -0.00754486      -0.00911168
H        4.76892302      10.12982397       7.61087442       0.00462721      -0.01135139      -0.02355808
H        4.19203628      11.64159394       7.49419000       0.01213533      -0.00708591       0.01069292
N       12.57808671       6.58322519       5.91305468       0.00327685      -0.00773555       0.00685868
H       12.41171458       5.60841426       5.66063214       0.00479987      -0.01264279       0.02034231
H       11.67692499       7.05648286       5.90194491       0.00184526      -0.01268504       0.00812954
H       12.86847188       6.57649406       6.88477185       0.01148114       0.00503546       0.00468575
N        4.04357761       1.32401884       1.13934717      -0.00708915      -0.00602242      -0.01204668
H        4.45725777       0.67130556       1.79592514      -0.00017986       0.00326090      -0.00553431
H        3.62692094       0.75467091       0.41001487      -0.02380605      -0.01619666       0.00867148
H        3.25329292       1.76575666       1.61079490       0.00625672       0.01072471      -0.00638916
N        5.77597175       6.76556715       2.38183049       0.01168149       0.01042098       0.00477776
H        5.56640794       5.94322040       1.82679219       0.01169445       0.00274208       0.00973112
H        6.79391938       6.85718254       2.42309796       0.00639573       0.00556950       0.01304872
H        5.43450038       7.55499565       1.84577842       0.01700276       0.00452782      -0.00985744
N        4.42614728      10.54644092       1.55170474       0.01144710       0.01430923      -0.00178352
H        3.56350316      10.78483968       1.07409111       0.00128259       0.00540347       0.01573639
H        4.18894835       9.81273447       2.21083801       0.03019080       0.02363102       0.01592048
H        5.05409846      10.13918283       0.86687101      -0.00405454       0.00445509      -0.00918613
N       12.63352960      -0.34363482       9.58789461      -0.00407897       0.00272200       0.01955690
H       13.11522041       0.08916754      10.37265204       0.00559059      -0.00490757       0.00219052
H       11.80505409       0.22299373       9.40719347       0.00419562       0.01258008       0.01399599
H       13.23138250      -0.18604729       8.77911370      -0.00532231      -0.01126123       0.00459016
N        7.70287164       1.86710916       2.47100326      -0.00755346       0.00718901       0.01433052
H        7.29210174       1.93450280       3.39408056      -0.03267404       0.00709337       0.01238285
H        6.94431200       2.00182410       1.81133038      -0.00233722      -0.01676079       0.00235158
H        8.35622144       2.65164618       2.38527625      -0.02552184       0.01026385       0.01835310
N        6.05442004      12.33449825       3.78593480       0.00169648       0.00494373       0.01009896
H        5.55717014      11.83675277       3.04664351      -0.00784084       0.01274760       0.01104169
H        6.28592962      11.62668957       4.47623524       0.00503623      -0.00100496       0.00132088
H        6.92726864      12.66015114       3.37963241       0.00067633       0.00145346       0.00142703
N        5.30849045       1.53145821       6.14148003       0.00629550       0.00321752       0.00343803
H        4.39308976       1.26181711       6.48922829       0.00469981      -0.00460093       0.00391953
H        5.45410684       0.96015763       5.30314098       0.01168719       0.00261015       0.00699456
H        5.20961666       2.49107217       5.83231362      -0.00267853       0.00141943       0.00325742
N        7.58357682       5.24277776      11.52795177       0.00247561      -0.01155287      -0.00029314
H        7.72560088       5.95610494      10.82199817       0.01493868      -0.01594050      -0.00215475
H        8.27722540       5.41817045      12.24790834      -0.01012716      -0.01181781       0.00766690
H        6.67209020       5.42106644      11.93488305      -0.00553514      -0.00700106      -0.01511040
N        7.10727109       9.06025664      12.01581541      -0.01300457       0.00168744      -0.01286167
H        6.59611484       9.80613654      11.54755136       0.00531005       0.00088945      -0.03014721
H        6.82685201       8.18246962      11.59584057      -0.01943785      -0.00316952      -0.00401956
H        8.09097054       9.18720964      11.80114436      -0.00891300      -0.01712526       0.00201795
N        2.83759511      11.23184432       9.62455225       0.00695324       0.00871375      -0.00257248
H        3.60944249      11.08724900      10.26639133      -0.00831334      -0.01920430       0.00693551
H        2.72250448      10.35656839       9.12348276      -0.00606872       0.01824759      -0.01833828
H        1.99683270      11.35115483      10.17940764       0.00182376       0.01737976      -0.01429470
N       12.65942850       3.34426994       5.65589258      -0.00317825       0.00323185       0.00900671
H       12.26123251       2.45918319       5.35385404       0.00249633       0.00119595       0.00199725
H       12.68714036       3.29188513       6.66843745      -0.00583682      -0.00093018       0.00477685
H       13.63614421       3.34882896       5.34986712      -0.00129075       0.00774220       0.00841779
N        9.35721089       4.71070677       6.10898649       0.00650020       0.00062928       0.01102298
H        8.46359380       4.68097442       5.61348333       0.01368050       0.00788054       0.01623656
H        9.69399673       3.75718738       6.18802782      -0.00985144      -0.00892389       0.03126984
H       10.01781864       5.17382051       5.49448274       0.02138485      -0.02958751       0.00254583
N        6.29172960       8.90445639       4.99761784       0.00577807       0.00776719      -0.00791293
H        5.89792432       8.09041061       4.53394305       0.00868733       0.01067586      -0.01426627
H        5.51077385       9.46255655       5.33541810       0.00446904      -0.00299910       0.00701812
H        6.76853714       8.57324279       5.83094034       0.01792429       0.00135872      -0.01757369
N       10.56238602       0.83459910       1.35723016      -0.02371589      -0.00597489      -0.00208163
H       10.75074141       1.58032443       0.69930528      -0.01940108      -0.01036882      -0.00885001
H       11.39345788       0.71404283       1.92957509      -0.01981058      -0.01425375      -0.01126640
H        9.79173934       1.15149374       1.93977656      -0.01441307       0.00530496       0.00240068
N       10.51437194      10.01886093      10.90320681      -0.01369673       0.00641608      -0.00860727
H       10.03972203      10.29283301      10.04693610      -0.00583821       0.00257016      -0.01533465
H       10.56707256       9.00415097      10.91849616      -0.00802064       0.00591895      -0.00986496
H       11.46003168      10.37824620      10.79293038      -0.01658328       0.01237631       0.00109340
N        1.79161243       5.73073054       2.43621357      -0.01039359      -0.00293593       0.00184724
H        1.68865551       5.04700317       1.69177189      -0.01742305       0.00154308       0.00639649
H        1.88769704       6.63613548       1.99105585      -0.01901082       0.00669369      -0.00314521
H        0.92073656       5.76352756       2.95505356      -0.00169106       0.00062880       0.01488435
N        2.73878703       5.08181425       7.54003311      -0.00202340       0.01145662      -0.00093910
H        2.69216810       5.85843418       8.19298653      -0.00717472       0.01526217      -0.00963388
H        2.46394943       4.25353853       8.06558111       0.02269275       0.00935572       0.01230365
H        2.03291491       5.25422108       6.83387839      -0.01528744      -0.01471142       0.00901505
N        5.93877382      11.90021779      10.67849952       0.01381984      -0.00233161       0.00067626
H        5.49160298      12.67428571      11.15763739       0.00410492       0.00367719      -0.01386248
H        5.66209572      11.95962279       9.70322244       0.00350489      -0.02908077       0.00301701
H        6.93276035      12.09733533      10.69958618       0.00782067       0.01278044      -0.01138068
