188
Lattice="13.431038258347984 0.0 0.0 0.0 13.431038258347984 0.0 0.0 0.0 13.431038258347984" Properties=species:S:1:pos:R:3:forces:R:3 energy=-94584.109375 stress="-0.0029411751311272383 0.0002414464979665354 -0.00048618529399391264 0.0002414464979665354 -0.002063388703390956 -0.00033033298677764833 -0.00048618529399391264 -0.00033033298677764833 -0.001465728972107172" pbc="T T T"
N       10.38804622      12.13550147       0.51976151      -0.02607119      -0.02105510      -0.00780320
H       11.68926822      12.64411641      -0.29048109       0.01710686      -0.00812259      -0.04044938
H       10.84818963      11.84377563       1.37925014      -0.03229620      -0.01178707      -0.00642860
H        9.74086817      12.87590980       0.76082767      -0.02148688      -0.01871473      -0.00558770
H        9.85713186      11.35385679       0.15796975      -0.03504759      -0.00272417       0.02260476
Cl      13.42634247      11.61840029       0.31462427      -0.00153330      -0.02196109      -0.01699901
O       12.68121814      12.85214938      -0.50929526       0.00966543      -0.02648177      -0.04058926
O       13.17866753      11.74769993       1.81399778       0.01866151       0.01838438      -0.01968122
O        4.70170473      10.07159788       8.07435312      -0.01343942      -0.00293738       0.00137620
C        4.04429478      11.30462615       8.27911033      -0.01026240      -0.00148106       0.00295913
C        3.82753160       9.07408302       7.57284282      -0.01504189      -0.00221592       0.00262932
C        5.05131092      12.29286279       8.80498121      -0.00808972      -0.00336894       0.00298491
C        4.62526848       7.81151684       7.36960591      -0.01496813      -0.00156176      -0.00184506
H        3.61447543      11.65948854       7.33167898      -0.01004735       0.00029361       0.00369000
H        3.21073243      11.17332975       8.98520715      -0.00974107       0.00026864       0.00365329
H        3.00814423       8.90954987       8.28924352      -0.01257819      -0.00399141       0.00489068
H        3.37660897       9.40610064       6.62925478      -0.01825900      -0.00118838       0.00460517
H        4.59361939      13.27243503       8.95037994      -0.00679233      -0.00294359       0.00335885
H        5.46093760      11.95426077       9.75704271      -0.00888985      -0.00381739       0.00296904
H        5.87431348      12.39769436       8.09810332      -0.00795063      -0.00413472       0.00316550
H        3.99003508       7.00949165       6.99699187      -0.01544982      -0.00211012       0.00040156
H        5.42408612       7.98209484       6.64671354      -0.01819156      -0.00061272      -0.00503410
H        5.07653408       7.48515224       8.30670807      -0.01088089      -0.00162546      -0.00403394
O        1.71182296       9.09826926       4.73402265      -0.00770953       0.00873836      -0.00273710
C        0.93503545      10.27855952       4.56844054      -0.00576988       0.01006067      -0.00177383
C        0.92044010       7.93395933       4.61095284      -0.00933453       0.00995839      -0.00331161
C        1.84057202      11.48189882       4.63109497      -0.00474870       0.00897232       0.00313232
C        1.79935334       6.72654324       4.80138334      -0.01448390       0.00774977       0.00625137
H        0.40726485      10.23715464       3.60807056      -0.00422442       0.01290742      -0.00278866
H        0.17473231      10.32255583       5.36075173      -0.00728491       0.00941016      -0.00350478
H        0.11503943       7.94815225       5.35947241      -0.01298213       0.01455413      -0.00769022
H        0.43752483       7.91449695       3.62182137      -0.00424019       0.00717291      -0.00556028
H        1.26031854      12.38743511       4.45202174      -0.00226052       0.00994495       0.00018702
H        2.31070365      11.55760829       5.61195821      -0.00873363       0.00938780       0.00484794
H        2.62652842      11.41292113       3.87886311      -0.00101703       0.00792030       0.00752772
H        1.21114273       5.81157312       4.74387730      -0.01629905       0.00946291      -0.00121425
H        2.56674022       6.68720528       4.02851339      -0.00553818       0.00541387       0.01549554
H        2.29184983       6.76131218       5.77230823      -0.02614349       0.00572577       0.01204586
O        6.67356410       2.88748137      10.80542000       0.00249125       0.00284518      -0.00630385
C        6.56047323       2.62970718       9.41820102      -0.00283676      -0.00006199      -0.00524205
C        6.05190610       4.10287268      11.17591416      -0.00201541       0.00013506      -0.00499934
C        7.32254789       1.36735349       9.10598135       0.00618064       0.00669566      -0.00979931
C        6.21741815       4.29495645      12.66193733      -0.00295738      -0.00069187      -0.00493240
H        5.49904523       2.52929619       9.14399494      -0.00317258      -0.01040270       0.00104347
H        6.96033270       3.48135738       8.84573943      -0.01331148       0.00238678      -0.00849481
H        6.50902826       4.93706784      10.62290414      -0.00457123       0.00234866      -0.00377536
H        4.98975277       4.07984992      10.89790562      -0.00198114      -0.00335970      -0.00484344
H        7.18412438       1.08803007       8.06196754       0.00079104       0.00485384      -0.00848183
H        8.38849458       1.50143769       9.28672991       0.00609867       0.01734291      -0.01864807
H        6.96914777       0.55200467       9.73520718       0.01954394       0.00324193      -0.00699319
H        5.79910399       5.25665837      12.96194940      -0.00335246      -0.00123715      -0.00424819
H        5.70407953       3.51234309      13.22115784      -0.00269961      -0.00110593      -0.00548783
H        7.27634599       4.27122146      12.92423746      -0.00330248       0.00012494      -0.00411144
O       11.04501546       9.03011184       8.04619980       0.01669854       0.01172560       0.00925256
C       12.23200027       8.30606848       8.28996481       0.01840050       0.01494938       0.00862199
C       11.28873382      10.22552388       7.32514300       0.01595604       0.00983804       0.00648764
C       11.87114171       7.00644036       8.96233843       0.02335775       0.01326150       0.00714317
C        9.98585252      10.91281537       7.00292824       0.01507634       0.00807214       0.00940920
H       12.75171004       8.11515332       7.33835572       0.01864600       0.01815441       0.00831825
H       12.91405371       8.89823896       8.91791924       0.01671451       0.01688227       0.00830138
H       11.94857976      10.88258096       7.91108688       0.01702911       0.01047337       0.00412199
H       11.81907827       9.98013987       6.39463935       0.01383895       0.00693074       0.00608173
H       12.76598395       6.43190435       9.20372171       0.02571248       0.01440797       0.00053793
H       11.32099223       7.19515313       9.88332087       0.02756597       0.00971179       0.01032333
H       11.24226091       6.40227610       8.30737284       0.02108134       0.01466256       0.00823183
H       10.18962935      11.81163204       6.42164378       0.00980253       0.00474077       0.00269170
H        9.34415790      10.24861018       6.42569347       0.01293693       0.00328369       0.01757132
H        9.45573661      11.20303764       7.91049669       0.02076164       0.01209216       0.01129821
O        4.46027506      10.44308513       2.61677999       0.00485598       0.00251570       0.00424635
C        3.73967344       9.38127483       2.01149806       0.00927883       0.00525066      -0.00536603
C        5.39579677       9.95839791       3.56737608      -0.00492153       0.00038433       0.01302686
C        2.61756845       9.96530092       1.19277054       0.01053470       0.00523266      -0.00763819
C        6.13718040      11.12090932       4.17712844      -0.00264831      -0.00140047       0.01350652
H        4.41607026       8.78484638       1.38197795       0.01311773       0.01069996      -0.00578380
H        3.33629182       8.72756653       2.79557688       0.00776452      -0.00191161      -0.01208845
H        4.86621916       9.38359363       4.34055721      -0.01446578       0.00774977       0.01156530
H        6.09580865       9.27244676       3.07607594      -0.00505874      -0.00694075       0.02292243
H        2.01761563       9.16958470       0.74629884       0.01608462       0.00353928      -0.01188987
H        1.97321051      10.56575266       1.83321743       0.00443378      -0.00005122      -0.00919692
H        3.00302839      10.60116108       0.39506488       0.00881815       0.00957312      -0.00500643
H        6.87396137      10.75489525       4.89324703      -0.01509242      -0.00184225       0.02573738
H        6.65520778      11.69220603       3.40610404       0.01232342      -0.01102377       0.01662128
H        5.44873075      11.78862480       4.69720598      -0.00346111       0.00821248      -0.00021042
O       12.03708629       2.43270656       4.32012011       0.01544991      -0.00975624       0.01034439
C       12.70321833       3.53545121       4.88974749       0.00780264      -0.00131282       0.00198483
C       12.37136590       2.19343890       2.96943976       0.01914856      -0.01134685       0.01156524
C       12.06056598       3.83332101       6.22403152       0.01271296       0.00030596       0.00308633
C       11.41031176       1.17658533       2.40702782       0.02549589      -0.01784590       0.01486337
H       13.77722906       3.31797526       5.00730749       0.01034808       0.00980026      -0.00352008
H       12.61703310       4.40792673       4.22177262      -0.00365975      -0.00663593      -0.00299111
H       12.31669587       3.13300190       2.39801762       0.01299732      -0.01301464       0.00976111
H       13.40115433       1.82112647       2.88844009       0.02213913      -0.00243384       0.01417481
H       12.58258727       4.64604344       6.73170864       0.00348171       0.01270139      -0.00783560
H       11.01745099       4.11541495       6.07708979       0.00810608      -0.01604636       0.00706841
H       12.08875606       2.94965053       6.86222123       0.02894263       0.00686824       0.01096686
H       11.72976714       0.89119863       1.40677172       0.01414415      -0.01056776       0.00926767
H       11.40585997       0.28343558       3.03258860       0.03965302      -0.02146187       0.00926268
H       10.40067711       1.58517323       2.36920776       0.02232632      -0.02530903       0.02974382
O        9.08430293       2.83538332       4.16079452      -0.00327951       0.00261869       0.00154357
C        8.45795419       1.72266169       4.76694264      -0.00479931       0.00103605      -0.00399265
C        8.42066435       3.28819766       2.99584659       0.00641459      -0.00797030      -0.00744376
C        9.38418964       1.13489424       5.80331632      -0.01424170       0.01326258       0.00964808
C        9.29813512       4.30159300       2.30487355       0.00604078      -0.00252083       0.00214328
H        7.50071746       2.02571395       5.22141888      -0.01289982      -0.00346287      -0.01916572
H        8.22714023       0.96576031       4.00221235       0.01111642      -0.00275040      -0.00471669
H        8.22074134       2.43841187       2.32740755       0.02348642      -0.01323596      -0.00562236
H        7.45033982       3.72697902       3.25742372      -0.00176346      -0.01800838      -0.02124552
H        8.88928840       0.31231907       6.32061679      -0.00690600       0.00323784       0.00003166
H       10.29460554       0.76741937       5.33194294      -0.00090833       0.03181126       0.02168754
H        9.67252099       1.88636270       6.53804822      -0.03979892       0.01732014       0.01517761
H        8.76839128       4.75458913       1.46798072       0.02084148      -0.01645585      -0.01459137
H        9.58202297       5.08673873       3.00478358      -0.01903537       0.00659001       0.00161771
H       10.20136056       3.83730686       1.91181634       0.02048363       0.00372392       0.02893970
O        1.88516632       3.02967676      12.19051485      -0.01022360      -0.00591616      -0.00496340
C        3.01902939       2.17793388      12.20138354      -0.01167591      -0.00767022      -0.00947275
C        2.23645860       4.38473750      11.99270552      -0.00919288      -0.00609273      -0.00284244
C        2.55078988       0.74900554      12.32327653      -0.01459837      -0.00715679      -0.01842880
C        0.97921921       5.21872301      11.98882115      -0.00791654      -0.00439729       0.00512947
H        3.59788151       2.31422194      11.27560218      -0.01128462      -0.00322140      -0.00838536
H        3.67786511       2.45127648      13.03954721      -0.01201957      -0.01441461      -0.00719878
H        2.92551755       4.71601344      12.78584653      -0.00572291      -0.00913821      -0.00485981
H        2.77200448       4.49329960      11.03708911      -0.01329949      -0.00426657      -0.00485638
H        3.41018298       0.07763554      12.36158519      -0.01671386      -0.00977059      -0.02078117
H        1.96217272       0.60979300      13.23072355      -0.01637758      -0.00981533      -0.02020454
H        1.92667385       0.47421357      11.47334432      -0.01387575      -0.00051165      -0.02090476
H        1.22291869       6.26793371      11.81539619      -0.00782444      -0.00455265       0.00527051
H        0.30489088       4.88292653      11.20058921      -0.01286183      -0.00219657       0.00865732
H        0.45588065       5.13625130      12.94163179      -0.00254636      -0.00544216       0.00781280
O        4.00115781       2.41310673       2.29299947       0.00127906      -0.00979078      -0.00714260
C        4.33294493       1.04184261       2.13637878      -0.00422853      -0.01166333      -0.00301344
C        2.60029545       2.60890183       2.36925921       0.00262223      -0.00498712       0.00080396
C        5.83158968       0.93380190       2.05360468      -0.00498152      -0.01758417      -0.01053139
C        2.34035887       4.06888186       2.62907487       0.00572865      -0.00338149      -0.00449339
H        3.94255561       0.46372591       2.98574945      -0.00166975      -0.00648874       0.00154722
H        3.85926555       0.64538226       1.23099343      -0.01070157      -0.01437612       0.00130117
H        2.12089979       2.28853954       1.43448569      -0.00292680      -0.00673725       0.00448459
H        2.18849543       1.99042480       3.18027370       0.00571483      -0.00087950       0.00535125
H        6.12666291      -0.09818558       1.86658614      -0.00989373      -0.01988533      -0.00483704
H        6.21357587       1.56278521       1.24791671      -0.00716686      -0.02513734      -0.01723284
H        6.28049593       1.26456892       2.98853015       0.00197707      -0.01304506      -0.01559819
H        1.26893711       4.26706136       2.66734822       0.00603113      -0.00192406      -0.00501906
H        2.78119223       4.36504184       3.57987677       0.00626190       0.00101802      -0.00626592
H        2.77763436       4.68420403       1.84111003       0.00536939      -0.00786256      -0.00794221
O        6.79051918       6.29903522       3.50187831      -0.00174746      -0.00048230      -0.00524139
C        6.74320166       6.71238795       2.14886276      -0.00246251      -0.00353658      -0.00610787
C        5.64494193       5.53002918       3.83709670      -0.00235581       0.00212219      -0.00229836
C        7.92596226       7.59520364       1.83414535      -0.00643858       0.00090674      -0.00769934
C        5.79515443       4.99954289       5.24092423       0.00205327      -0.00408396      -0.00537509
H        6.73818872       5.82662370       1.50026619       0.00287129      -0.00483060      -0.00417897
H        5.80212979       7.24908121       1.96404879      -0.00449094      -0.00790706      -0.00785054
H        4.74957544       6.16349625       3.75358929      -0.00064129       0.00546730       0.00475385
H        5.52366054       4.70451946       3.12076418      -0.00828182       0.00507504      -0.00437737
H        7.86782117       7.93525470       0.79879577      -0.00850866      -0.00127308      -0.00812460
H        7.94061357       8.46895239       2.48567776      -0.00980958       0.00253296      -0.00994895
H        8.86270183       7.05731933       1.96430862      -0.00414765       0.00504641      -0.00797560
H        4.93090706       4.38735344       5.50372907       0.00172193      -0.00330235      -0.00504445
H        6.69360900       4.38714983       5.33091625       0.00071685      -0.00674635      -0.01232436
H        5.86773646       5.81815742       5.95382515       0.00669728      -0.00797871      -0.00148325
O        9.90571119       4.18971971      11.77050240       0.00487014       0.00945459       0.00462669
C       10.41633265       2.94842831      11.32255441       0.00105414       0.00834790       0.00345126
C        9.44250722       4.97082357      10.68721430       0.00582945       0.01290798       0.00676600
C       10.87789217       2.15782297      12.51455999       0.00310953       0.00594318       0.00140989
C        8.97680078       6.30398877      11.21459524       0.01144055       0.01290339       0.01135093
H        9.63230651       2.40533643      10.77889309      -0.00132832       0.01024771       0.00531384
H       11.24807030       3.11966243      10.62229541      -0.00015044       0.00693101       0.00207052
H       10.25271460       5.09970435       9.95695130       0.00476784       0.01269653       0.00554892
H        8.62930374       4.43978600      10.17362235       0.00262144       0.01743633       0.00716743
H       11.30115587       1.20856859      12.18940282       0.00073196       0.00635755      -0.00264643
H       11.64962652       2.69874953      13.06313736       0.00558977       0.00357823       0.00006323
H       10.04021097       1.96687555      13.18743834       0.00555831       0.00369342       0.00341817
H        8.64462241       6.94234481      10.39752049       0.01643585       0.01865768       0.01398386
H        8.14853560       6.17361057      11.91105065       0.00994019       0.01408759       0.00960346
H        9.78642565       6.80934658      11.74181620       0.01319647       0.00613158       0.01472894
O        8.78318626       7.90428575       6.30408332       0.00047080      -0.00147778       0.00449207
C        8.22489056       7.38631514       7.49582259      -0.00193760      -0.00331321       0.00219256
C        9.51389132       6.94337054       5.56572050      -0.00257093      -0.00156063       0.00213921
C        7.77486728       8.53822901       8.36317896      -0.00170505      -0.00335300       0.00148389
C       10.36939146       7.67507991       4.55855729      -0.00211841      -0.00183085       0.00296721
H        7.38898320       6.71289555       7.25765727      -0.00201637      -0.00259060       0.00077273
H        8.98150679       6.78631696       8.02155524      -0.00327531      -0.00490955       0.00241387
H       10.15192072       6.36424745       6.24807137      -0.00297576      -0.00371788       0.00051874
H        8.82806998       6.24417918       5.07076552      -0.00425768       0.00049919       0.00210887
H        7.18040485       8.17912477       9.20351319       0.00306292      -0.00287285       0.00488818
H        8.64043778       9.07401953       8.74692138      -0.00110674      -0.00066753      -0.00402042
H        7.15043656       9.23002723       7.79982911      -0.00480226      -0.00603582       0.00179183
H       10.89054494       6.97013907       3.90854158       0.00479894      -0.00230195       0.00920529
H        9.75425510       8.32418292       3.93816624      -0.00131506      -0.00642765      -0.00260324
H       11.11093155       8.29261459       5.06560274      -0.00790904       0.00254282       0.00566563
