193
Lattice="13.526005127772725 0.0 0.0 0.0 13.526005127772725 0.0 0.0 0.0 13.526005127772725" Properties=species:S:1:pos:R:3:forces:R:3 energy=-152713.203125 stress="0.0001796033320715651 -0.0005861448880750686 -6.54756986477878e-05 -0.0005861448880750686 -0.00011112950596725568 -0.00012763263657689095 -6.54756986477878e-05 -0.00012763263657689095 -0.0005910361651331186" pbc="T T T"
N       14.03850786      13.19491390       0.77543451      -0.00475232      -0.00100721       0.03134769
H       14.18571047      14.15240755       0.43737511       0.02012353      -0.00608116       0.02947749
H       14.89705919      12.86243746       1.20656631      -0.01600897      -0.01939616       0.03797612
H       13.27531857      13.13813859       1.44242075      -0.00840008       0.01952194       0.02750832
H       13.79507930      12.49255745       0.00526028      -0.01322478       0.00500292       0.02963394
O       12.10996908       9.51889040      -0.46313414       0.00545245      -0.00156283       0.00042629
O       11.81117216      11.40626157       0.56063176      -0.02088606      -0.00110078      -0.00829303
O       13.49014019      11.16182903      -0.81426431      -0.00491333       0.00989470       0.01202607
N       12.43820717      10.67522720      -0.22653219      -0.00666058       0.00208731       0.00067545
O        5.21407982      10.67444851      12.29807580       0.00408208      -0.00361723       0.00458539
O        7.16528161       9.93646627      11.48772819       0.00128394      -0.00760353       0.00276189
C        6.68944672      12.29365557      11.45218693       0.00920427      -0.00621188       0.00722080
C        6.41665552      10.86010287      11.75451208       0.00419611      -0.00539947       0.00496905
H        6.40753359      12.47490944      10.41261276       0.00128172      -0.00130391       0.01029155
H        6.10271801      12.95167166      12.08583254       0.01806656      -0.00446089       0.01351942
H        7.75208544      12.49347813      11.55785318       0.01113424      -0.01209982      -0.00161425
H        5.05123253       9.73109138      12.46624195       0.00260852      -0.00326556       0.00434909
O        2.27379971      10.94172638       0.73797630       0.00971425       0.00085855      -0.01444042
O        3.53248636       9.11692695       0.40030710       0.00750402      -0.00344682      -0.00322670
C        4.13650326      10.65017370       2.15120247      -0.00027907      -0.00226516      -0.00144100
C        3.31662779      10.13782604       1.01137334       0.00557390      -0.00059164      -0.00554937
H        3.97119278      11.71225015       2.31979886      -0.00075516      -0.00235555      -0.00045631
H        3.83831425      10.10602334       3.05108688      -0.00446282      -0.00386207      -0.00389200
H        5.18955078      10.45665429       1.95705233       0.00043768      -0.00261454       0.00283293
H        1.70580211      10.56402682       0.03631068       0.01165548      -0.00058204      -0.01476869
O        5.05019446       9.11792068       6.56622282      -0.00035325      -0.00015867       0.00019085
O        5.72583734       7.12216259       7.32049969      -0.01383401      -0.00316763       0.00013199
C        6.00195850       9.05005995       8.73039458      -0.00361177      -0.00597137       0.00136721
C        5.58493025       8.30754461       7.50788672      -0.00625931      -0.00640219      -0.00047120
H        6.92325973       9.59134705       8.50438654      -0.00820854      -0.00072339      -0.00246242
H        5.24207597       9.77433349       9.01996812      -0.00628957      -0.01109540       0.00535661
H        6.19297921       8.35835777       9.54222131       0.00296139      -0.00715791      -0.00216895
H        4.92118674       8.59263275       5.71115093      -0.00038704       0.00061646      -0.00052706
O        8.16863048       6.23501968       9.83024612       0.00502644       0.00465530      -0.00294983
O        9.55562282       4.88889479      10.98465637      -0.00809085       0.00014359       0.00657544
C        9.24889591       7.14416411      11.70197002      -0.00320525       0.00254709       0.00198108
C        9.00846550       5.97138660      10.82346730      -0.00173442       0.00215280       0.00186443
H        9.96222340       7.80762274      11.20462829      -0.00839525       0.00662643       0.00035384
H        8.33351941       7.71482685      11.83370610      -0.00566976      -0.00201780       0.00460721
H        9.65994255       6.82638863      12.65514292       0.00017951       0.00373967       0.00072011
H        8.00255972       5.43529559       9.26766120       0.00301508       0.00422028      -0.00200044
O        8.78922568      10.67876010       2.60982685       0.00948250       0.00879049       0.00391984
O        7.60220414      11.43520774       0.86610052      -0.00951982      -0.00917137       0.00835919
C        8.80867607       9.37101159       0.65448908       0.00673783      -0.00152969       0.01155448
C        8.32855867      10.59148349       1.36318800       0.00227284      -0.00246394       0.00804394
H        9.69704342       9.63717208       0.07589218       0.00652139      -0.00117234       0.01146185
H        9.08994751       8.58851743       1.35344021       0.00953525       0.00333748       0.01587057
H        8.03870938       9.03459992      -0.03091436       0.00863774      -0.00830977       0.01295674
H        8.42723160      11.48979588       3.03574057       0.00371511       0.00626688       0.00388161
O       12.92652622      12.30874320       3.97108941      -0.01021713       0.01106778      -0.03890066
O       11.04286574      11.16951616       4.38755513       0.01181802      -0.00360310       0.01091390
C       11.18378475      13.43551381       5.12124147       0.00444138       0.00323695      -0.00931275
C       11.69937802      12.19541128       4.45389897       0.00156537       0.00320280      -0.01106465
H       11.57017936      13.46426478       6.14291845       0.00496370       0.00018756      -0.00952938
H       11.52979959      14.33336017       4.61174378       0.00485174       0.00351351      -0.00791241
H       10.09802602      13.40202505       5.15764087       0.00461638       0.00409944      -0.00760959
H       13.22827479      11.39306399       3.62443421      -0.00675325       0.00891590      -0.03370872
O        9.61325072       2.54808134       9.84212833      -0.01004842       0.00228024       0.00223020
O        7.66236842       2.13481337      10.87070571      -0.01624489      -0.00478086      -0.01301813
C        8.35110137       0.71042406       9.07644792       0.00534544      -0.00456566      -0.00565425
C        8.49030505       1.86699928      10.01438434      -0.00784242      -0.00278503      -0.00653374
H        8.92048392       0.87268034       8.16498743       0.00630696      -0.00028681      -0.00431113
H        8.73166342      -0.18840815       9.56572365       0.01363116       0.00047889      -0.00323464
H        7.29978563       0.55170024       8.85084845       0.00788856      -0.01562112      -0.00853339
H        9.57094519       3.39947036      10.36429469      -0.01564334       0.00176783       0.00279078
O        6.54660357       4.46558656      11.61889250       0.01075566       0.00430179       0.00068548
O        6.26099629       4.37070670      13.83532802       0.00303096      -0.00325745      -0.00030059
C        5.39502857       6.24955085      12.58242044      -0.00435719      -0.00586104       0.00030666
C        6.10319299       4.94767400      12.76766221       0.00374816      -0.00070259      -0.00049198
H        5.93161054       6.86974729      11.86496961      -0.00961266      -0.00253324      -0.00059730
H        4.41112935       6.04244076      12.15679216      -0.00288665      -0.01421841       0.00114309
H        5.25640404       6.76263274      13.52530198      -0.00834000      -0.00701624       0.00023323
H        6.98367970       3.58718079      11.69166085       0.00997061       0.00354755      -0.00214347
O        9.99283310       5.47607560       7.59918990       0.00093329      -0.00152653      -0.00463638
O        8.11173414       4.29788570       7.93668917      -0.00072327       0.00331440       0.00127766
C        9.85681300       3.39798905       6.53585156      -0.00059420      -0.00982547       0.01069129
C        9.20605265       4.40719527       7.42358756       0.00006878      -0.00154124       0.00161028
H       10.00218219       3.84491033       5.55124110       0.01535551      -0.01450264       0.01126286
H       10.83839556       3.14479787       6.93544339      -0.00847140      -0.01960402       0.02368499
H        9.24209231       2.50811629       6.45394350      -0.00909632      -0.00344008       0.00677444
H        9.47587697       6.21674857       7.97172011       0.00196671       0.00069439      -0.00728965
O        2.21995272       4.68783811       9.33038123       0.00265330      -0.01844575      -0.02123722
O        3.40079499       3.72697456      10.97216133      -0.00390929       0.00844938      -0.00097537
C        4.52271943       4.40815371       8.94507115       0.01016891      -0.00148234       0.00360662
C        3.36858507       4.21806232       9.87037847       0.00329267      -0.00166786      -0.00823867
H        4.20481485       4.26768368       7.91337540       0.02337755      -0.01561221       0.00167435
H        4.87859497       5.43898412       9.02321854       0.00091181       0.00230569      -0.00457666
H        5.33521112       3.73680610       9.20296105       0.01226619       0.00812450       0.02040289
H        1.48250841       4.60311287       9.97879034       0.00139070      -0.01530725      -0.02272418
O        0.09119483       5.06109503       6.82814927      -0.01453532      -0.00513899       0.02074169
O       -0.24703456       4.90555383       4.60840686       0.01573886       0.01277789       0.01577890
C        0.34591614       2.93703301       5.86256630       0.00259227       0.00329274       0.00619832
C        0.02683363       4.39049724       5.66605533       0.00177109       0.00429833       0.01470101
H        1.32684572       2.83734657       6.32783467       0.00775373       0.00251544      -0.00513989
H       -0.37186096       2.48424988       6.54735520       0.01000214      -0.00090105       0.01044007
H        0.32575757       2.41946920       4.90837848      -0.00544203       0.00817404       0.00489321
H       -0.05006470       6.00961695       6.67172362      -0.00762209      -0.00316495       0.02528641
O        8.87789216      10.77197340       9.53135637      -0.01166251      -0.00417842      -0.00401115
O       10.64737807       9.39385930       9.61542254      -0.00776348       0.00242436       0.00219274
C       10.56115394      11.13153087       7.95130083      -0.00153834       0.00895482       0.00947815
C       10.05222217      10.33135254       9.11130706      -0.00691366       0.00182295       0.00250798
H        9.80447829      11.17886499       7.16878733       0.00596425       0.00552299       0.00230455
H       10.75714245      12.14735457       8.29815596      -0.01231098       0.00930111       0.01418768
H       11.47202506      10.69550659       7.55247129       0.00515369       0.01547112       0.01769859
H        8.54148656      10.30208932      10.33173546      -0.01448626      -0.00848192      -0.00721678
O        6.06167179       7.67128884       2.39637780      -0.00045365       0.01042196      -0.00521359
O        4.89961448       8.00005168       4.26063620       0.00304508       0.00006644      -0.00067355
C        7.29009367       8.21638024       4.35338008       0.00327176       0.00822033      -0.00678593
C        5.98433229       7.95599079       3.68880066       0.00318307       0.00586575      -0.00416824
H        8.12016594       7.98885052       3.69375131       0.00246032       0.00980549      -0.00863248
H        7.34526076       9.26506536       4.65027731       0.00278795       0.00848442      -0.00768208
H        7.35083389       7.60691372       5.25365791       0.00693163       0.00925393      -0.00632143
H        5.15740198       7.43481002       2.08001641      -0.00038952       0.00977773      -0.00379767
O        4.98225695       4.55832705       2.66350179       0.00569016       0.00384283      -0.00268367
O        3.74454014       6.28371760       1.94956269       0.00182682       0.00131202      -0.00193954
C        3.11212388       5.15961592       3.96936720       0.00472271      -0.00094002      -0.00261980
C        3.95988853       5.39861966       2.75967005       0.00361047       0.00220954      -0.00303948
H        2.71065102       4.14490935       3.94867061       0.01294041      -0.00400223       0.00061190
H        3.72587897       5.26244097       4.86556687       0.00356838       0.00678125      -0.00282501
H        2.29820749       5.87578250       3.99895318      -0.00090875      -0.00748271      -0.00517751
H        5.43600040       4.66421612       1.78005987       0.00577767       0.00370720      -0.00257826
O        4.40811469      11.73900947       6.15295007      -0.00061524       0.00415647       0.00649264
O        2.47267888      10.78722229       5.52425083       0.01224333       0.01443344      -0.00139204
C        2.59319734      13.18315225       5.64240309      -0.00317767      -0.00031781       0.00515273
C        3.11296091      11.78064638       5.75296001      -0.01178581      -0.01668519      -0.00246118
H        2.65361474      13.67393303       6.61517217      -0.00162363      -0.00269795       0.00570688
H        3.20726983      13.76117177       4.95204412      -0.00649469       0.00057460       0.00350811
H        1.56417336      13.15449650       5.29754159      -0.00300482      -0.00253069       0.00781613
H        4.66075246      10.79158996       6.30220897      -0.00099605      -0.00131249       0.00436760
O       11.79584520       8.10373765       7.51170199      -0.00448716       0.01243918      -0.00096309
O        9.61927567       8.21103495       6.97780883      -0.00574803       0.00259733       0.00313571
C       11.20445013       7.49739530       5.31915017      -0.00619040       0.00414479       0.00199854
C       10.77011712       7.98659142       6.66018415      -0.00546020       0.00659165       0.00126413
H       12.19587437       7.86709052       5.06900665      -0.00559376       0.00146391       0.00148258
H       11.25991859       6.40765501       5.35113049      -0.00896956       0.00409618       0.00434127
H       10.48686413       7.78291585       4.55849006      -0.00596166       0.00401348       0.00169466
H       11.44850016       8.44377072       8.37761947      -0.00479689       0.01040781      -0.00006214
O       11.98643596       6.33814130       9.92589384       0.00215474      -0.00085866      -0.01371586
O       13.46464699       4.86447929      10.71175229       0.00616410       0.00233370      -0.01458135
C       13.51564739       7.13279348      11.52431146      -0.00204188       0.00117624      -0.01075029
C       13.01892032       5.99951808      10.70008562       0.00278702       0.00122064      -0.01358658
H       13.67033790       8.02013589      10.91297460      -0.01460870       0.00613576      -0.00632890
H       12.75165748       7.41960065      12.24704668      -0.00042534      -0.01107780      -0.00420070
H       14.43319818       6.86127699      12.03704603       0.00347477       0.00707987      -0.01788002
H       11.70861532       5.55004441       9.43223856       0.00557199      -0.00025862      -0.01643969
O        7.63307438       3.06999525       3.75734189      -0.00339645       0.00058609      -0.00756925
O        7.61555699       5.11045667       4.67372648       0.01300579      -0.01451868      -0.00039441
C        6.13413154       3.41750664       5.54738760       0.00836498       0.00885615       0.00033081
C        7.18096657       3.98666168       4.64841307       0.01443937       0.01763552      -0.00236098
H        5.26961205       3.14244521       4.94257325       0.00893146       0.00272527       0.00240959
H        6.49659444       2.50750304       6.02620559       0.01080266       0.01461464       0.00993978
H        5.86960673       4.15294446       6.29905373       0.00737990       0.01423588      -0.00612755
H        8.23231300       3.54579474       3.16372237      -0.00101501      -0.00132310      -0.00765777
O        1.62183057       7.11757961       8.13187584      -0.01630799      -0.00872993       0.00758208
O        3.12996483       7.95679834       9.56559797      -0.00880253      -0.01422980       0.00357789
C        1.60993418       9.45206604       8.44270579       0.00043905      -0.00690722       0.00067884
C        2.22153670       8.12942150       8.78516400      -0.01011020      -0.00995168       0.00282896
H        1.54927888       9.57784338       7.36275180       0.01008194      -0.00386056       0.00047883
H        0.59112080       9.48614454       8.83500835      -0.00229938      -0.00121812      -0.00765555
H        2.19453311      10.25420888       8.88395420       0.00262664      -0.01196829       0.00704030
H        2.00669871       6.27299275       8.45238181      -0.01578170      -0.00988995       0.00325969
O        5.50523868       0.02497379       4.32164160      -0.00786640      -0.00982696      -0.01035321
O        7.50858539      -0.90013652       4.00292684       0.00004411       0.00602323       0.00241867
C        6.59888593       0.55078789       2.30358339       0.00103921      -0.00421736      -0.00510085
C        6.61793310      -0.17148825       3.60717578      -0.00100732      -0.00363830      -0.00370137
H        6.15224630      -0.12112159       1.56784976       0.00514419      -0.00418791      -0.00722089
H        6.02341698       1.47004058       2.37150617       0.00056800      -0.00456207      -0.00797017
H        7.61354960       0.75562024       1.97704358       0.00276420      -0.00355644       0.00086426
H        5.48445553      -0.59309541       5.08152946      -0.00303590      -0.00416711      -0.00576255
O       11.99909451      13.75983778      12.17586802       0.00657958       0.00091946       0.00172943
O       10.28648326      12.52884046      11.42715942      -0.00001457       0.02815872      -0.02169400
C        9.88969688      14.09637590      13.20428373       0.00622106      -0.00224835       0.00338441
C       10.70800787      13.36263462      12.19249758       0.00271726       0.00870115      -0.01044947
H       10.50419598      14.48106957      14.01469215       0.01036441      -0.01001159       0.00321285
H        9.40292224      14.93850647      12.70620802      -0.00118256      -0.00027132       0.01528312
H        9.11470116      13.43208934      13.58239107       0.01238456      -0.01090612       0.00045884
H       12.45138534      13.18742316      11.53639506       0.00574973       0.00357267      -0.00161928
O       11.71175424       9.16034106       2.75139192       0.00149918      -0.00160339       0.00530332
O       13.74555503      10.06255087       3.02963015      -0.00111467       0.00955564      -0.02170023
C       13.56573558       7.85631069       2.11936828       0.00097111       0.00265181      -0.00450757
C       13.02190300       9.13525761       2.66915980       0.00123350       0.00455028      -0.00739625
H       13.35234866       7.04684169       2.82199491       0.00257212       0.00388069      -0.00272804
H       13.05502495       7.62258933       1.18609738      -0.00078920       0.00090500      -0.00309810
H       14.63820143       7.92781232       1.96306148       0.00048685       0.00329291      -0.00718292
H       11.41421788       9.97259153       3.24821755       0.00341118      -0.00157678       0.00671087
O        3.54747511       3.41542757       0.37273651      -0.00828993       0.01384926      -0.01620561
O        1.85100436       1.98284485       0.21486084       0.00210269       0.00069445      -0.00038616
C        1.38948381       4.34398659       0.34019154      -0.01738721      -0.00361145      -0.00591331
C        2.24998634       3.12930184       0.30221099      -0.00641021       0.00411654      -0.00780116
H        1.96526729       5.22713821       0.60572080      -0.02797064       0.00236197      -0.00241461
H        0.96211978       4.46605754      -0.65757498      -0.01878284      -0.00425641      -0.00554442
H        0.56685385       4.19682651       1.03887935      -0.01540865      -0.01671646      -0.00648560
H        4.05151697       2.59840274       0.24299571      -0.00521128       0.01533443      -0.01289517
