189
Lattice="12.977447768562644 0.0 0.0 0.0 12.977447768562644 0.0 0.0 0.0 12.977447768562644" Properties=species:S:1:pos:R:3:forces:R:3 energy=-99674.109375 stress="-0.0007589732995256782 -0.0002720066986512393 0.00028326548635959625 -0.0002720066986512393 -0.0011638604337349534 2.379526813456323e-05 0.00028326548635959625 2.379526813456323e-05 -0.00045522130676545203" pbc="T T T"
N       12.79670208      11.69375613       0.71231177       0.04022649       0.00276583      -0.00935626
H       13.58893440      12.16618516       0.28853443       0.04252756      -0.02165401       0.00602335
H       12.67064868      12.03630973       1.69913597       0.01502486       0.00245821      -0.01407218
H       11.94863603      11.80042440       0.08337185       0.04087001      -0.01939049      -0.02080381
H       12.98326221      10.69815410       0.79138708       0.03517246      -0.02139747       0.01682952
Cl      11.40258959      11.42392684       3.73616441      -0.02062251      -0.00248092      -0.02195370
O       12.64699185      12.19856503       3.41057022      -0.02996761       0.01774687      -0.01186275
O       11.48889544      10.16064083       2.94406357       0.00446640       0.00157690      -0.02285421
O       10.26171008      12.21747166       3.19202160      -0.02994752      -0.01818025      -0.02498561
O       10.75209970      11.63377403      11.98225251       0.02447531      -0.00260483       0.02132896
C       10.68949531      11.80776126      10.55588503       0.00976735       0.00464350       0.02327001
C       12.12366684      11.84852672      10.06862092       0.00438428      -0.00143483       0.00595343
C        9.90662354      10.68749146       9.89381614      -0.00559849       0.01179773       0.02965841
H       10.20509748      12.76712878      10.33458912       0.01321736       0.00788826       0.03310774
H       12.16095649      11.98815602       8.98808655      -0.00773935      -0.00139685       0.00549287
H       12.66832438      12.67307415      10.53062822       0.01470296      -0.00354795      -0.00293571
H       12.62314443      10.90537875      10.30385355       0.00460973      -0.00277571      -0.00196210
H        9.89963609      10.83291372       8.81083512      -0.02062435       0.01388308       0.03011698
H        8.86988283      10.66025502      10.23526569      -0.00037299       0.01907582       0.04512700
H       10.36843288       9.72245003      10.10956325      -0.00984257       0.00826657       0.02132107
H        9.88950608      11.71928291      12.45439258       0.02475315      -0.00820787       0.02946431
O       13.16734989       7.57516710       7.67894878       0.00067374       0.01101571       0.00052655
C       11.96825243       8.35801572       7.68108660      -0.00109947       0.00769000       0.00298589
C       11.76984569       9.04221423       6.33868934      -0.00369307       0.00987858       0.00436187
C       10.75989601       7.52498360       8.06944579       0.00101960       0.00459719       0.00314036
H       12.14572325       9.11981186       8.44622089      -0.00245339       0.00692776       0.00414848
H       10.88804648       9.68759572       6.36102971      -0.00401321       0.00924798       0.00688952
H       12.63765410       9.64928585       6.08011755      -0.00462528       0.01095542       0.00429957
H       11.61836221       8.29617910       5.55509589      -0.00395401       0.01107131       0.00325735
H        9.87512119       8.15845876       8.16098351       0.00082798       0.00307386       0.00873152
H       10.92458918       6.99205257       9.00666505       0.00466256       0.00116639       0.00062805
H       10.54413225       6.78456324       7.29405612      -0.00044566       0.00747675       0.00083521
H       12.95157713       6.70808927       7.32099046       0.00069964       0.00763744       0.00572959
O        8.81537180      11.70474261       0.80576139      -0.00639755       0.00337821      -0.02744168
C        7.91644058      10.58087194       0.73439846      -0.00749922       0.00259130      -0.01353638
C        8.20570038       9.56236094       1.81540893       0.00177827       0.01171815      -0.00727743
C        6.48501361      11.08394891       0.77216445      -0.00695550       0.00194538      -0.00487803
H        8.10358295      10.11912967      -0.24378263      -0.01443294      -0.00353152      -0.01149541
H        7.53857329       8.70681948       1.70778725       0.00242110       0.00950466       0.00658887
H        9.23015048       9.19757997       1.77151993       0.00194815       0.01345490      -0.01213517
H        8.04273181       9.98989680       2.80755858       0.00900522       0.02097704      -0.01039848
H        5.78816587      10.27281478       0.54810855      -0.00840913      -0.00047728       0.00862361
H        6.34033761      11.87787619       0.03957424      -0.01493908      -0.00480112      -0.01020576
H        6.24922081      11.48247563       1.75982579       0.00184820       0.00981864      -0.00621270
H        9.25313751      11.73814133       1.67699699      -0.00807611       0.01228037      -0.02684383
O        3.31912480      10.57674038       4.23132638       0.00109914      -0.01167396      -0.01526165
C        2.79536420       9.65231257       5.19871255      -0.00903424      -0.00189459      -0.00603414
C        1.88810207       8.63657988       4.53010225      -0.00638863      -0.00496286      -0.00638831
C        3.91968983       8.98240876       5.97053182      -0.01173836      -0.00083452      -0.00024068
H        2.21107905      10.27981792       5.87686464      -0.00929472       0.00086275      -0.01371303
H        1.44232459       7.98037337       5.27920813      -0.00876652      -0.00133178      -0.00435518
H        1.08727593       9.14000950       3.98561652      -0.00515445      -0.00683981      -0.01007070
H        2.46885058       8.01763138       3.83995490      -0.00529036      -0.00758292      -0.00192137
H        3.51687217       8.32307294       6.74154141      -0.01649113       0.00383083       0.00140366
H        4.55921538       9.72617854       6.44359651      -0.01288288       0.00080130      -0.00062820
H        4.52400934       8.37117450       5.29471227      -0.01017506      -0.00447819       0.00580016
H        3.81946612      10.05662557       3.59429099       0.00179303      -0.00752187       0.00257575
O        6.30820502       0.37374989       8.33154015      -0.00380635      -0.00919741       0.00815756
C        6.09621032       1.42961605       9.28597872      -0.00393724      -0.00476594       0.00345960
C        5.29222670       0.90334552      10.46191443      -0.00264379      -0.00030780       0.00630248
C        7.41388087       2.04496475       9.71488706      -0.00456077      -0.00157911      -0.00007291
H        5.50660641       2.17152001       8.74081962      -0.00513270      -0.00808856       0.00021380
H        5.07520494       1.70126051      11.17558070      -0.00231455       0.00223218       0.00335555
H        4.35822910       0.45238303      10.12233006      -0.00276649      -0.00233074       0.00921314
H        5.86165915       0.13667192      10.99356535      -0.00151809       0.00245620       0.00886111
H        7.24951225       2.81769239      10.46760177      -0.00509092       0.00235735      -0.00438231
H        7.93738346       2.47995708       8.86290072      -0.00502522      -0.00560802      -0.00245968
H        8.05209836       1.28046343      10.17122537      -0.00394212       0.00147712       0.00396839
H        6.95497754      -0.22936062       8.71658338      -0.00858571      -0.01040165       0.01386404
O       10.55301751       7.43593226       3.30130573      -0.00243104      -0.00310904      -0.00272703
C       11.30897357       6.61661170       2.41375930       0.00259793      -0.00129578       0.00019693
C       11.91966344       7.43496069       1.28477106       0.00093859      -0.00038025       0.00044850
C       12.36390359       5.82538812       3.17449438       0.00434721       0.00398389       0.00301570
H       10.58312529       5.91180060       1.99124588       0.00606844      -0.00515169       0.00017528
H       12.39442183       6.79045512       0.54050002       0.00812535       0.00156632       0.00342920
H       11.15752674       8.03257140       0.78216064      -0.00094137      -0.00588343      -0.00306284
H       12.68190941       8.10611998       1.68925691      -0.00521410       0.00535192       0.00197546
H       12.93490055       5.18287713       2.49696753       0.00909292       0.00694796       0.00427485
H       11.90394147       5.18789117       3.92978716       0.00599915       0.00185272       0.00181152
H       13.06781584       6.50614454       3.65697926      -0.00036015       0.00758199       0.00444484
H       10.94231404       8.32282031       3.31398888      -0.00684668      -0.00004871      -0.00756086
O       11.93001679       3.76506017      -0.17699250      -0.01657167       0.00637645      -0.01004747
C       11.41065005       2.58696352       0.47760050      -0.00575931       0.00329908      -0.00728014
C       12.36874610       2.10042539       1.54726694       0.00524303       0.00900856      -0.01486188
C       10.02120608       2.83932971       1.02857954      -0.00318682      -0.00459401       0.00215673
H       11.35476376       1.84573811      -0.32395189      -0.00657823       0.00339070      -0.00707659
H       11.97291858       1.20060245       2.02053211       0.01565053       0.00530273      -0.01352545
H       13.35918715       1.88888440       1.13832741       0.00347957       0.01647199      -0.02240052
H       12.46639716       2.84346883       2.34188306       0.00545047       0.00915280      -0.01495996
H        9.60032438       1.91875076       1.43761876       0.00434179      -0.00710730       0.00346354
H        9.35040072       3.21541475       0.25612257      -0.01033980      -0.00662869       0.00724240
H       10.06707192       3.56645480       1.84392768      -0.00173543      -0.00592478       0.00308192
H       12.04876692       4.43544133       0.50569317      -0.02392418       0.01022668      -0.01228535
O       11.28897160       2.54534455       4.56524689       0.00334424      -0.00475386      -0.01558435
C       10.25190099       2.47938319       5.55549202       0.00552672      -0.00064725      -0.01032028
C        8.88912058       2.35983833       4.89281919       0.00367129      -0.00417218      -0.00655031
C       10.52694509       1.34391805       6.52518551       0.00911123      -0.00069016      -0.01068687
H       10.30526264       3.43479178       6.08132678       0.00623474      -0.00170171      -0.01211432
H        8.09733409       2.39179118       5.64299684       0.00650190      -0.00442207      -0.00350393
H        8.74278006       3.17795038       4.18540532       0.00007218      -0.00486018      -0.00647750
H        8.81176310       1.41036733       4.36035221       0.00309489      -0.00443660      -0.00527219
H        9.80744170       1.34302411       7.34525201       0.01299061       0.00168923      -0.00730780
H       11.53503833       1.43043956       6.92855968       0.01109125      -0.00065584      -0.01563438
H       10.42278721       0.38255996       6.01972550       0.00601026      -0.00119162      -0.00835866
H       11.34726360       1.67085651       4.16312976       0.00990456      -0.00038342      -0.00643866
O        8.07418792      12.51992101       6.34101773       0.00254010      -0.00401908       0.00854206
C        7.71738368      11.40436303       5.53298965      -0.00211674      -0.00084424       0.00643197
C        7.57300733      10.15341725       6.38096923      -0.00732265      -0.00255430       0.00293028
C        6.46622308      11.69281650       4.72486311      -0.00068063       0.00545761       0.00625512
H        8.56014022      11.26867693       4.84890191      -0.00262368      -0.00258490       0.00610682
H        7.35710015       9.28662314       5.75708991      -0.00987672      -0.00012408       0.00060866
H        8.49457696       9.95854373       6.93066290      -0.00860110      -0.00747636       0.00323376
H        6.75875734      10.26873026       7.10027006      -0.00767379      -0.00171072       0.00240615
H        6.18916193      10.83209578       4.11414419      -0.00301236       0.00804767       0.00356031
H        6.62076946      12.55221469       4.06971052       0.00236868       0.00678399       0.00911522
H        5.61882536      11.89849845       5.38268419      -0.00031379       0.00633991       0.00657526
H        7.27365971      12.91290078       6.71742497       0.00433312      -0.00526290       0.01415853
O        2.27840382       2.96712183       9.71280816       0.01529947      -0.00873411       0.01006550
C        2.39107626       4.19342277      10.44891216      -0.00464013       0.00481528       0.00589368
C        2.56570515       3.91810202      11.92897357      -0.00002570       0.00294392       0.00750130
C        3.50910023       5.05059023       9.88338335      -0.00048393       0.00258487       0.00608236
H        1.43363581       4.69486647      10.28670050       0.00012958      -0.00096872       0.00564255
H        2.58597936       4.85042068      12.49749629      -0.00358140       0.00462207       0.00548309
H        1.74842590       3.30444192      12.30605931      -0.00043565       0.00274242       0.00671995
H        3.50495200       3.39495118      12.12266749      -0.00132026       0.00604820       0.00815112
H        3.56461290       6.01141843      10.39908869      -0.00463005       0.00402266       0.00432880
H        3.35431511       5.23294813       8.81977141      -0.00130054       0.00082157       0.00560161
H        4.46959087       4.54365761      10.01806058      -0.00138238       0.00585830       0.00771436
H        3.08178290       2.46235340       9.87646125      -0.00819723       0.00964151       0.00553192
O        3.19938444       2.45748163       1.74324438      -0.01140624      -0.00661010       0.00579372
C        4.06029709       1.69224963       2.60464118      -0.00539206      -0.00753807       0.00357512
C        5.16714876       2.57118558       3.16399932      -0.00417525      -0.00815040       0.00279418
C        3.25930721       1.00526810       3.69085630      -0.00635695      -0.00415513       0.00545877
H        4.50726693       0.94478930       1.94283884      -0.00947163      -0.00847110       0.00487718
H        5.88714940       1.98530196       3.73878808      -0.00286571      -0.00701652       0.00243090
H        5.70026827       3.07258260       2.35541126      -0.00375003      -0.00969985       0.00227499
H        4.74838427       3.32396157       3.84067746      -0.00165965      -0.00819627       0.00406466
H        3.89512395       0.37777807       4.31468147      -0.00616963      -0.00651680       0.00325012
H        2.48192960       0.36818704       3.27001747      -0.01060508       0.00006630       0.00677690
H        2.78244888       1.75141950       4.33488815      -0.00220770      -0.00309998       0.00680847
H        2.56790688       2.91704526       2.30690362       0.00117180      -0.00282275       0.00139511
O        4.58052168       6.40390635       3.53643782       0.00802481      -0.00914764       0.00172070
C        5.49162225       6.77198615       2.49491534       0.00489278      -0.00271703       0.00018632
C        6.85926213       6.15161426       2.72467072       0.00560248      -0.00367033      -0.00711006
C        4.91129161       6.42352990       1.13415900       0.00032949       0.00152194       0.00091970
H        5.56688658       7.86103007       2.58127161       0.00474659      -0.00377810       0.00404207
H        7.55151610       6.38907847       1.91580021       0.00339346       0.00305663      -0.00705059
H        7.30133102       6.50899171       3.65311880       0.00750471      -0.00963800      -0.00579107
H        6.77256791       5.06385040       2.77676158       0.00703502      -0.00388810      -0.01483872
H        5.55294981       6.79765209       0.33090139      -0.00215408       0.00462153       0.00006842
H        3.92355489       6.86803005       1.00955374       0.00006539       0.00173034       0.00539549
H        4.80792567       5.33886028       1.02544897       0.00051135       0.00213355      -0.00265083
H        4.43335773       5.45467271       3.46133631       0.01023357      -0.00591496       0.00013956
O       11.06478601       4.69186986      10.04930666       0.01158154      -0.00134307       0.01036495
C       11.35231721       3.65300730       9.09813996       0.00204378       0.00121751       0.00583044
C       12.31759801       4.16576707       8.04076229      -0.00083733       0.00265965       0.00421503
C       11.87134253       2.41970781       9.80754068       0.00071743      -0.00451022      -0.00306416
H       10.40608016       3.41006691       8.59990637      -0.00069916       0.00603381       0.00828031
H       12.59491675       3.37287311       7.34572560      -0.00963053       0.00625488      -0.00306538
H       11.84226163       4.95943983       7.46376063       0.00075627       0.00961451       0.01274418
H       13.22712007       4.54765671       8.50318480       0.00365347      -0.00636454       0.00201324
H       12.11300994       1.63665888       9.09082499      -0.00942499      -0.00236824      -0.00870423
H       11.11496353       2.03724877      10.49605237       0.00369073      -0.00398429       0.00001419
H       12.77970700       2.65080736      10.36679788       0.00596504      -0.01219510      -0.00872094
H       11.37736645       4.40087810      10.91878684      -0.00121433      -0.01112692       0.01153852
O        7.28498828       4.52380825      12.28150088      -0.01235622       0.01478721       0.00361913
C        8.11957985       5.34380491      11.45169093       0.00589377      -0.00014776      -0.00755602
C        7.28701946       6.09792052      10.42979207       0.00290704       0.00800651      -0.00426194
C        8.98168417       6.28548204      12.27153138       0.00120163       0.00328207      -0.00004035
H        8.77565795       4.63967355      10.93674011      -0.00029716       0.00493798      -0.00207478
H        7.92979597       6.69566044       9.77861574       0.00714585       0.00410618      -0.00419940
H        6.69975121       5.40801318       9.82255460       0.00330108       0.00783533      -0.00498789
H        6.59206344       6.78267903      10.92521759       0.00731403       0.00737201      -0.00601710
H        9.68830533       6.80617019      11.62246121       0.00614978      -0.00171860      -0.00016396
H        9.54710406       5.73094449      13.01939851      -0.00238710      -0.00018120       0.00015801
H        8.36934764       7.03595419      12.78143872       0.00381990       0.00284555      -0.00502098
H        6.70185440       5.10315183      12.78300113       0.00939166      -0.00316074      -0.01214229
O        8.28471950       4.63005655       7.31963949       0.00321755       0.00057752       0.00124079
C        7.29041316       5.19647787       6.45356545       0.00136277      -0.00561756      -0.00494935
C        5.89846719       4.70046464       6.80690264       0.00289631      -0.00851464      -0.00188023
C        7.36506342       6.70972908       6.45468131      -0.00241498      -0.00485617      -0.00488629
H        7.55726735       4.82483121       5.46239955       0.00160044      -0.00526145      -0.00267363
H        5.16581593       5.10037483       6.10216972       0.00145665      -0.01064560      -0.00149500
H        5.85602367       3.61091475       6.78299052       0.00592058      -0.00879298      -0.00200278
H        5.61317611       5.03816085       7.80510047       0.00285458      -0.00946845      -0.00199503
H        6.59569982       7.12522335       5.80248796      -0.00248119      -0.00786689      -0.00703867
H        8.34199831       7.05483941       6.11662734      -0.00282660      -0.00311129      -0.00418200
H        7.18587321       7.10327169       7.45986610      -0.00482224      -0.00417585      -0.00607125
H        8.21941181       5.07678074       8.17079318       0.00007661      -0.00607947      -0.00655189
