198
Lattice="12.44116312549785 0.0 0.0 0.0 12.44116312549785 0.0 0.0 0.0 12.44116312549785" Properties=species:S:1:pos:R:3:forces:R:3 energy=-477905.78125 stress="0.0016535744071006775 0.000617522222455591 3.036981706827646e-05 0.000617522222455591 0.003115785773843527 0.0005994703678879887 3.036981706827646e-05 0.0005994703678879887 0.0022583354730159044" pbc="T T T"
Ba      12.27511329      12.43878723      -1.47353927       0.00272225       0.00049887      -0.00261609
O       10.83771009       4.56477873       0.38280122       0.00626840      -0.00174218      -0.00439233
O       10.64026007       1.66650641       0.16973134       0.00626871      -0.00259632      -0.00053442
O        9.97995639       3.02069822       2.67059936       0.00268573       0.00189027      -0.00404876
O       12.71645643       2.83171907       1.73581932       0.00386202       0.00079687       0.00221258
Mo      11.01873796       3.02687286       1.21009589       0.00281763       0.00153531      -0.00029805
O        1.88329489       0.74650028       9.23164853       0.00446808      -0.00149094       0.00480231
H        2.50096707       0.33462698       8.59730191       0.00325880      -0.00340733       0.00386070
H        1.88831457       1.69948532       8.98518372       0.00522345      -0.00238942       0.00300921
O        7.41062543      11.51591559       5.32469618      -0.00531664       0.00054440       0.01098608
H        7.43231002      12.48100879       5.25740130       0.01491236       0.01179767       0.01531238
H        6.75592429      11.28505331       6.00508232       0.00931991       0.00996176      -0.00100594
O        1.92138975       9.47364545       6.71731569       0.00179947      -0.00138998      -0.01204380
H        2.18430530       8.67173612       7.21237283       0.00648627       0.00176200      -0.00962305
H        0.98545960       9.54120875       6.97117562       0.00214050      -0.00453748      -0.01008192
O        3.54930449      12.24013585       7.19174333      -0.00149691      -0.00553181       0.00544494
H        4.17115262      12.92860341       6.87963020      -0.00201610      -0.00236646       0.00518833
H        4.08082202      11.41685742       7.18964616      -0.00022913      -0.00332217       0.00441511
O       11.84039501       6.41354016       4.23806226       0.00912163       0.00769562      -0.00841939
H       11.54857373       5.51798229       4.55698185       0.00465150       0.00963338      -0.00692408
H       11.51832622       7.02424700       4.90895297       0.01483363       0.01025710      -0.00633548
O        0.69504459       0.03983683       1.43860646      -0.00389346      -0.00001451       0.00457662
H        1.56804398      -0.07872325       1.03232532      -0.00309184      -0.00297425       0.00487667
H        0.64911123       0.97840200       1.71031628      -0.00157946      -0.00015236       0.00303950
O        4.13620762       8.43920547       1.31831502      -0.00322775       0.00192469       0.00347620
H        4.96910485       8.50765729       0.80426981      -0.00269406       0.00218115       0.00467115
H        3.97376384       9.36133358       1.60104719      -0.00301194       0.00163589       0.00434272
O        4.03031080      11.17528676       1.98010733       0.00176433       0.00489296       0.00336875
H        4.97939686      11.43881771       1.92455658       0.00177086       0.00664523      -0.00074364
H        3.64886684      11.49199976       1.13725409      -0.00128634       0.00362524       0.00438388
O        6.13168823       2.49354500       2.37500754      -0.00483920       0.00845937      -0.00850543
H        6.88584879       2.83483373       2.86793648      -0.01060913       0.01641192      -0.00323604
H        5.33025778       2.96525156       2.72998264      -0.01354112       0.00370000      -0.00375430
O        7.52182764       9.07008343       3.86006403       0.00268212       0.00092146       0.00605227
H        6.55368511       9.12211619       4.02347492       0.00165881       0.00071432       0.00745201
H        7.86150546       9.90687824       4.21734162       0.00321666       0.00023755       0.00499520
O        5.12846434       1.70160281       5.88119459      -0.00110627      -0.00303732       0.00653476
H        6.10041639       1.74637406       5.76592248      -0.00488394      -0.00592560       0.01204959
H        4.73743717       1.46260079       5.01867703      -0.00049087      -0.00594390       0.00592170
O        7.78895896       3.08707058      10.77206065      -0.02771784      -0.01783851      -0.00124680
H        7.31219772       3.53297580      11.49558174      -0.01572672      -0.00188293      -0.00797033
H        7.92994540       2.17910458      11.09582866      -0.04646683      -0.01008475      -0.00417228
O        6.55722612       8.90407369      12.40212136      -0.00111713       0.00257290       0.00839853
H        7.17907220       8.22953479      12.73642145      -0.00206157       0.00633885       0.00473241
H        6.48249628       8.81088007      11.43502413      -0.00227648       0.00508548       0.00444650
O        3.70635494      10.42258605      10.10255965       0.00260411       0.00503827       0.00734916
H        4.28766291      11.12033176       9.71499038       0.00290860       0.00353966       0.00671890
H        2.86181115      10.38199079       9.62121524       0.00200031       0.00461061       0.00625555
O       11.20671192       3.91449722       4.95074085      -0.00120601       0.01295173      -0.00349373
H       10.54475766       3.83883071       5.68435149      -0.00171318       0.01361194      -0.00655688
H       10.81048631       3.46989206       4.17127424      -0.00049866       0.00968584      -0.00607959
O        7.84326995       2.00543199       5.51395918       0.00408792       0.00606279       0.02127884
H        8.45144745       2.15697624       6.25618080      -0.00837672       0.01126321       0.00900374
H        7.90237889       2.85045534       5.02128564      -0.00580672      -0.01843727       0.00655699
O        4.21272860       6.64603557       3.56218251      -0.00154193      -0.00053601       0.00459439
H        3.96835585       7.21210596       2.80856517      -0.00607875       0.00075452       0.00557650
H        5.02178717       6.19908848       3.22719603      -0.00162094       0.00315240       0.00122502
O        9.11389097       0.43640873       2.55313715       0.00165309       0.00134039      -0.00303015
H        9.41356947       0.38183478       1.63362758      -0.00007859      -0.00159504       0.00838176
H        9.33925993       1.35414152       2.81226087       0.00215462       0.00730154      -0.00122659
O        9.57315590      11.69735756      10.56345092       0.00383070      -0.00082314       0.00078650
H        9.75238432      10.83074156      10.95403765       0.00317959       0.00530212       0.00616745
H        8.82084834      12.08130916      11.08585362       0.00648126       0.00660472      -0.00208917
O        1.50586773       5.05695558       2.63878115       0.00536194      -0.00115982      -0.00266460
H        0.95509573       5.46856369       3.31935587       0.00383008       0.00198496       0.00052951
H        1.01715488       4.25305445       2.33359889       0.00210511      -0.00001241      -0.00045450
O        1.69759202       3.32115200       8.36304614       0.00572743      -0.00309128      -0.00005994
H        1.62516523       3.26358937       7.38453845       0.00190632      -0.00302876      -0.00125825
H        2.40685941       3.96151637       8.57594696       0.00377715      -0.00242272      -0.00262386
O        5.64740568      12.21905877       9.61389475       0.00596875       0.00048181       0.00283371
H        5.48339881      13.14129345       9.31387293       0.00214688      -0.00054054      -0.00350800
H        6.36522079      11.84380506       9.05409532       0.00349520      -0.00231536       0.00214728
O        1.50725664       2.15514471      -0.60760594       0.00630438      -0.00094263       0.00356755
H        2.13525349       2.85762737      -0.85169717       0.00382651       0.00157617       0.00260213
H        1.17631968       2.46173193       0.26298812       0.00601237      -0.00169184       0.00339837
O        5.39387875      10.17717899       7.00168755      -0.00005807      -0.00087687       0.00676367
H        5.57658383       9.58575009       7.74638196      -0.00064741      -0.00136445       0.00783106
H        5.14272040       9.61201165       6.24155116       0.00183268      -0.00130846       0.00638436
O       11.68088815       4.59715557       8.39103423       0.00135256      -0.00875109      -0.00425021
H       11.42941359       5.04756146       9.22104022       0.00343871      -0.00790049      -0.00405116
H       12.54645336       4.16919217       8.53471481       0.00416189      -0.00981456      -0.00219328
O        3.27413022       4.35765428      11.87517281      -0.00435518       0.00434026      -0.00439098
H        2.95720413       5.15804535      12.35241880      -0.00409888       0.00259736      -0.00596931
H        4.19897978       4.21940226      12.16471992      -0.00122773       0.00554246      -0.00262162
O        1.88159237       6.96930739       7.87183826       0.00287794       0.00129548      -0.00120151
H        1.98132697       6.46561882       7.04096066       0.00085293      -0.00062404      -0.00075193
H        2.42614969       6.44178193       8.49526081       0.00314986       0.00128602      -0.00146002
O        2.73923391      11.97758935      12.05778567      -0.00194378       0.00157464       0.00716883
H        2.80748109      12.86757723      11.68008632      -0.00477196       0.00407189       0.00978388
H        3.11808345      11.35778335      11.37957658       0.00036025       0.00470771       0.00594354
O        3.90144663       3.53318375       3.29935869      -0.02584378       0.01583111      -0.00304681
H        3.46521682       2.66528883       3.38830952      -0.00283948      -0.00419668       0.00834336
H        3.22400764       4.16637651       3.01165797       0.01191658      -0.02112105       0.01104965
O        0.92302208      10.08044366       9.94417422       0.00503090       0.00128485      -0.00343846
H        0.37048583       9.79717037       9.18728124       0.00634719       0.00224449      -0.00553368
H        0.94387077       9.26824062      10.48702797       0.00252656       0.00203878      -0.00380646
O        4.87852189       9.05973347       4.57476602       0.00096184      -0.00118015       0.00615785
H        4.20893781       9.56497879       4.09868874       0.00250155      -0.00189572       0.00650857
H        4.63737686       8.11810544       4.40164139       0.00161767      -0.00216812       0.00507431
O        4.83529320       4.21162223       7.00415561      -0.00064155      -0.00027963      -0.00494280
H        4.04584361       4.63479092       6.60611012      -0.00078129      -0.00201617      -0.00376151
H        4.95233091       3.39123688       6.48057685      -0.00075299      -0.00278486      -0.00473602
O        7.87344648      11.18714812       8.43196299       0.00191352      -0.00983617       0.00239291
H        7.96785033      10.24338130       8.24067184      -0.00291044      -0.00968021       0.00631298
H        8.55993919      11.36588236       9.10609570       0.00389587      -0.00913618       0.00164575
O        0.40372973      10.93050583       3.68647198      -0.00381015      -0.00020240       0.00274473
H        0.90753817      10.08364535       3.69536590      -0.00292752       0.00051012      -0.00190990
H        0.59238830      11.39613732       2.84481345      -0.00530662       0.00304941       0.00393351
O        8.87884660      10.48795737       1.04697646       0.00448817       0.00402880      -0.00041151
H        8.09125519      10.01036158       0.73746695       0.00573415       0.00402294       0.00813473
H        9.04821437      10.20135777       1.95853543       0.00872936       0.00828116       0.00696235
O       10.75895702       6.02251292      10.57150185       0.00437079      -0.00644404      -0.00536383
H       10.74387577       5.45091927      11.37185722       0.00762855      -0.00577135      -0.00258768
H       11.45266810       6.67903091      10.75425251      -0.00092607      -0.00275166      -0.00712857
O        2.70586307       5.42659760       5.65850367      -0.00218483      -0.00277590      -0.00050777
H        3.16898820       5.78519283       4.87738292      -0.00088855      -0.00342488      -0.00016532
H        2.28295766       4.59106634       5.38731862      -0.00231338      -0.00246152       0.00037827
O        0.71701243       7.51753503      10.99335188       0.00044388       0.00063139      -0.00813526
H        1.12300562       7.12228484      10.21220813      -0.00222872       0.00345113       0.00140487
H        1.22902676       7.16223913      11.76214100      -0.00127496       0.00212557      -0.00111833
O        6.08070791       6.66928692       6.85196728       0.00323623      -0.00488378       0.00001034
H        6.12228607       7.05033211       7.73520304       0.01023407      -0.01232180      -0.00059275
H        5.74969499       5.75186294       6.96044795       0.00017312      -0.00671425      -0.00381630
O        9.62331341       3.58726277       7.09928878       0.00027966       0.01391048      -0.00879638
H       10.41475833       3.81580929       7.65947355      -0.00547914       0.00023824      -0.00612058
H        8.97565674       4.22919288       7.42602621      -0.00122848       0.01483818       0.00344999
O        5.98217971       5.84587378      10.01421377       0.00310136       0.00513084      -0.00437409
H        5.90505633       5.34362031      10.83647070      -0.00236995       0.00703457       0.00019183
H        6.90730589       5.67247605       9.69399274       0.00288661      -0.00307312       0.00173822
O        1.47344444       0.24909891       5.52280495      -0.00547342      -0.00398375       0.00862737
H        2.14301173      -0.14968020       6.12314193      -0.00261646      -0.00380318       0.00677444
H        1.04624889      -0.46010489       4.99561966      -0.00296555      -0.00300095       0.00702714
O        8.10316066       4.37809922       4.05027148      -0.01011798      -0.01542382      -0.00986937
H        8.88716976       4.09456350       3.52883427      -0.00760794      -0.01484278      -0.00936121
H        8.32990556       5.20182244       4.54245965      -0.00948724      -0.01640656      -0.00887477
O        5.37466810       2.46846927       9.32430229      -0.00909044      -0.00403406      -0.01320777
H        6.21285645       2.78453130       9.70566674      -0.00986199      -0.00041485      -0.00688621
H        5.13418851       3.09668196       8.62484940      -0.00742377      -0.00656534      -0.01172522
O        1.26697023       3.04253948       5.67335580      -0.00511660      -0.00101742      -0.00061989
H        1.32056879       2.07772860       5.53889282      -0.00722524      -0.00286401       0.00184928
H        0.34667791       3.29132981       5.43790092      -0.00308155       0.00151587      -0.00074525
O        6.44496850       5.66367509       2.31386184      -0.00203402       0.01009130      -0.00234313
H        6.97311246       5.11608867       2.93543498      -0.00365039       0.00197501      -0.00704212
H        7.08265476       6.38271040       2.06145109      -0.00004706       0.00797672       0.00133551
O       10.76166330       7.01108088       1.62378352       0.00293991       0.00231973      -0.00659787
H       10.83476873       6.13933006       1.18016113       0.00188693       0.00118481      -0.00610588
H       11.12021248       6.86557211       2.51735593       0.00531517       0.00451063      -0.00887171
O       11.20288671      10.04963954      -0.25116624      -0.00622245       0.00425777      -0.00207844
H       10.40974112      10.11009488       0.32887172       0.00832449      -0.00505029      -0.00325290
H       11.51854693       9.14471573      -0.15857296       0.00141125      -0.01301289      -0.01095346
O        2.25245082       6.60495398       0.55789178      -0.00248678       0.00194843      -0.00115436
H        2.88797305       7.30503724       0.82364971      -0.00155703       0.00246212      -0.00056985
H        1.90598496       6.17414832       1.37329837      -0.00012075       0.00082269      -0.00297832
O        8.15597069       7.56896792       1.67992703       0.00234266       0.00627482       0.00366566
H        8.01276557       8.18233263       2.43188422       0.00431243       0.00510449       0.00465008
H        9.12662645       7.35309838       1.66683525       0.00307547       0.00492725       0.00042911
O       11.99804035       8.64592628       7.98158291       0.00668668       0.00000873      -0.00549769
H       12.42548944       7.77745142       8.00277511       0.01319902       0.00167167      -0.00322937
H       11.02811564       8.51802045       7.88868992       0.00846460      -0.00646425      -0.00493717
O        5.96319408       4.15822238       0.16964989      -0.00954225       0.01243749      -0.00148110
H        5.99400104       3.33194488       0.69006316      -0.00623152       0.01336242       0.00286669
H        6.14648586       4.81181684       0.89675851      -0.00802359       0.01438535      -0.00427707
O       10.13665545      10.65223470       3.67127932      -0.00333986       0.00322355       0.00194266
H        9.84846207      11.53591313       3.34982042      -0.00241095       0.00519919       0.00588548
H       11.11579100      10.66255713       3.58051573      -0.00310622       0.00252582       0.00270871
O        8.34030912       6.82433119       5.41275313      -0.00135293      -0.01413374      -0.00816751
H        8.11610577       7.56610260       4.81710676       0.00182319      -0.01107102      -0.00454731
H        7.52849079       6.73302462       5.97248073      -0.00106075      -0.01041580      -0.00582722
O        6.45784828      12.32377932       1.75510249       0.00221139       0.01104891      -0.00847071
H        6.25870030      13.24255480       2.04381383      -0.00024021       0.01216490      -0.00676543
H        7.32184447      12.15126181       2.16461732      -0.00111347       0.01098732      -0.00471058
O        3.47862850      13.33044904       3.75113169      -0.00106849      -0.00529382       0.00458694
H        2.72050863      13.07462879       4.31932116      -0.00332616      -0.00380862       0.00780156
H        3.63209717      12.57727455       3.14805328      -0.00221045       0.00002733       0.00768626
O        3.32219052       5.27252645       9.39015583       0.00233921       0.00017908      -0.00465304
H        4.27926717       5.37260231       9.25286148       0.00408290       0.00032794      -0.00462108
H        3.26611460       4.93931868      10.32222575       0.00204494       0.00113823      -0.00474535
O       11.78798300      12.04523673       8.25681879      -0.00146374       0.00113443      -0.00125498
H       12.53102064      12.41679754       7.76799570       0.00252230       0.00140654      -0.00904683
H       11.14283317      11.75241494       7.58120104       0.00445130      -0.00570108       0.00338865
O       10.00430522      11.08409213       6.35444837       0.00040127      -0.01040223       0.00560396
H        9.09198871      11.42193476       6.38640396       0.00057433      -0.00810923       0.00840456
H       10.14479030      10.94465922       5.38748252      -0.00211427      -0.00544651       0.00372212
O        7.40929857      12.83172923      11.62026510       0.00109302       0.00959304      -0.00652516
H        6.69641572      12.57721311      10.98877751       0.00154677       0.00224106      -0.00313631
H        7.07766410      12.60172190      12.51355156       0.00116307       0.01495045      -0.00131892
O        8.44757801       5.22883814       9.21369263       0.00100216      -0.01232849       0.00834295
H        9.18100357       5.75195708       9.58723433       0.00468054      -0.01944213       0.00967054
H        8.46887727       4.38957595       9.71501850      -0.00525883      -0.01685572       0.00063659
O        9.31743829       8.71059052       7.46069495       0.00662887      -0.01496613      -0.00275657
H        9.03948660       8.04766433       6.80501115       0.00653581      -0.01499061      -0.00413816
H        9.56064365       9.51784927       6.94927370       0.00114795      -0.01291429      -0.00118250
O        1.78750441       8.67279807       4.15925076       0.00135776      -0.00027037      -0.01246998
H        1.87234165       8.90781584       5.12039744       0.00205874      -0.00226681      -0.01134123
H        1.29595665       7.84389831       4.14416251       0.00252711      -0.00004105      -0.01422803
O        5.73097797       8.57302306       9.62213219       0.00289533       0.00864844       0.00609569
H        4.89007446       9.02013292       9.84170117       0.00287434       0.00540084       0.00683876
H        5.62957591       7.62629704       9.84140787       0.00420240       0.00584139       0.00037516
