196
Lattice="13.351778562070411 0.0 0.0 0.0 13.351778562070411 0.0 0.0 0.0 13.351778562070411" Properties=species:S:1:pos:R:3:forces:R:3 energy=-430279.34375 stress="-0.000937925186008215 0.00032889559224713594 0.0003872109518852085 0.00032889559224713594 -0.0021226294338703156 0.0004890251439064741 0.0003872109518852085 0.0004890251439064741 -0.0013474220177158713" pbc="T T T"
Ba      14.74589364      12.76273043       1.39635059       0.02262609      -0.01080272       0.01982238
S       12.88658251       8.06832323       3.94209000      -0.00867563       0.01686774      -0.03033741
S       10.92829978       7.69854245       4.34926400      -0.00792900       0.04102150       0.00473612
O       13.15352202       8.75235844       2.69293799      -0.01338334       0.02304101      -0.01056325
O       12.53203941       6.59694427       3.77232865      -0.00080325       0.02303833      -0.01754645
O       13.70320469       8.42021256       5.05954839       0.01073241       0.01760931      -0.01685840
O        1.36776193       1.80295262      13.41295951       0.00180711      -0.02708486      -0.00209194
O        0.37003138       2.81260894      11.70228849      -0.01079738      -0.02885294       0.00526005
O       -0.17884278       3.40896420      13.81204388      -0.00136830      -0.04613177       0.00324275
C        2.15716680       1.47342946      12.22482642      -0.00264072      -0.02499365      -0.00514135
C        1.15660064       1.72794733      11.12550981      -0.00521170      -0.02021194      -0.00284487
C        0.44708293       2.76680396      13.02765061      -0.01167771      -0.02647293       0.01489633
H        2.50485594       0.44392603      12.27758667      -0.00634350      -0.02537546      -0.00969480
H        3.02744313       2.13051884      12.19367421      -0.00177541      -0.02700046      -0.00447093
H        1.57269819       2.06999985      10.18928136      -0.00670759      -0.01070839       0.00151873
H        0.49470851       0.87694636      10.94869840      -0.00256568      -0.02000973      -0.00986437
O        3.89259318       1.01414424       1.49449465       0.00599977       0.00286158       0.01197433
O        4.36609412       1.54710810       3.58938761       0.00879828       0.00951913       0.00936198
O        2.23705002       1.18063197       2.98035141       0.00622392       0.01286467       0.01196000
C        5.34960798       0.85493728       1.58286181       0.00628483       0.00415730       0.00928354
C        5.66416169       1.48801843       2.93114142       0.00891340       0.00335304       0.00924733
C        3.43559832       1.26163588       2.73248400       0.01000603       0.00976297       0.01078562
H        5.79825273       1.34667797       0.72585865       0.00324120       0.00639521       0.00890568
H        5.55580082      -0.20970724       1.57181229       0.00832962       0.00469819       0.00657364
H        6.30524655       0.87527325       3.55608345       0.00642440       0.00039271       0.00901899
H        6.03828747       2.50739822       2.86967094       0.01314816       0.00116274       0.00837100
O        9.36162295       6.21553426       1.43915650       0.00579602      -0.00368086      -0.01570517
O        7.57842960       5.08220250       2.12994426       0.00941235       0.00070889       0.00019467
O        7.32735682       7.16484164       1.30899875       0.00517271      -0.01035869      -0.01943697
C        9.89871181       4.99525634       2.00506618       0.00862867       0.00366674      -0.00321436
C        8.65837748       4.12164035       2.14787700       0.01085652       0.00266260       0.00488599
C        8.03246081       6.24274197       1.60916910       0.00333706      -0.00213414      -0.01382483
H       10.36538701       5.24096585       2.95744620       0.00820104       0.01529139      -0.00619435
H       10.64567721       4.60327428       1.31862566       0.00886534      -0.00211313       0.00079277
H        8.51224929       3.43475308       1.31076578       0.01162779      -0.00229418       0.00907379
H        8.61259489       3.57788247       3.08877677       0.01342878       0.00882788       0.00823721
O        9.53010096       0.97759907      12.76146844      -0.00031477      -0.01456735      -0.02338822
O        9.35640610       2.96401952      11.78158017      -0.00463259       0.00375211       0.01795845
O        7.49882912       1.88736453      12.42744629      -0.00070411      -0.00779975       0.00845046
C       10.89260650       1.40190529      12.57615207      -0.00185654      -0.00423616      -0.01075858
C       10.77486624       2.69816558      11.76695820      -0.00599360      -0.00115606      -0.00280294
C        8.69521393       1.93314488      12.32056178      -0.00343013      -0.00635282       0.00202770
H       11.42370848       0.60827270      12.05066552       0.00605166       0.00358009      -0.01344165
H       11.32251242       1.57045121      13.56636720      -0.01058749      -0.00770597      -0.00680560
H       11.28025774       3.53964675      12.23087885       0.00396279      -0.00498459      -0.00776920
H       11.09235273       2.58139496      10.73602372      -0.01988026      -0.00019561      -0.00719914
O        9.31974783       5.48338140       6.99793545       0.00855634      -0.00853926      -0.00015327
O       11.17898667       6.58483929       7.51715664      -0.00128624       0.00630756       0.00119209
O        9.23410317       7.70837901       7.32250717      -0.00696552      -0.01675606       0.00056788
C       10.30588613       4.46855298       7.27423000       0.01697865      -0.00118703      -0.00579141
C       11.60912273       5.24312126       7.20161008       0.01010484       0.01140288      -0.00102269
C        9.86893172       6.69588894       7.28663747      -0.00897545       0.00355875       0.00063658
H       10.21072750       3.67866747       6.53357706       0.02455052       0.00318128      -0.00995901
H       10.10560860       4.05904933       8.26561148       0.02134657      -0.00770219      -0.00803232
H       12.33947214       4.93813203       7.94456025       0.01009661       0.01562208      -0.00047314
H       12.05347059       5.25232347       6.20517053       0.01237878       0.01855750       0.00021607
O        5.74148932      12.32410494      10.31597295       0.00025312      -0.00321729       0.00079629
O        4.82090257      12.58607732      12.31998119      -0.01156723      -0.01356202      -0.00369863
O        3.75684946      13.35040187      10.48058347      -0.01071069      -0.01797271      -0.00885215
C        6.57077761      11.54804699      11.21116520       0.00326955       0.00319946       0.00364114
C        6.17156599      12.09051224      12.56839766      -0.01002222      -0.00547442       0.00280744
C        4.70082889      12.80792457      10.98414471      -0.00330442      -0.01560342      -0.00211626
H        7.60608322      11.74309513      10.95477097       0.00266063       0.01698182       0.01199236
H        6.32757235      10.49590720      11.05851242       0.01613070       0.00112239      -0.00130867
H        6.11927064      11.34275723      13.35409569      -0.00946708      -0.00865272      -0.00019665
H        6.79296834      12.92951915      12.87372537      -0.01771539      -0.00233713       0.00889041
O        2.40600997       9.94845629       1.42130231       0.00853169       0.00732699      -0.00167622
O        4.61416274       9.82493247       1.53978269       0.00648546      -0.00861713       0.00049026
O        3.54652410      11.66906733       2.24908364       0.02167904       0.00009942      -0.00175005
C        2.70306916       8.54333991       1.11330784      -0.00200209       0.00486577      -0.00312544
C        4.19737790       8.61726995       0.82754448      -0.00010413      -0.00956708       0.00613290
C        3.54808825      10.53741057       1.79018931       0.01312762      -0.00455196      -0.00336945
H        2.08831917       8.25774518       0.26452078       0.00171569       0.01341250      -0.00847951
H        2.45464089       7.97494337       2.00620810      -0.01329895       0.00640699      -0.00591889
H        4.79170780       7.80666626       1.23266090      -0.01113247      -0.01179647       0.01596221
H        4.42622816       8.77713224      -0.22765252       0.00960043      -0.01985214       0.00729495
O        5.30521914       4.06885398      11.63234587      -0.00957303      -0.01022014      -0.00381483
O        7.23095823       4.77627735      10.76962199      -0.01116658      -0.02244167      -0.01700160
O        5.86989163       3.48829518       9.53277456      -0.01463687      -0.04315999      -0.00028032
C        5.97497852       4.70012517      12.73200436      -0.00475022       0.00305403      -0.01312810
C        7.20042069       5.34896882      12.08275705      -0.00989693      -0.00182050      -0.02556841
C        6.12465523       4.05420530      10.55389153      -0.00931139      -0.02094272       0.00257677
H        6.24084529       3.93036866      13.45500948       0.00102960       0.01099512      -0.00678053
H        5.30342318       5.42874001      13.18270009      -0.00374608       0.00589728      -0.01656015
H        7.11423383       6.43104474      11.99478006      -0.01520211      -0.00395498      -0.04258587
H        8.13285668       5.08711169      12.57949342      -0.00741670       0.01007032      -0.02428095
O        5.36482896       9.95607059       8.80910762      -0.01468870      -0.00258642       0.00408876
O        4.18822925       8.14525578       8.30677067      -0.01389694      -0.00332296       0.00413631
O        6.33199626       7.92913666       8.94403533      -0.02449203       0.00057101       0.02447087
C        4.01979821      10.44198281       8.61643640      -0.01188731      -0.00209171      -0.00665109
C        3.27401572       9.23626225       8.05277082      -0.00651222      -0.00237602      -0.01298138
C        5.37762774       8.61235384       8.70213380      -0.00989538      -0.00663450       0.01429339
H        4.06353826      11.29228643       7.94343240      -0.00593277      -0.00224924      -0.00541782
H        3.62921497      10.76305403       9.58166588      -0.01989147      -0.00322948      -0.00990057
H        2.34140179       9.02293123       8.57219372      -0.01359490       0.00277717      -0.02512547
H        3.11484115       9.29357768       6.97937069       0.00955485      -0.00730492      -0.01537138
O       10.97947831       7.74101582      10.12165091       0.00869018       0.00448726       0.00672996
O       12.37472931       7.96858895      11.84006642       0.01468153       0.00467931       0.00156471
O       12.90378185       8.87045835       9.84005089       0.00876778       0.01334465      -0.00276196
C       10.31535656       7.08978270      11.21039320       0.01807356      -0.00726323       0.00531165
C       11.39707351       7.01319235      12.28764958       0.01943654      -0.00006428       0.00367916
C       12.17204343       8.22899940      10.52706388       0.00248754       0.00121298       0.00920022
H        9.96656583       6.11566385      10.87023151       0.03043263      -0.01045415       0.00146772
H        9.45506007       7.69738181      11.50170822       0.01077166      -0.01932701       0.00837736
H       11.05078085       7.30551152      13.27528985       0.01910740      -0.00124504       0.00403398
H       11.87613560       6.03567461      12.32779339       0.02389696       0.00253600       0.00380534
O        8.75456975      11.22911748       0.29889382      -0.01544845      -0.00560108       0.00750244
O        9.56905208      10.98300710       2.35127479       0.02679547       0.02257933      -0.00827557
O        8.17741426      12.69366910       1.91621559       0.00688389       0.00708830       0.00176695
C        9.43355595       9.95176979       0.26896711      -0.00317295       0.00133163       0.00398025
C       10.19582929       9.92587468       1.58661523       0.01566949       0.01581365      -0.00760931
C        8.77678509      11.72406921       1.54932354       0.00504506       0.00918049       0.00038826
H       10.08779881       9.93532560      -0.59974492      -0.01567926       0.00279499      -0.00488196
H        8.68038324       9.16549601       0.20596449       0.00437826      -0.00608665       0.01775344
H       10.08916545       8.99381067       2.13651651       0.02380174       0.02147496       0.00246754
H       11.25615997      10.15379577       1.48310102       0.01336032       0.01457778      -0.02457640
O        9.05756653       1.63049052       7.79641610      -0.00684473      -0.00866660      -0.02560063
O        8.02723893       0.15135259       9.08936772      -0.00590926       0.00986823      -0.00454065
O       10.15026117       0.72978479       9.54506632      -0.00023425       0.00335535      -0.02368197
C        7.65976594       1.67651117       7.39721769      -0.00842008      -0.00751248      -0.01935747
C        7.11113534       0.39252987       7.98138435      -0.01208818       0.00337729      -0.00052284
C        9.15964740       0.83119265       8.87212987      -0.00457335       0.00160588      -0.01826814
H        7.61015651       1.72322783       6.31330490      -0.01371804      -0.02056745      -0.01916844
H        7.20933616       2.55939950       7.85073342      -0.00197931      -0.00018898      -0.02843511
H        6.10691918       0.48387062       8.37801590      -0.00842804       0.01552535       0.00527835
H        7.16941438      -0.45546688       7.29944492      -0.02294337      -0.00472128       0.00942916
O        4.78530178       4.81377590       6.86211361       0.00635775       0.01337996       0.01567689
O        5.72714465       3.46693890       5.35898788       0.00773400       0.00598053       0.02338099
O        3.65716116       3.00708558       6.15181033      -0.00458169      -0.00935125       0.03177181
C        6.13025232       5.30020311       6.72352086       0.00720243       0.01225615       0.01176661
C        6.59844143       4.60908254       5.45121083       0.00349185       0.00921407       0.01361758
C        4.62167364       3.70324047       6.12630069       0.03283280       0.02358079       0.02239643
H        6.69659790       5.00554417       7.60465931       0.00926095       0.01463951       0.01206529
H        6.09840520       6.38428448       6.66406529       0.00902972       0.01339486       0.00979849
H        6.45939320       5.22178457       4.55990967      -0.00201851       0.00495714       0.01161093
H        7.62750908       4.26179207       5.51311615       0.00668862       0.01348494       0.01043576
O        1.35794416       4.18902862       9.28528767      -0.01977681      -0.00818703       0.00900108
O        2.02329501       6.17131390      10.03175342      -0.01462653      -0.01206860       0.01342065
O       -0.15744435       5.60111780      10.16018172      -0.00738144      -0.01619580       0.02738720
C        2.81079864       4.14279346       9.26753314      -0.02044278      -0.00479412      -0.01052207
C        3.15986032       5.60622195       9.31487184      -0.02274108      -0.00404131      -0.00479905
C        0.97574954       5.35117467       9.85420705      -0.02166593      -0.01007320       0.02084123
H        3.13182982       3.63217030       8.36601302      -0.03292125       0.00292875      -0.01799500
H        3.15414382       3.61093571      10.15694490      -0.00837018      -0.01005433      -0.01932749
H        4.06296385       5.84320468       9.87027332      -0.01661861      -0.00533914      -0.01656145
H        3.20141910       6.05025546       8.32749884      -0.03839186       0.00288081      -0.00221550
O       11.43297561      11.13481864       7.86337672      -0.00190932       0.01780707       0.00898594
O       11.85396900      11.61113205       9.99423274       0.00140253       0.01169974       0.00913593
O       13.42873711      11.98904042       8.43673898      -0.00575817       0.03394365       0.00419834
C       10.21468270      10.76308587       8.54638148       0.00553983      -0.00192668       0.01141620
C       10.53092171      11.04804199      10.01440763       0.00324228       0.00613595       0.00965250
C       12.33883676      11.59869611       8.74591511      -0.00797278       0.01982684       0.00960351
H       10.00798683       9.71500136       8.33688751       0.02116975      -0.00534165       0.01293066
H        9.40940203      11.38954743       8.16386707      -0.00222346      -0.01445252       0.00878888
H        9.86800555      11.78586254      10.45991940      -0.00015885       0.00575259       0.00459851
H       10.55735430      10.13559852      10.60418619       0.00670026       0.00875065       0.01287107
O        5.82282527       7.91844062       3.90718776       0.00691256       0.00409626      -0.02070580
O        5.31975048       9.27578975       5.59087605      -0.00404692      -0.01822190      -0.00761468
O        3.69485151       8.57063965       4.18876472      -0.00408471      -0.01564415      -0.01834980
C        7.08538558       8.17855980       4.55595998       0.00427073       0.00376847      -0.01669951
C        6.76452644       9.32106810       5.51182437      -0.00398701      -0.01126975      -0.00251150
C        4.84145874       8.59102719       4.54382692       0.01154453      -0.01081590      -0.01304945
H        7.80550878       8.43806753       3.78736546       0.00380918       0.01879925      -0.01226130
H        7.41311875       7.28432037       5.08494313       0.01087799      -0.00086296      -0.02884406
H        7.18024470       9.17319095       6.50512234      -0.00651020      -0.02298813      -0.00303873
H        7.04388294      10.29899631       5.12036203      -0.00748103      -0.00477183       0.01244399
O        1.98917835       5.60024788       2.79492593      -0.00249821       0.00422459       0.01576251
O        3.85141897       5.27054815       3.98168390      -0.00633943      -0.01313198       0.00911371
O        1.93203878       5.78509104       5.05228908       0.01382971      -0.01422259      -0.00328696
C        2.92934494       5.02308963       1.88114592      -0.00502214       0.00278956       0.01138949
C        4.25660802       5.18867635       2.61240838      -0.00804222      -0.00655866       0.00556523
C        2.52897753       5.57543279       4.05202196      -0.00226057      -0.00638947       0.01714510
H        2.87136533       5.55139039       0.92857732      -0.00540292       0.00923686       0.00675783
H        2.66305394       3.97394800       1.72531217      -0.01223478       0.00330651       0.00186970
H        4.93027065       4.34219853       2.50096577      -0.00635928      -0.01283464      -0.00292126
H        4.79303031       6.10293048       2.35647432       0.00049828      -0.00770128       0.00782915
O        2.90581812      13.51003799       5.80537042       0.01930732      -0.00527010       0.01073150
O        3.30590238      11.35473638       5.44792212      -0.00542015      -0.00479165      -0.01511933
O        5.02905070      12.77022828       5.73535862       0.00620484      -0.02501276      -0.02024706
C        1.60154363      12.91661421       5.74035630       0.01250312       0.01013720       0.01144107
C        1.88050874      11.45533823       5.36483350      -0.00480582       0.00830066       0.00553246
C        3.84905126      12.57216847       5.66955868       0.01441568      -0.01174876      -0.00861810
H        1.03149818      13.46425496       4.98925689       0.01821409       0.01904361       0.01440999
H        1.12482044      13.00797870       6.71295506       0.01607671       0.01223996       0.01250678
H        1.42884928      10.73752245       6.04633300      -0.00136673       0.01120329       0.01051667
H        1.58540589      11.17684690       4.34653873      -0.02165902       0.01195384       0.01005602
O       11.45958771      10.71992099       4.63170645       0.00764757       0.01816610       0.01396754
O        9.53673664      11.50140522       5.40807723      -0.00134820       0.00615799       0.00147557
O        9.72686858       9.33289314       4.95419314       0.01271051       0.00919396       0.00803135
C       11.72278754      12.10954153       4.90413557      -0.00350749       0.02250373       0.00940686
C       10.33309397      12.68770033       5.16754715      -0.00848669       0.01238328       0.00541019
C       10.21859094      10.44930818       4.99596981       0.00894694       0.01440625       0.00762133
H       12.19669593      12.53227116       4.01809264      -0.00579527       0.02187346       0.00835481
H       12.38342165      12.16116351       5.76606993      -0.00525820       0.02985656       0.01037937
H       10.28943347      13.30839559       6.05798532      -0.01735021       0.00970724       0.00648862
H        9.90465205      13.19452486       4.30259379      -0.01004285       0.00926754       0.00463304
