199
Lattice="13.432366067148493 0.0 0.0 0.0 13.432366067148493 0.0 0.0 0.0 13.432366067148493" Properties=species:S:1:pos:R:3:forces:R:3 energy=-336671.5625 stress="0.0002595364348962903 -0.0007993158942554146 0.00020174792734906077 -0.0007993158942554146 0.0005392805906012654 -0.0006396702374331653 0.00020174792734906077 -0.0006396702374331653 -0.0009031272493302822" pbc="T T T"
Ba      11.72218396      13.62952083      -0.30219184      -0.00941399      -0.01132698       0.01616332
S        6.72774668      11.57722287       4.85245244       0.00106215      -0.01725525      -0.00571406
N        4.66791026      10.90726557       3.05784874       0.02200663       0.01411709      -0.00100851
C        5.52799897      11.19172480       3.81064621      -0.00701681      -0.00593426      -0.02088152
S        8.92279275      11.69846801       9.52755225      -0.00980940      -0.01066461      -0.00516698
N        9.81220233      12.50059002      12.04419219      -0.00099906      -0.00108594      -0.01196814
C        9.43041915      12.16006925      10.97461345      -0.00399932      -0.00463416      -0.00839782
O       12.33480637       8.54421990       2.10091063      -0.00865038       0.00839613       0.01877815
C       11.34639035       9.01190708       1.19096193      -0.00051975       0.00291187       0.00815675
C       10.02920485       8.29207917       1.40329565      -0.00460249       0.00882724       0.00282696
C       11.16768578      10.52755140       1.30142554       0.00315300       0.00452703      -0.00509560
H       11.73029634       8.78565284       0.19527302       0.00666724      -0.00577852       0.01296222
H        9.27524118       8.63883436       0.69689988       0.00294831       0.00549089      -0.00667104
H       10.16441379       7.21590803       1.28437732      -0.00730205       0.00736964       0.01305927
H        9.66501776       8.46959132       2.41641599      -0.01345194       0.01870380      -0.00223511
H       10.41037242      10.86401303       0.58803437       0.01269902       0.00066690      -0.01715599
H       12.13890092      11.00599787       1.11424654       0.00732787      -0.00084690       0.00392247
H       10.85454627      10.79455554       2.31456106      -0.00926783       0.01216776      -0.01106432
H       11.97779613       8.63658756       2.99857015      -0.01529761       0.01307959       0.01597397
O       13.61194922       3.07113860       3.26650231       0.00912021       0.01557142       0.00009793
C       13.09027850       3.83777497       2.16938883       0.00924063       0.00883642      -0.00369784
C       12.84731388       2.83111758       1.05906233       0.01108880       0.00394705       0.00035891
C       11.81118569       4.55289791       2.55160636       0.00781995       0.01083192      -0.01140067
H       13.84116843       4.56810005       1.84439859       0.00935593       0.00720724      -0.00573961
H       12.42606331       3.32340981       0.17717350       0.01756602       0.00225870      -0.00333804
H       13.77302058       2.31181690       0.78953199       0.01074128       0.00104537       0.00539843
H       12.11080252       2.12934127       1.46841166       0.00648560       0.00722398      -0.00129870
H       11.45348467       5.16013291       1.71842223       0.01646091       0.01533079      -0.01229812
H       11.97135118       5.21798298       3.40035036       0.00136972       0.00598991      -0.00673579
H       11.03764959       3.82725747       2.81931439       0.00359812       0.01183228      -0.02092198
H       13.61082269       3.64628310       4.03998351       0.03920795       0.02634570      -0.01190022
O        9.31324649       0.37216856       5.12536497       0.01578903      -0.00336941       0.00059795
C        8.89990838       0.91565033       3.87085645       0.01129335      -0.00848839       0.00002396
C        8.42622232       2.35064837       4.02325054       0.00901563      -0.00868827      -0.00454371
C       10.04676393       0.80737315       2.86707266       0.00858778      -0.00931569      -0.00339949
H        8.07267432       0.27559572       3.55709567       0.01181442      -0.01124179       0.00452505
H        8.12539059       2.77319881       3.06218992       0.00239733      -0.01501061      -0.00517984
H        7.57761434       2.40646789       4.70607274       0.01276299      -0.00732559      -0.00012682
H        9.22902071       2.97704107       4.42345653       0.00967415      -0.00451374      -0.01267231
H        9.75826175       1.27449519       1.91881583       0.00306586      -0.01389040      -0.00402132
H       10.29046461      -0.24922465       2.71702764       0.01161214      -0.00917907       0.00045391
H       10.92955359       1.32266637       3.25971519       0.00783959      -0.00443536      -0.00827019
H        9.86168720       1.03276733       5.56064793       0.02284053      -0.00431499      -0.00721959
O        3.02347830       1.00652685       4.06829036      -0.01714450       0.00857323      -0.00057752
C        4.18621278       1.83739808       4.02568238      -0.01181406       0.00132495       0.00371414
C        4.69876436       2.00338697       2.60101122      -0.00569218      -0.00150704       0.00571507
C        3.88214102       3.17353761       4.68111827      -0.00384457       0.00391328       0.00180432
H        4.93651689       1.28393404       4.60054949      -0.01753655      -0.00349402       0.00652090
H        5.58160911       2.64651566       2.58449931      -0.00245968      -0.00592578       0.00873963
H        4.96593985       1.03825184       2.17082966      -0.00898986      -0.00280523       0.00678061
H        3.93413537       2.46872542       1.97212788      -0.00115758       0.00240459       0.00314804
H        4.74605687       3.84264948       4.68447898       0.00144151      -0.00367773       0.00720767
H        3.53905671       3.03681285       5.70726221      -0.00564685       0.00956865      -0.00019358
H        3.09029189       3.67709304       4.12153198       0.00253093       0.01082709      -0.00020143
H        2.28444278       1.53074721       3.73782639      -0.01230439       0.01173383      -0.00620529
O        6.41090083       7.01572070       5.29134296      -0.01804370       0.01697612       0.00034034
C        6.99389889       6.81813962       3.98815445      -0.01389086       0.00461471       0.00364149
C        6.89785385       8.09083560       3.17525498      -0.01013431      -0.00557548      -0.01351884
C        8.40951603       6.27995373       4.10832017      -0.01437366       0.00654863       0.01478526
H        6.37394016       6.03986065       3.53441941      -0.01322508       0.00066555       0.01307982
H        7.27786982       7.94126327       2.16465794      -0.00552614      -0.02033973      -0.00980750
H        5.87035576       8.44755798       3.11141047      -0.00963023      -0.00619819      -0.02405430
H        7.47721114       8.89262393       3.64471032      -0.01148204       0.00094019      -0.02289261
H        8.81855149       6.04988933       3.12192355      -0.01055055      -0.00254852       0.01870441
H        8.42076594       5.36923078       4.70679989      -0.01686004       0.01189154       0.02289151
H        9.07449559       7.00947492       4.57646704      -0.01585810       0.01061483       0.01068590
H        6.74408004       7.85533809       5.63084220      -0.02059518       0.02350730      -0.01454748
O       12.98928629       0.36353232      10.68267842      -0.00373489       0.00140890       0.01823384
C       12.30711107       0.71930818       9.42502031       0.00480705      -0.00573209       0.01193088
C       11.20836189       1.67866879       9.80393410       0.00323227      -0.00258464      -0.00388940
C       13.28832396       1.32067062       8.44444038       0.01338175      -0.01449315       0.01581946
H       11.87233873      -0.20156900       9.02349135       0.00799266      -0.00847781       0.01471907
H       10.60786837       1.93218306       8.93035261       0.00846757      -0.01277153      -0.01018898
H       10.52425226       1.23162739      10.52743076       0.00057671       0.00422531      -0.00253156
H       11.63290881       2.60011246      10.21180843       0.00055525       0.00181454      -0.01133911
H       12.76270541       1.56919218       7.52072691       0.02243176      -0.01860738       0.00987436
H       14.09385448       0.62984990       8.18683360       0.00943078      -0.02340481       0.03043006
H       13.72231138       2.23894676       8.84470522       0.01412702      -0.01351887       0.01335877
H       13.78832483      -0.12313438      10.45033871      -0.00078404       0.00389403       0.02271581
O        9.61316646       1.94661377      12.90377754      -0.00555092      -0.01650786       0.00115252
C        9.14797889       3.14554400      12.18304923       0.00103962      -0.00960235       0.00901148
C        8.00626877       2.75745768      11.27358186       0.00388128       0.00006288       0.00126380
C        8.77366243       4.23042831      13.16835426      -0.00044274      -0.01776710       0.01711935
H       10.00815449       3.47743787      11.59513895       0.00428244      -0.00687683       0.01531550
H        7.70081206       3.60817340      10.66268511       0.00646210       0.00587201       0.00825784
H        8.28972719       1.94690733      10.60039426       0.00601917       0.00648507      -0.00546832
H        7.13188463       2.44105961      11.84684019       0.00204378      -0.00486469      -0.00434379
H        8.48027580       5.12884536      12.62031396       0.00879397      -0.01042567       0.02463204
H        9.61235519       4.48536250      13.81698433      -0.00410734      -0.02977345       0.02610675
H        7.92871208       3.91750943      13.78393137      -0.00687912      -0.01973160       0.00720885
H        8.89486994       1.29874817      12.84120751      -0.00176001      -0.01867884      -0.01648989
O       12.13166129       6.26491074       5.34595506      -0.00760718      -0.00641495      -0.00806731
C       11.84980649       5.67057996       6.61274481      -0.00053656      -0.00536221      -0.00594619
C       10.97683974       6.56888794       7.45958404       0.00016078      -0.00643909      -0.00406203
C       11.20078817       4.31259823       6.39453715       0.00299355      -0.00718766      -0.00350864
H       12.81152347       5.52805535       7.12272217       0.00155479      -0.00233404      -0.00872523
H       10.75591534       6.09861301       8.41649472       0.00519240      -0.00544562      -0.00229737
H       11.47895523       7.51533074       7.65708794      -0.00151786      -0.00482111      -0.00709653
H       10.02872607       6.76684832       6.95251469      -0.00207545      -0.00962872      -0.00084163
H       11.05035546       3.80306547       7.34900234       0.01265857      -0.00969069      -0.00341801
H       11.82030991       3.67903205       5.75613070       0.00056997      -0.00275062      -0.01012063
H       10.22933771       4.44092686       5.91482268      -0.00134163      -0.01011217       0.00451350
H       11.64357578       7.09701232       5.25706387       0.00339174       0.00027488      -0.00128478
O        3.52552771       7.41530903       5.31542918      -0.01996174      -0.01943496       0.00503343
C        3.03193042       7.73237973       4.00443979      -0.01088482      -0.00207888       0.00557232
C        3.31718410       6.60200306       3.02702650      -0.01082793       0.00655335      -0.00398904
C        1.54483212       7.96343392       4.14938361      -0.01039958       0.00507345      -0.00157377
H        3.51330422       8.65056162       3.64392815      -0.00315583      -0.00146157       0.01799062
H        2.93760623       6.85320345       2.03513277       0.00372374       0.02212088      -0.00514057
H        4.38691840       6.40882905       2.93758194      -0.01207753      -0.00371898       0.00702148
H        2.83128607       5.68685272       3.36834310      -0.02465479       0.00783388      -0.02093935
H        1.08287643       8.10935597       3.17402773      -0.00385396       0.01375370      -0.00324298
H        1.34697509       8.84038059       4.76715858      -0.01007848       0.00122060       0.00367096
H        1.07702349       7.09992004       4.62754678      -0.01782206       0.00410542      -0.01071971
H        4.48947485       7.29328683       5.27186749      -0.01829860      -0.00972216       0.01057513
O        6.41460691      12.70026196      11.97886160      -0.00025514       0.00391847      -0.00213143
C        5.69008400      11.50849276      12.33436673      -0.00831434       0.00938708      -0.00018151
C        4.38702074      11.42935948      11.55698844      -0.00298154       0.01101053      -0.00908720
C        6.54033709      10.26584284      12.12356368      -0.01243299       0.00426894       0.01312417
H        5.46721510      11.62172808      13.39703544      -0.01515922       0.01667504      -0.00253153
H        3.81427219      10.55447727      11.86335837      -0.01014160       0.01624814      -0.00733815
H        3.78196034      12.31663918      11.74570148       0.00088015       0.01593590      -0.02061661
H        4.58999043      11.36926099      10.48498501       0.00446490       0.00239585      -0.00715829
H        6.02698588       9.38531215      12.51445912      -0.01924549       0.00852613       0.01399859
H        7.50552217      10.35789364      12.62185537      -0.01607671       0.00334109       0.02038413
H        6.72649273      10.10676557      11.05783752      -0.00464973      -0.00201338       0.01555473
H        6.75498557      12.56386562      11.08639805       0.00285501      -0.00203353       0.00000989
O        2.97172448      10.71219450       0.89115405      -0.00767130       0.00343949      -0.00464818
C        1.88003743      11.57755527       1.07686978      -0.00502032       0.00585729      -0.00097659
C        1.14047025      11.26363625       2.36903134       0.00218830       0.01289174       0.00472182
C        2.30819936      13.04188599       1.04938870      -0.00313562       0.00515825      -0.00911730
H        1.20994117      11.38272845       0.21629841      -0.01052496       0.00330806       0.00375432
H        0.31817045      11.96742766       2.53931717       0.00411370       0.01498737       0.00615336
H        0.73492810      10.25285794       2.34782778       0.00069741       0.01336443       0.01185725
H        1.83181577      11.35825540       3.20898969       0.00695658       0.01618206       0.00019857
H        1.43791339      13.70903604       1.13021074      -0.00208997       0.00649287      -0.00922824
H        2.85597893      13.28221356       0.13745564      -0.00740918      -0.00033613      -0.01294863
H        2.93907812      13.25467021       1.91243598       0.00106187       0.00890171      -0.01313153
H        3.56287679      10.77805945       1.68291199      -0.00268351       0.00550497      -0.00880026
O        4.68848888       2.85616233      11.21506993       0.00384793       0.00603253       0.00846554
C        4.23816714       4.20702104      11.04165757      -0.00175840       0.00375196       0.00579741
C        3.31173274       4.32949278       9.84537076      -0.00109747      -0.00229309       0.00465995
C        3.61183978       4.72686854      12.32480968      -0.00535849       0.00349967       0.00415361
H        5.15643785       4.76513369      10.83773605      -0.00397187       0.00733635       0.00575437
H        3.02460274       5.36994861       9.68335364      -0.00429072      -0.00365965       0.00171093
H        3.79878552       3.95598866       8.94463310       0.00077376      -0.00299783       0.00609502
H        2.39458472       3.75696127      10.02057892       0.00060623      -0.00484980       0.00538235
H        3.35557668       5.78357739      12.23540883      -0.00996667       0.00217688       0.00156609
H        4.29515374       4.60018885      13.16491017      -0.00550959       0.00864862       0.00502950
H        2.69106313       4.17715770      12.54439294      -0.00299568      -0.00038941       0.00456278
H        3.91333219       2.29455825      11.31743791       0.00617224       0.00293767       0.00853486
O        1.72408373       8.58541835       7.51403039       0.01572227      -0.01151818      -0.02135167
C        2.59753956       9.62256190       7.96264588       0.00646800      -0.00901714      -0.01136928
C        3.86846300       9.02512619       8.54992580       0.00788563      -0.00390670      -0.00896445
C        2.89206437      10.61273034       6.84575878       0.00518534       0.00083405      -0.00321645
H        2.04162401      10.13235488       8.75861987       0.00005290      -0.01721168      -0.01078111
H        4.57781451       9.80360673       8.83248859       0.00079526      -0.00111672       0.00030898
H        3.64173253       8.42235137       9.42996403       0.00742788      -0.01216460      -0.01477073
H        4.34656846       8.38582962       7.80520966       0.01653586       0.00442770      -0.01054010
H        3.51447665      11.43603126       7.20179765      -0.00203058       0.00229031       0.00588023
H        1.96407923      11.02402262       6.44561410       0.00441091      -0.00204262      -0.00447026
H        3.42848747      10.12209162       6.03173282       0.01243195       0.01126958      -0.00468315
H        2.21233254       8.09609459       6.83305803       0.02334967      -0.00786738      -0.01921234
O        9.95792547       9.16323590      11.74554265       0.00411789       0.00034207       0.00053921
C       10.12887392       7.79272150      11.37533988       0.00258882       0.00080389      -0.00101131
C        9.02554594       7.35344199      10.42737766       0.00100321       0.00021960       0.00337347
C       11.52641315       7.56544645      10.82032981       0.00186819       0.00024435      -0.00208008
H       10.03190459       7.23617656      12.31298475       0.00150350      -0.00048962      -0.00368142
H        9.10637652       6.29053403      10.18935088       0.00054314       0.00060524       0.00062989
H        8.04643130       7.53819417      10.87221105       0.00086731       0.00124755       0.00305277
H        9.08365306       7.90967290       9.48761966       0.00038832       0.00159189       0.00353371
H       11.69067954       6.51309195      10.57875780       0.00170756      -0.00018060      -0.00013874
H       12.27812523       7.86980492      11.54897384       0.00211721       0.00081863      -0.00236343
H       11.67718723       8.15014292       9.91174216       0.00208157      -0.00085701      -0.00285520
H        9.71499369       9.65721554      10.95007102      -0.00052923       0.00227676       0.00312304
O       10.99785864       8.93626841       4.82004197       0.00652915       0.00274891      -0.00212342
C       11.58760183       9.83470368       5.80133971       0.00562286       0.00302091      -0.00150147
C       12.18923099      11.03777111       5.10675183       0.00443432       0.00405073      -0.00062922
C       10.55350414      10.23543572       6.82953013       0.00382954       0.00066191      -0.00254610
H       12.38503065       9.24402015       6.25977302       0.00604197       0.00358695      -0.00150451
H       12.74364857      11.64662153       5.82385813       0.00278863       0.00452816       0.00030373
H       12.87548108      10.72399420       4.32278324       0.00593190       0.00532726       0.00010422
H       11.40025458      11.66209327       4.67863021       0.00410835       0.00306003      -0.00110245
H       11.01067670      10.85067918       7.60482106       0.00140736       0.00092047      -0.00147784
H       10.10612595       9.36705574       7.31307716       0.00463714      -0.00067259      -0.00403736
H        9.75977787      10.82948182       6.36604983       0.00365631      -0.00037810      -0.00342855
H       10.12872590       9.29397209       4.59827265       0.00399053      -0.00091714       0.00165523
O        5.60454160       3.04563519       7.50789902      -0.00144610      -0.00510061       0.00180775
C        6.05966653       1.88767811       8.22268197      -0.00002766      -0.00565845       0.00052565
C        5.10347145       0.72253183       8.03354669       0.00022507      -0.00599223       0.00189582
C        7.47377030       1.52867608       7.80451232      -0.00024372      -0.00530030      -0.00082967
H        6.03828913       2.19836785       9.26827054       0.00136524      -0.00552130       0.00073874
H        5.41014355      -0.12607327       8.64871936       0.00261018      -0.00696385      -0.00072459
H        4.08975698       1.01163311       8.31643153       0.00071272      -0.00726283       0.00497399
H        5.10080544       0.38673208       6.99313815      -0.00256437      -0.00398589       0.00127508
H        7.88130513       0.73530451       8.43387114       0.00048321      -0.00568122      -0.00168249
H        8.11988275       2.40757775       7.87361746      -0.00018230      -0.00543623      -0.00092158
H        7.49161123       1.15592981       6.77807082      -0.00097398      -0.00465778      -0.00100029
H        5.55645618       2.80755948       6.57697738      -0.00221735      -0.00027004       0.00046290
