195
Lattice="13.346119394785392 0.0 0.0 0.0 13.346119394785392 0.0 0.0 0.0 13.346119394785392" Properties=species:S:1:pos:R:3:forces:R:3 energy=-428162.09375 stress="-0.0012614725856110454 9.31111972022336e-05 0.00010387786096544005 9.31111972022336e-05 -0.0005272484268061817 0.000469775652163662 0.00010387786096544005 0.000469775652163662 -0.0012146957451477647" pbc="T T T"
Ba      15.10953832      15.24337824      -2.46647506       0.01628369      -0.00292510      -0.00259764
P        9.63696258       3.44057665       4.07929969      -0.01270226      -0.00451557       0.00114432
O       10.21025708       3.69857552       2.56366941      -0.00187394      -0.00565547       0.00577974
O        8.50962655       2.29298627       3.82807643      -0.00844693      -0.00842553      -0.00487110
O       10.77093744       2.89860428       4.87498343      -0.01776612      -0.00178313       0.01046288
O        8.87478199       4.65539771       4.50245533      -0.01787615      -0.00655067      -0.00503084
H       11.14783669       3.48280415       2.60097852      -0.00200918      -0.00487257       0.01390751
H        8.92122832       1.42019541       3.83405372      -0.00611913      -0.00684980      -0.00163836
P        2.27808703       5.17833950      11.74757451      -0.01137412      -0.00682545       0.00049686
O        2.39477486       5.83450802      13.20788047      -0.00502141      -0.02113025       0.00620490
O        3.52865081       4.12074031      11.62829172      -0.00883031      -0.00330225      -0.01241207
O        1.10189356       4.23248437      11.73320855      -0.00924492      -0.01028436       0.00008999
O        2.47504080       6.25943651      10.75781026      -0.01832265      -0.00034034       0.00793475
H        1.91483610       5.34129795      13.88193503      -0.01673461      -0.01913962      -0.00088274
H        4.30089928       4.52767840      11.19679191      -0.01090101       0.00044416      -0.01290933
O        4.24336192       1.44232633       0.66237331       0.01361692      -0.01798003       0.00346473
O        2.82722442       1.43464243       2.36422705       0.00700426      -0.00315691      -0.00204382
O        2.05823879       1.73745357       0.27651263       0.01587754      -0.01502766      -0.00696713
C        5.09231386       1.18137792       1.80670255       0.00894737       0.00038461       0.01036471
C        4.10110323       1.08740951       2.96472142       0.00268213      -0.00830178       0.00352174
C        2.97271919       1.54775487       1.04130090       0.01293772      -0.01252682      -0.00179091
H        5.80248522       2.00070252       1.90037837      -0.00470829       0.01174709       0.01069506
H        5.60400352       0.23961211       1.63355926       0.02461712       0.00778890       0.01847759
H        4.01672939       0.07881740       3.35833304      -0.00016866      -0.01115793      -0.00468712
H        4.30907494       1.80506147       3.75491249      -0.00209250      -0.01435128       0.01002535
O        6.58262032       7.07454520       1.39152111       0.00024879      -0.00652686       0.00151116
O        7.68519539       5.15107426       1.23593956       0.00764138      -0.00226809       0.00436879
O        5.45932510       5.18545689       0.92343438       0.00547004      -0.01356465       0.01669541
C        7.96958071       7.43138188       1.48379451      -0.00082390      -0.00052422      -0.00453696
C        8.65138923       6.09975233       1.75228455       0.00505400       0.00314486      -0.00125414
C        6.49394634       5.74132641       1.16330460       0.00544637      -0.00730789       0.00866708
H        8.08753494       8.15130626       2.28829491      -0.00159552       0.00307375      -0.00767210
H        8.26104939       7.88832777       0.53483317      -0.00511057      -0.00339100      -0.00711900
H        9.58065481       5.94765375       1.21297203       0.00441375       0.00472931      -0.00273684
H        8.78446523       5.87510911       2.81305672       0.00698948       0.00707072      -0.00083339
O        9.89313456       4.31642041      12.30047730       0.01048113       0.01111075       0.00325072
O       10.17832276       2.84859079      10.65736975       0.00465584       0.01647711      -0.00211915
O        8.67540909       4.49282709      10.42138567       0.00152904       0.01246905       0.01238114
C       10.82830584       3.35547465      12.83303136       0.01091394       0.00869200      -0.00240099
C       11.21397312       2.53886208      11.60392195       0.00811523       0.01379386      -0.00638929
C        9.51692763       3.93600380      11.07011599       0.00230408       0.01479784       0.00302675
H       10.31227429       2.78629491      13.60157806       0.01189241       0.00565493      -0.00408420
H       11.67248451       3.90029642      13.24992718       0.01202765       0.00621149      -0.00178631
H       12.15720017       2.88312547      11.17763067       0.00666648       0.01564248      -0.00757691
H       11.20336132       1.46476968      11.76779849       0.00928320       0.01348484      -0.00991575
O       10.58335260       5.62510782       8.31870288      -0.00090975      -0.01496187      -0.02171585
O       12.20692384       4.13656830       8.57567611       0.00777450      -0.00062990       0.00217453
O       11.77743540       5.60339891      10.22375890      -0.00212944       0.01804775      -0.02056146
C       10.37820058       4.64174670       7.27228053       0.00777429      -0.02917208      -0.00997130
C       11.71224832       3.94237708       7.21595773       0.01208788      -0.02244532       0.00594521
C       11.54271263       5.16131480       9.13120794       0.00040679       0.00263357      -0.01421034
H       10.08113319       5.13639171       6.35303521       0.00758904      -0.03798304      -0.01449364
H        9.58577917       3.97390659       7.61422131       0.01053232      -0.02940658      -0.00438982
H       11.64068180       2.88577401       7.00507352       0.02168348      -0.02666634       0.02864589
H       12.39786605       4.42549459       6.51897431       0.01042411      -0.02984065       0.00051045
O        5.19017111      12.04839158      10.51256785       0.00718765      -0.02084543      -0.00580010
O        4.85602559      12.12853887      12.70125200       0.00707382      -0.00651562      -0.00671420
O        3.39672685      13.12052308      11.32894895       0.01157472      -0.00572449      -0.01261403
C        6.31006482      11.33255150      11.06428765       0.01050749      -0.01211795      -0.00147307
C        6.16153950      11.52362334      12.57355214       0.00388193      -0.01330856      -0.00187135
C        4.40430033      12.48204471      11.49602477       0.01265618      -0.01230359      -0.00773380
H        7.21721799      11.78437327      10.67346267       0.00866500      -0.00454600       0.00248685
H        6.22750526      10.29192517      10.75274298       0.02059312      -0.01255986      -0.00230122
H        6.15332730      10.59818206      13.14203401      -0.00338334      -0.01411593      -0.00303546
H        6.89797314      12.21071470      12.98519692       0.00554603      -0.01737744       0.00202921
O        2.86454253      10.35252882       1.75661349      -0.01120546      -0.00754257      -0.00660617
O        4.85103291       9.46223256       1.32481510      -0.01152017      -0.01194629       0.00316820
O        4.73858494      11.47989928       2.30065571      -0.01094985      -0.00340194      -0.01243898
C        2.60286800       8.98338701       1.36341805      -0.01217711      -0.01054334       0.00487018
C        3.89135141       8.59553894       0.66880774      -0.01132020      -0.01808599       0.01097780
C        4.18697918      10.51886591       1.84288568      -0.01281378      -0.01021278      -0.00749633
H        1.73458477       8.97314921       0.71283002      -0.01158810      -0.01577104       0.00337431
H        2.41794140       8.40726408       2.27030644      -0.01404503      -0.00207096       0.00992435
H        4.19271775       7.56300442       0.80337339      -0.01129362      -0.01667690       0.02182286
H        3.87754995       8.84228931      -0.39582329      -0.00969758      -0.02989167       0.00852150
O        7.91940559       2.18009748      12.69751541       0.01155776       0.01074708      -0.02276029
O        6.84336117       0.90836214      11.23529909      -0.01831129      -0.00673252       0.01558495
O        8.82182273       0.23055293      12.03472111      -0.01109171      -0.00397253      -0.00417559
C        6.72977942       2.94652133      12.38199283       0.00309943       0.00427908      -0.00352266
C        5.98658852       2.06073193      11.38446304       0.00178069       0.00988508      -0.00692260
C        7.94366465       1.04933688      11.99129879      -0.00437284      -0.00211531      -0.00367917
H        7.04104284       3.89081664      11.94793092      -0.00814737       0.01134127       0.00466332
H        6.17900456       3.12717955      13.29799977       0.01025206      -0.01119331       0.00358087
H        5.03366514       1.71753729      11.77302555      -0.00948471       0.02996175      -0.01830058
H        5.86334048       2.52773529      10.41266064       0.02441112       0.00283119      -0.01281512
O        4.30122527      10.51883653       7.22014349       0.00149815       0.00262842       0.00926833
O        3.14466656      10.44188563       9.11852205      -0.02259855       0.00872782      -0.00530361
O        3.39677683      12.40966129       8.04166872      -0.00279684       0.00766063      -0.00415828
C        4.10575265       9.11445545       7.49481093      -0.00809817       0.00361121       0.00618762
C        3.72490812       9.12893919       8.96496469      -0.02555849       0.00726959       0.00120121
C        3.59012337      11.23353691       8.12356254      -0.00721945       0.00279748       0.00025903
H        5.03605492       8.58821063       7.29327890      -0.00740379      -0.00032528       0.01837870
H        3.31626187       8.75451592       6.83428796      -0.00121397       0.00389467      -0.00291109
H        2.99615109       8.38594393       9.27787814      -0.02969787       0.01009843      -0.00575092
H        4.60527187       9.05752606       9.60925621      -0.03595155       0.00074470       0.01346394
O        9.92218239       8.08985023       9.99247643       0.01859364       0.00691988       0.00009752
O       11.54233541       8.25343032      11.50598007       0.01060017       0.01200387       0.00827393
O       11.95343173       8.82035010       9.36648161       0.01784021       0.00981829       0.00578398
C        9.33152213       7.59204375      11.20415638       0.01237130       0.00973425      -0.00362481
C       10.52397002       7.48026627      12.15359885       0.00741497       0.00984028       0.00127545
C       11.21551545       8.40123265      10.20752826       0.01474440       0.00860672       0.00836086
H        8.85830365       6.63597653      10.99086293       0.01100077       0.01090860      -0.00507966
H        8.58458931       8.31673778      11.54051967       0.01198831       0.01095390      -0.00804013
H       10.33770043       7.91707895      13.13230965       0.00069238       0.00877900      -0.00006139
H       10.87721436       6.45915539      12.25024937       0.00805344       0.01026303       0.00024362
O        9.28025621      12.25902729       1.23715446       0.00504407       0.01456043       0.01464802
O        9.77091391      10.56798992       2.59653742      -0.00335780       0.00512750       0.00241767
O        8.35148500      12.18896284       3.28492115      -0.00187182       0.00268975       0.01021826
C       10.05723803      11.34030419       0.44606292       0.00339356       0.01767612       0.00922102
C       10.71823823      10.48485502       1.51219109      -0.00198668       0.00897023       0.00368221
C        9.07048927      11.72546287       2.45454832       0.00854668       0.00198820      -0.00162238
H       10.73470346      11.90847431      -0.18308127       0.00752836       0.01845843       0.01137140
H        9.37316632      10.76291815      -0.18285394       0.00355867       0.02332878       0.00204082
H       10.83916111       9.44059339       1.23647830      -0.00318013       0.00899139      -0.00445091
H       11.66872218      10.89103674       1.85990632       0.00098473       0.00208089       0.00640404
O        8.86757789       0.69845794       6.46758167      -0.00548913      -0.00602961       0.00399700
O        8.23208727       0.98706850       8.57709355      -0.01549852       0.00167204      -0.00037290
O       10.41312103       1.12269248       8.04764534      -0.01428854      -0.00314917       0.00950855
C        7.43064254       0.66479163       6.42106917      -0.00515473      -0.00391625      -0.00296211
C        7.03491057       0.57202718       7.89255969      -0.01264155       0.00025456      -0.00479084
C        9.27518318       0.96383149       7.71515016      -0.01008308      -0.00238482       0.00552952
H        7.13599187      -0.19747507       5.82798358      -0.00306747      -0.00511944      -0.00213347
H        7.09149511       1.57577991       5.93053874      -0.00126679      -0.00482738      -0.00706546
H        6.22293408       1.23627010       8.17584352      -0.01370311       0.00135729      -0.01066607
H        6.79467068      -0.44635226       8.20281642      -0.01467506       0.00151765      -0.00299507
O        6.24848099       6.06219398       8.22148290       0.00332467       0.00581317      -0.00651136
O        6.56294989       3.86689844       8.22305926      -0.00447382       0.00503979       0.01457560
O        5.69858106       4.87578424      10.03758568      -0.00986856       0.02379868       0.00139058
C        6.85515355       5.77914249       6.93865348       0.01152174      -0.00766593       0.00011149
C        6.80314455       4.26392120       6.85434802       0.00301233      -0.00761569       0.01251742
C        6.14092011       4.92572019       8.92214904      -0.00391728       0.01267084       0.00283033
H        7.86996964       6.17188779       6.94051445       0.01358646      -0.01362641       0.00539656
H        6.26476667       6.26121900       6.16880565       0.02056628      -0.01035891      -0.00833797
H        5.96593825       3.90848948       6.25342705       0.00349686      -0.00780241       0.01223537
H        7.72831441       3.83508103       6.48524164       0.00207031      -0.01624106       0.02133779
O        3.69143442       4.46578231       7.64800273       0.00263044       0.00618811      -0.00480014
O        1.79300097       3.95479492       8.66245663       0.00442371       0.00111121      -0.00436465
O        3.44334261       2.45838500       8.65626041       0.00625473       0.00175658      -0.01165540
C        2.97405549       5.73076356       7.77737323       0.00153735       0.00488031       0.00045498
C        1.56549901       5.29332840       8.13328440       0.00213122       0.00150189      -0.00282397
C        3.02003895       3.54592361       8.33869681       0.00363164       0.00478455      -0.00780918
H        3.05033775       6.24972337       6.82689999       0.00202643       0.00922394       0.00284365
H        3.44027875       6.27090376       8.59774973       0.00049402       0.00218865       0.00301051
H        1.12843669       5.88148165       8.93330134      -0.00089091      -0.00081140      -0.00284404
H        0.91768746       5.19906702       7.26742393       0.00418961       0.00121664      -0.00441256
O       12.10739148      12.13227509       8.56086046       0.01999673       0.01614104       0.01410570
O       11.26537936      12.55108058      10.56030298       0.00516255       0.01382452       0.00755699
O       13.25799523      13.40021266      10.00595138       0.00344187       0.02512726       0.01811430
C       10.79871550      11.51506882       8.50946576       0.02359703       0.01001912       0.00600785
C       10.21055709      11.83266746       9.88377894       0.01325458       0.00728753       0.00213987
C       12.27873646      12.74516512       9.71574809       0.00684148       0.01867592       0.01300388
H       10.94399113      10.45298485       8.34221040       0.03208186       0.01115960       0.00810639
H       10.26350799      11.96293854       7.67830119       0.02852267       0.00832722       0.00213701
H        9.34916453      12.49409388       9.85688509       0.00925535       0.00171968      -0.00392942
H        9.98882368      10.93809677      10.46530020       0.01521085       0.00626251       0.00100246
O        6.89877207       7.77668288       4.50000556       0.00071391       0.01019220      -0.00144073
O        5.30307731       9.31892958       4.51142987      -0.00894655      -0.00006716       0.00154914
O        4.74157944       7.14306928       4.45562148       0.00635892      -0.00228930      -0.00366871
C        7.56879460       9.01228251       4.83371302      -0.00679743       0.01381512      -0.00052860
C        6.54593530      10.05201493       4.41639478      -0.01430683       0.00776917       0.00279681
C        5.56953103       8.01285267       4.47359900      -0.00173485      -0.00031251      -0.00123255
H        8.50658863       9.06699444       4.29073569      -0.00838512       0.02122274      -0.00213876
H        7.77618715       9.01191454       5.90534777      -0.00520109       0.01340414      -0.00096488
H        6.48588622      10.91169905       5.07488418      -0.01957152       0.00547051       0.00531587
H        6.66028564      10.38836566       3.39015063      -0.01678503       0.01123388       0.00345242
O        1.94940416       5.37332569       2.73286414      -0.02660790      -0.01868095      -0.00275242
O        2.01308132       5.07215609       4.93116974      -0.00200635       0.00525481      -0.00087521
O        0.23412005       6.08696902       4.00716858      -0.01725900      -0.01488942       0.00729054
C        3.27445036       4.85052243       2.98822978      -0.01831546      -0.00030535      -0.00828367
C        3.19794043       4.41570834       4.44505856      -0.00788954       0.00009814      -0.00870156
C        1.29959357       5.56105687       3.89593139      -0.01625568      -0.00962368       0.00164792
H        3.99557348       5.64402347       2.83013796      -0.02992809       0.00962627      -0.01076214
H        3.46157680       4.04309524       2.28746410      -0.00986031       0.00274178      -0.00907397
H        3.05902852       3.34301976       4.57761661      -0.01199466       0.00068137      -0.00854144
H        4.04502494       4.76783369       5.02554225      -0.00266650      -0.00340599      -0.01458442
O        2.11810322      12.02060674       4.52894179      -0.01039495       0.00340864      -0.00641136
O        1.17471786      11.06898828       6.30385891       0.00042422       0.00581214      -0.00089085
O        2.19736837       9.77914507       4.77530485      -0.00898612       0.01126361      -0.00128648
C        1.68645040      13.11968884       5.36082656      -0.00717470       0.00461659      -0.00699598
C        0.75675468      12.45131733       6.35827747       0.00116247       0.00548232       0.00146067
C        1.86083914      10.86089811       5.16353079      -0.00517564       0.00142860      -0.00494288
H        1.18319848      13.85539235       4.73376046      -0.01258662       0.00247642      -0.00540200
H        2.56626872      13.54558311       5.84503024      -0.00540844       0.00902879      -0.01342192
H        0.88660778      12.80213409       7.37533269       0.01012354       0.00686477      -0.00009573
H       -0.29082509      12.50218016       6.06579373      -0.00148863       0.00633969       0.01055551
O       10.68059611       9.38095538       5.76687870       0.00629826      -0.00259998      -0.00051078
O       12.28418242      10.16554782       4.44270478       0.00427207      -0.00427213      -0.00321104
O       10.78404242      11.58543708       5.32876193       0.00964582      -0.00131857       0.00205436
C       11.54689157       8.24364386       5.54823379       0.00555636      -0.00303498      -0.00194705
C       12.51429657       8.73918771       4.47599285      -0.00018749      -0.00494373      -0.00739253
C       11.21105374      10.47816118       5.19096121       0.00813299      -0.00538743      -0.00084056
H       10.93880882       7.40208165       5.22261842       0.00430575      -0.00419492       0.00350042
H       12.02952442       8.01068104       6.49633004       0.01048693      -0.00099242      -0.00393862
H       13.55898084       8.57669552       4.71597373       0.00081944      -0.00884745      -0.01434983
H       12.30143991       8.32799158       3.49071087      -0.00854686      -0.00292750      -0.00656289
