200
Lattice="14.200286473077036 0.0 0.0 0.0 14.200286473077036 0.0 0.0 0.0 14.200286473077036" Properties=species:S:1:pos:R:3:forces:R:3 energy=-100642.328125 stress="0.0002542512374930084 0.00046299153473228216 -3.022742657776689e-05 0.00046299153473228216 -0.00022279108816292137 -0.0001271310175070539 -3.022742657776689e-05 -0.0001271310175070539 -0.0003974445862695575" pbc="T T T"
Be      13.66203931      13.10807634       0.13175885      -0.00913560       0.02400970      -0.00132474
O        7.63361718      13.81079641      13.72350946      -0.02129253      -0.01485670       0.03066683
H        7.69797511      14.15388130      14.61928653      -0.00481190       0.00221127       0.02222824
O       13.22367991      13.75058824      13.18068127      -0.01494095       0.00277764       0.01044437
H       12.62666164      13.55595280      12.46414168       0.01693052      -0.03735614      -0.00220644
C       13.54764775       7.35294915      11.81915425       0.00119440      -0.00312999       0.00238187
C       13.64300206       7.88771320      10.53367458       0.00063974      -0.00069584       0.00329271
C       13.78719842       8.19466280      12.90429312       0.00692101      -0.00719742       0.00360581
C       13.23159869       5.90090130      12.02401600      -0.00362353      -0.00262076      -0.00086861
C       13.97791968       9.22168186      10.33605343       0.00641287      -0.00119074       0.00617127
C       14.13445856       9.52577141      12.70808867       0.01308178      -0.00801995       0.00666376
C       14.23134803      10.04930854      11.42488498       0.01279028      -0.00575899       0.00755746
H       13.44193922       7.24814915       9.68221969      -0.00361149       0.00266058       0.00218917
H       13.70052899       7.79788249      13.91041934       0.00701434      -0.00908898       0.00292045
H       12.75738870       5.73136016      12.99095249      -0.00471958      -0.00313610      -0.00142661
H       12.57195438       5.52332430      11.24234531      -0.00398554       0.00076653      -0.00207771
H       14.14392795       5.29810772      11.99952895      -0.00527403      -0.00516677      -0.00133352
H       14.04329072       9.61845258       9.32911399       0.00645235       0.00059854       0.00697242
H       14.35238812      10.15299746      13.56511745       0.01799902      -0.01142044       0.00765163
H       14.51481137      11.08298620      11.27117427       0.01814177      -0.00668558       0.00935024
C        3.32361490       8.29153591       6.51167705       0.00275207      -0.00470987       0.00458477
C        4.58737901       8.72486084       6.11144671       0.00420249      -0.00688450       0.00708545
C        2.21349593       9.03508207       6.11163315       0.00474104      -0.00289111       0.00212708
C        3.15924477       7.06417345       7.35916586      -0.00102101      -0.00414571       0.00447953
C        4.74026501       9.88055634       5.35593595       0.00769185      -0.00761142       0.00651539
C        2.36125457      10.19308355       5.35776735       0.00817018      -0.00384499       0.00133649
C        3.62804366      10.62656899       4.98815685       0.00960861      -0.00644301       0.00332449
H        5.46019123       8.14539974       6.39190311       0.00277178      -0.00808404       0.00911242
H        1.22256123       8.69149782       6.39170709       0.00371036      -0.00124113       0.00017373
H        2.21030172       6.56518556       7.15719484      -0.00176936      -0.00221152       0.00311567
H        3.96649537       6.35132276       7.18536168      -0.00227773      -0.00587837       0.00563562
H        3.16856286       7.31878327       8.42243655      -0.00193004      -0.00404941       0.00440168
H        5.72951141      10.20262019       5.05340333       0.00864622      -0.00944690       0.00829986
H        1.48764508      10.76036406       5.06024644       0.00976253      -0.00280764      -0.00119789
H        3.74473545      11.53026222       4.40533828       0.01230804      -0.00757346       0.00216596
C        9.89411869       8.13436866       0.87309041       0.00043143       0.00653756       0.00026792
C        8.50004543       8.12260232       0.93211506       0.00051960       0.01073308       0.00238875
C       10.53002948       9.34670592       0.60295004       0.00331640       0.00464150      -0.00178747
C       10.68320176       6.86925379       1.05676729      -0.00254534       0.00476509       0.00070406
C        7.76217106       9.28302972       0.72202819       0.00355826       0.01254428       0.00322970
C        9.79369094      10.50874347       0.39867629       0.00608937       0.00659223      -0.00075041
C        8.40530094      10.48816334       0.45715757       0.00617087       0.01098871       0.00190813
H        7.99055119       7.18629174       1.13621724      -0.00187620       0.01228863       0.00391312
H       11.61375851       9.37013229       0.54233702       0.00329955       0.00162619      -0.00357216
H       11.69625457       7.08122278       1.40141897      -0.00173680       0.00265041      -0.00053725
H       10.21261320       6.20228279       1.78021025      -0.00354567       0.00689277       0.00206104
H       10.76296515       6.31868079       0.11472297      -0.00484946       0.00335677       0.00137317
H        6.67899618       9.23939902       0.74759490       0.00345591       0.01556401       0.00525732
H       10.29004302      11.44740170       0.17680619       0.00863761       0.00505838      -0.00159729
H        7.85790489      11.40807342       0.26676633       0.00843051       0.01329467       0.00412915
C       11.90758555       1.65529056       2.00882430       0.00043353      -0.00647382       0.00001363
C       12.54537636       1.39578069       3.22313307       0.00404828      -0.00647303      -0.00201192
C       12.21647281       2.84787236       1.34736110       0.00025249      -0.00766908      -0.00229411
C       10.88613211       0.70007494       1.46249816      -0.00220981      -0.00567187       0.00339027
C       13.43578851       2.30753184       3.78116188       0.00702780      -0.00708095      -0.00544082
C       13.10936167       3.75781543       1.89867435       0.00273335      -0.00787497      -0.00515255
C       13.71746248       3.49751453       3.12273885       0.00556970      -0.00771946      -0.00671932
H       12.32892358       0.46852469       3.74094413       0.00626563      -0.00682151      -0.00161970
H       11.75019753       3.06192328       0.39316265      -0.00144973      -0.00825404      -0.00130329
H       10.93551529       0.61459468       0.37833281      -0.00396882      -0.00683439       0.00350878
H       10.99184593      -0.29424718       1.90184995      -0.00271967      -0.00529978       0.00426662
H        9.87204373       1.03730283       1.69416934      -0.00118941      -0.00381982       0.00535791
H       13.90721334       2.08758980       4.73165487       0.01113550      -0.00802603      -0.00778346
H       13.33856478       4.67226613       1.36401401       0.00186703      -0.00835091      -0.00622328
H       14.41620003       4.20661126       3.54856567       0.00710484      -0.00775392      -0.00909615
C        7.60249144       2.89828858       6.26661823      -0.00526915       0.00190194      -0.00341629
C        8.53947751       2.38315064       5.37164452      -0.00343550       0.00301875      -0.00233269
C        7.65163125       2.47649710       7.59541633      -0.00753307       0.00041889      -0.00388348
C        6.56927018       3.88867515       5.81323054      -0.00488570       0.00183147      -0.00441655
C        9.49430115       1.46550279       5.79235927      -0.00380485       0.00309726      -0.00154481
C        8.60882453       1.56497766       8.02223360      -0.00806377       0.00045492      -0.00293007
C        9.53266132       1.05156912       7.11962781      -0.00596642       0.00172435      -0.00182297
H        8.52745873       2.71258476       4.33816493      -0.00164942       0.00426845      -0.00189727
H        6.94790482       2.88038768       8.31305366      -0.00951890      -0.00100822      -0.00492303
H        6.26490003       4.54032077       6.63407719      -0.00777505       0.00014957      -0.00412729
H        6.95170856       4.51145813       5.00369472      -0.00357071       0.00369622      -0.00233142
H        5.67138068       3.38586121       5.44313516      -0.00325587       0.00133118      -0.00764732
H       10.21659019       1.08936489       5.07789223      -0.00180549       0.00447657      -0.00039315
H        8.63566391       1.26645419       9.06332808      -0.01065717      -0.00182124      -0.00353129
H       10.27413431       0.33601761       7.45174269      -0.00620312       0.00202563      -0.00110705
C        5.36901912       3.20724217       1.23509929       0.00243834      -0.00183978      -0.00195394
C        4.50860626       3.77507552       0.29808269       0.00439587      -0.00699612      -0.00638530
C        4.82960537       2.35676591       2.20181476       0.00169989       0.00871569       0.00565109
C        6.83448797       3.52666397       1.23409865       0.00395575      -0.00759419      -0.00715178
C        3.14329268       3.51756783       0.33378505       0.00215018      -0.00357840      -0.00317466
C        3.46636888       2.09980993       2.24408635      -0.00068754       0.01276430       0.00859942
C        2.61589008       2.68241166       1.30958979       0.00219326       0.00714754       0.00375412
H        4.91562387       4.43503360      -0.45911810       0.00487678      -0.01505506      -0.01193712
H        5.48984235       1.88800813       2.92400586      -0.00002292       0.01296492       0.00928714
H        7.43499348       2.61696474       1.29250136      -0.00016091      -0.01068753      -0.01341397
H        7.12359878       4.06111692       0.33005040       0.00200202      -0.00584899      -0.00659607
H        7.09235519       4.14983493       2.09645615       0.01063683      -0.01210102      -0.00614211
H        2.48834134       3.98087765      -0.39440639       0.00373146      -0.00783141      -0.00699847
H        3.06683363       1.43305974       2.99893784      -0.00171202       0.02107907       0.01449073
H        1.54975260       2.49355825       1.34803653       0.00075826       0.00989873       0.00600891
C        8.51702577       3.05465242      12.06556825      -0.00493609      -0.00986069       0.00001524
C        8.89560437       4.29406192      11.54557268      -0.00401679      -0.01134188      -0.00273567
C        7.23562222       2.57274534      11.79098974      -0.00669761      -0.00765875       0.00431640
C        9.44239954       2.25869292      12.93243305      -0.00400981      -0.01009363      -0.00110680
C        8.01811096       5.04198319      10.77271185      -0.00510626      -0.01052073      -0.00133255
C        6.35542404       3.32250176      11.01797104      -0.00736406      -0.00699364       0.00555198
C        6.74109577       4.55766569      10.50742686      -0.00658460      -0.00864296       0.00304451
H        9.88979151       4.67767739      11.75171259      -0.00285545      -0.01296492      -0.00617158
H        6.95052253       1.60947189      12.20759056      -0.00796073      -0.00597650       0.00699115
H        9.01986295       1.26591901      13.13818167      -0.00451496      -0.00850654       0.00251471
H       10.42998570       2.15688465      12.47288307      -0.00567611      -0.01349146      -0.00358491
H        9.58658126       2.76580919      13.89112546      -0.00017194      -0.00819018      -0.00270417
H        8.33589733       5.99858976      10.37586183      -0.00447487      -0.01167969      -0.00335482
H        5.36232929       2.94013207      10.81122636      -0.00877157      -0.00551753       0.00936093
H        6.05255135       5.13902417       9.90514757      -0.00734905      -0.00782987       0.00432834
C        9.62625671       7.01246848       7.67987266       0.00124589       0.00052725      -0.00172060
C       10.82747281       7.71812246       7.60253578       0.00194027      -0.00065193      -0.00185910
C        9.65339292       5.63268994       7.48383316       0.00035623       0.00032499      -0.00128310
C        8.33168142       7.72612842       7.94154826       0.00182322       0.00163877      -0.00240169
C       12.01753423       7.06112386       7.31485372       0.00140137      -0.00141823      -0.00069878
C       10.84171117       4.97101514       7.19939183       0.00004669      -0.00067171       0.00003976
C       12.03000619       5.68567789       7.10863394       0.00055352      -0.00170256       0.00050873
H       10.82981390       8.79033054       7.76616233       0.00242511      -0.00038873      -0.00281637
H        8.73608960       5.06263475       7.56361956      -0.00020239       0.00123627      -0.00210558
H        7.54524586       7.02308334       8.21682555       0.00007387       0.00198780      -0.00687723
H        8.42653246       8.46215403       8.74155347       0.00133951      -0.00172453       0.00071388
H        7.99728076       8.26622383       7.05110088       0.00473977       0.00583398      -0.00090441
H       12.94076019       7.62714623       7.25535592       0.00192368      -0.00215080      -0.00055848
H       10.83085934       3.89877142       7.04562105      -0.00078139      -0.00080916       0.00097034
H       12.95729356       5.17413159       6.88023603       0.00042478      -0.00261030       0.00166095
C        1.89958943       6.96516424       2.72771000      -0.00092462       0.00116574      -0.00253319
C        2.38425305       7.31591370       1.46569052      -0.00051230       0.00391528      -0.00156817
C        2.78878020       6.40417987       3.64281771      -0.00148061      -0.00084326      -0.00351360
C        0.46052163       7.19396272       3.09257640      -0.00139433      -0.00035718      -0.00318116
C        3.72157332       7.13460571       1.13820542      -0.00056397       0.00286922      -0.00211117
C        4.12783412       6.22091569       3.32028800      -0.00153971      -0.00174135      -0.00394028
C        4.60082944       6.59494747       2.06976425      -0.00150593      -0.00033695      -0.00348496
H        1.71204384       7.75004285       0.73347843       0.00012388       0.00624539      -0.00059994
H        2.43132208       6.12737825       4.62777958      -0.00162470      -0.00234641      -0.00394280
H        0.31222795       7.14037740       4.17121327      -0.00242605      -0.00448122      -0.00352487
H        0.11332269       8.17286779       2.75523702      -0.00147566       0.00054769      -0.00003315
H       -0.19574725       6.44949195       2.63578001      -0.00047711       0.00076768      -0.00654498
H        4.07943305       7.42512699       0.15755391      -0.00044079       0.00452755      -0.00157009
H        4.80273728       5.79362119       4.05189447      -0.00212250      -0.00396426      -0.00492293
H        5.64473836       6.45808292       1.81751366      -0.00159488      -0.00154245      -0.00397684
C        5.59487288       9.34284894      11.17760686      -0.00131080      -0.00015515      -0.00172068
C        4.43219466       9.98082092      11.60855886      -0.00105765       0.00227063      -0.00466187
C        6.80753682      10.02632211      11.28125125      -0.00034955      -0.00231566       0.00107488
C        5.54378326       7.96059029      10.59853245      -0.00270798      -0.00063092      -0.00038217
C        4.48074254      11.26864523      12.12862127       0.00032124       0.00202456      -0.00444067
C        6.85736356      11.31288840      11.80210332       0.00077675      -0.00245680       0.00144950
C        5.69344525      11.93907869      12.23154076       0.00111841      -0.00023386      -0.00088343
H        3.48087715       9.46272565      11.53672264      -0.00187449       0.00389308      -0.00638234
H        7.72428660       9.53238086      10.97538811      -0.00054278      -0.00382379       0.00305531
H        6.41251335       7.37559954      10.89885721      -0.00355431      -0.00141251       0.00070676
H        4.64904877       7.42612146      10.92022455      -0.00359233       0.00100894       0.00000695
H        5.53290397       7.99103095       9.50400970      -0.00231954      -0.00207364      -0.00041187
H        3.56609989      11.74497258      12.46112415       0.00052933       0.00366840      -0.00579747
H        7.79712421      11.83738146      11.92196021       0.00183026      -0.00472933       0.00335105
H        5.78214382      12.92448907      12.67659777       0.00152114      -0.00143033       0.00154786
C        1.79297583      12.15593316       1.41704655      -0.00073618       0.01114175       0.00774939
C        2.64877612      13.18223147       1.01626468      -0.00200056       0.00986163      -0.00012917
C        2.31869568      10.90341356       1.72982522      -0.00005444       0.01276183       0.00345165
C        0.31042653      12.40897739       1.56718692       0.00380015       0.00546908       0.00808680
C        4.02132836      12.96879778       0.95855504      -0.00180453       0.00815086      -0.00794866
C        3.69035800      10.69013417       1.66177289      -0.00126785       0.00951697      -0.00473408
C        4.54088583      11.72273999       1.28587377      -0.00128648       0.00876609      -0.00821018
H        2.25620653      14.16392948       0.77033932      -0.00130329       0.00961103      -0.00327412
H        1.67022584      10.09564586       2.05138293       0.00085425       0.01134462       0.00122220
H       -0.10218049      12.12365869       2.53929015      -0.00548194       0.00499198       0.00508529
H        0.08500888      13.51723864       1.54291722       0.00383040       0.00602505       0.00674760
H       -0.33032561      11.76170712       0.87864696       0.00276463       0.00736094       0.00185426
H        4.69063225      13.76286564       0.65056226       0.00141667       0.00659508      -0.00985081
H        4.08767276       9.71760548       1.92093639      -0.00227281       0.00806086      -0.00664058
H        5.61044765      11.56396559       1.22870643      -0.00165306       0.00822832      -0.00488986
C        3.69176139      12.46296498       8.99136771      -0.00134660       0.00962147       0.00169399
C        3.83274166      13.61673909       9.76154650      -0.00246763       0.01121725      -0.00072172
C        2.40381358      11.98399407       8.74614451      -0.00031403       0.00643875       0.00381027
C        4.89106354      11.74569173       8.45195613       0.00000820       0.01158328       0.00140055
C        2.72246706      14.27080795      10.27994202      -0.00390129       0.01078069      -0.00114255
C        1.28992785      12.63928474       9.25611373      -0.00177053       0.00608327       0.00360624
C        1.44466233      13.78428319      10.03060172      -0.00272398       0.00781949       0.00046103
H        4.82837262      13.98304451       9.98298647      -0.00350499       0.01395540      -0.00262642
H        2.28173484      11.08145178       8.15671709       0.00047467       0.00512534       0.00609454
H        5.02717194      11.95946512       7.38934237       0.00637712       0.02213794       0.00436610
H        5.79557625      12.03817209       8.98314728      -0.00209430       0.00480299       0.00869596
H        4.77505717      10.66545770       8.54503759      -0.00419796       0.01116329      -0.01046492
H        2.85582060      15.15267040      10.89475672      -0.00461610       0.01241307      -0.00346003
H        0.29772391      12.24904320       9.05887763      -0.00107260       0.00334397       0.00545868
H        0.58043662      14.29098922      10.44219157      -0.00346325       0.00771303      -0.00000095
C       11.07908046      10.95967293       5.09529596      -0.00005861      -0.00022303      -0.00283956
C       11.02731325      12.35032251       5.20613696      -0.00122522      -0.00089508       0.00082395
C       12.19176666      10.30041634       5.62207802       0.00124422      -0.00072736      -0.00618552
C        9.97249386      10.19066446       4.43581352      -0.00012392       0.00046341      -0.00370438
C       12.05831417      13.05778605       5.81598996      -0.00111768      -0.00118560       0.00139049
C       13.21166287      11.00375455       6.25139678       0.00161546      -0.00107276      -0.00586031
C       13.15709253      12.38986894       6.34130167       0.00023170      -0.00171095      -0.00204317
H       10.15876654      12.87789554       4.82699897      -0.00210249      -0.00039902       0.00306237
H       12.23969468       9.22016643       5.55354409       0.00228296      -0.00041482      -0.00878176
H        9.89663137       9.18355260       4.84802766       0.00025491      -0.00024636      -0.00534780
H        9.01312795      10.69264540       4.56370454      -0.00020233       0.00003426      -0.00259289
H       10.14070697      10.09116548       3.36015718      -0.00037387       0.00231361      -0.00384861
H       11.99850039      14.13549367       5.90499470      -0.00208220      -0.00149512       0.00385700
H       14.05026371      10.47270911       6.68357644       0.00270012      -0.00153977      -0.00843909
H       13.95429830      12.93980624       6.82524092       0.00044869      -0.00205891      -0.00167831
