196
Lattice="14.208541414287835 0.0 0.0 0.0 14.208541414287835 0.0 0.0 0.0 14.208541414287835" Properties=species:S:1:pos:R:3:forces:R:3 energy=-1047684.0625 stress="0.0002748145197983831 -0.00010650969124981202 -0.0002828810684150085 -0.00010650969124981202 -0.00036876965896226466 -0.0002919737162301317 -0.0002828810684150085 -0.0002919737162301317 0.00014882853429298848" pbc="T T T"
Bk      14.28279289      13.28103300       1.60115292       0.00231068       0.00144607      -0.00602606
B        1.36524154      14.06189731       4.16712042      -0.00311556      -0.00220703      -0.00124097
F        0.85905947      14.95039357       5.05025937      -0.00396048      -0.00357705      -0.00037181
F        0.34438292      13.02503403       3.88572102      -0.00350021      -0.00080881      -0.00554329
F        1.52214793      14.67407571       2.84786488      -0.00031556       0.00017117       0.00029051
F        2.52598598      13.47313841       4.52767969      -0.00450140      -0.00414379      -0.00016905
B       11.11542589      13.21587247      11.13946540       0.01845911       0.00605541       0.00616435
F       12.03126099      12.95276868      10.11452060       0.03069377       0.00785774       0.01689160
F       10.86229741      12.04385589      11.86497310       0.00827926       0.00423467      -0.00137407
F       11.66599856      14.18108037      12.02613883       0.00953269       0.00239527       0.01566815
F        9.92692420      13.71961060      10.59302926       0.02640748       0.01008582      -0.00579172
B        6.34849646       8.74205666      10.26723216      -0.01514093      -0.01660794       0.00426700
F        7.73075966       8.93067992      10.27995815      -0.01703012      -0.00875890      -0.02436042
F        5.82188406       9.11033584       9.02580344      -0.04315966      -0.01886857       0.01615453
F        6.05462781       7.36889061      10.48857592      -0.00329256      -0.01749802       0.00803204
F        5.75995482       9.49091902      11.30072083       0.00208592      -0.02082705       0.01608241
C       12.17391363      11.42584242       6.69360396      -0.00236089      -0.00329372       0.00701408
C       12.78333589      10.41015606       5.95387387       0.00516564       0.01166225      -0.00134261
C       10.90115013      11.19165217       7.21907606       0.01297620       0.00878243       0.01272625
C       12.85906711      12.74176090       6.91059191       0.00629687      -0.00070941       0.00764349
C       12.13390621       9.20103152       5.73244267      -0.01475408      -0.00489391      -0.00266459
C       10.24511344       9.98722199       6.99514966      -0.00354162      -0.00974653       0.00915840
C       10.85999581       8.98833758       6.24746878       0.00617100       0.01170643       0.00248551
H       13.78242713      10.57068810       5.56152949      -0.00702655       0.00317893      -0.00585349
H       10.43665437      11.95384803       7.83344220       0.00943092      -0.00409235       0.01652294
H       12.53883516      13.19510620       7.84755719       0.00894555      -0.00331977       0.01008368
H       13.94279663      12.62724299       6.92502372       0.00492655      -0.00260591       0.00393209
H       12.62792238      13.43326483       6.09503304       0.00357634       0.00148059       0.01038393
H       12.62559760       8.41644987       5.16830524      -0.00832946       0.00786769      -0.00957154
H        9.26573355       9.81750804       7.42500922       0.00752309       0.00072519       0.01411580
H       10.35818895       8.04231939       6.08899058      -0.00578369       0.00137540       0.00053503
C        3.36038210       8.79980321       5.20378276      -0.00557557       0.01318695       0.01484442
C        4.38608935       9.08523121       4.30321465       0.00253043      -0.03966425      -0.01747942
C        2.95200937       9.80046179       6.08631528      -0.00000580      -0.04121586      -0.01808164
C        2.72652766       7.44084031       5.22931748       0.00340278      -0.01075208      -0.00503320
C        4.99603466      10.33302922       4.29046691       0.00392386       0.03065316       0.01383570
C        3.55018939      11.05239749       6.06627388      -0.00091798       0.02419588       0.01285189
C        4.57816226      11.32203423       5.17285488       0.01250909      -0.02974337      -0.02474752
H        4.70186839       8.32300722       3.59903268       0.00087675       0.00014909       0.00544232
H        2.16347151       9.59341871       6.80168874       0.00084746      -0.00487976      -0.00358770
H        1.77219502       7.46442864       5.75681554       0.00214545      -0.00689975      -0.00312027
H        2.55522121       7.06662627       4.21940169       0.00351755      -0.00865295      -0.00199082
H        3.36783670       6.71920243       5.74107391       0.00244097      -0.00743204      -0.00143029
H        5.79564335      10.53547079       3.58731127       0.00274745      -0.00954134      -0.00363342
H        3.21755687      11.82398226       6.74822220       0.00444713      -0.01600714      -0.01194498
H        5.03917841      12.30071188       5.16235073       0.00622219       0.00366263       0.00017729
C       13.25109493       2.62763080       2.84182376      -0.00139038       0.00477627      -0.00734250
C       13.25352312       2.92669286       4.20192953      -0.00483274      -0.00923637      -0.01264198
C       13.61056933       3.61814673       1.93264185      -0.00384027      -0.00460930      -0.01146898
C       12.79491966       1.28014497       2.35368263      -0.00126997       0.00178535      -0.01267331
C       13.59704598       4.19673429       4.64512000       0.00019988       0.00665559      -0.00385889
C       13.94788131       4.89106738       2.37161547       0.00077548       0.01021603      -0.00002261
C       13.94135312       5.18504554       3.73003526      -0.00305837      -0.00767498      -0.00856657
H       12.99967248       2.16000089       4.92277196      -0.00277584      -0.00126938      -0.01132314
H       13.59936363       3.40764954       0.86873578      -0.00103469       0.00521990      -0.00644791
H       13.15337178       1.09857827       1.32849097       0.00335543       0.00220602      -0.01083834
H       13.10125682       0.47815206       3.03934683      -0.00490711       0.00150321      -0.01125017
H       11.70256780       1.23544148       2.30311502      -0.00100717       0.00279051      -0.01788002
H       13.58893865       4.41488740       5.70623737      -0.00215812      -0.00500445      -0.00764045
H       14.19890252       5.65077286       1.64369794      -0.00047303       0.00229518      -0.00355209
H       14.20446160       6.17528226       4.08044679      -0.00006026       0.00097644      -0.00182177
C        9.15178540       2.44713938       6.16878726      -0.01443313      -0.00503191       0.01294215
C        9.99222381       3.51921272       5.87583569       0.01066053       0.00133695       0.00455916
C        7.77871569       2.68703258       6.23648084       0.00938800      -0.00157247       0.01316620
C        9.70933958       1.07621355       6.42100946       0.00102632       0.00018027       0.01284033
C        9.48162844       4.79125553       5.65279293      -0.01424764      -0.00303486       0.00540214
C        7.26355426       3.95718884       6.01745880      -0.01191771      -0.00373233       0.01309172
C        8.11336959       5.01592600       5.72193645       0.01479433       0.00239763       0.00450730
H       11.06166659       3.35884087       5.83110685      -0.00468403      -0.00264842       0.00453198
H        7.10608918       1.86345445       6.45026062      -0.00509591      -0.00634661       0.01549091
H        9.11408627       0.30674900       5.92623189      -0.00045505      -0.00093523       0.01235125
H       10.73453659       0.99715034       6.06001263      -0.00070480      -0.00099788       0.01574435
H        9.72284639       0.83755296       7.48716805      -0.00361727       0.00048853       0.01355797
H       10.15927770       5.60520871       5.42446816       0.00165077      -0.00127964       0.00002675
H        6.19358727       4.11936995       6.05795689       0.00377336       0.00048259       0.01338603
H        7.70947122       6.00338829       5.53917584      -0.00117926      -0.00134103       0.00482292
C        8.83074358       3.97818815       2.16682236      -0.00367911       0.01070296       0.00309676
C        7.99131299       5.08598582       2.07685265      -0.01672645       0.00628406       0.00351338
C        8.26894441       2.74876412       2.50997883      -0.01530187       0.00775450       0.00894676
C       10.30309604       4.10449076       1.92928589      -0.00828502       0.00900106       0.00310027
C        6.62752782       4.97016695       2.31631933       0.00101301       0.01158638       0.00050056
C        6.91027936       2.62944025       2.75780275       0.00309566       0.00925667       0.00659113
C        6.08313047       3.74070739       2.65897989      -0.01612437       0.00601369       0.00782614
H        8.41615753       6.04676943       1.80939785      -0.00869797       0.00951028      -0.00098248
H        8.90742691       1.87374804       2.57877003      -0.00494742       0.00943993       0.00940943
H       10.67988109       3.27001361       1.33560726      -0.00872160       0.01160397      -0.00101595
H       10.55152924       5.02734765       1.40623404      -0.00815814       0.01147747       0.00604983
H       10.85202051       4.09879638       2.87414185      -0.00647151       0.00533197       0.00207877
H        5.98923855       5.84101670       2.22554551      -0.00991900       0.00728515       0.00126116
H        6.49306011       1.66374047       3.01473034      -0.00635219       0.00835706       0.01085369
H        5.01936349       3.64426640       2.83549786      -0.00404131       0.00866209       0.00645658
C        7.58857148       2.05674116      13.22015636       0.00010304       0.00532995      -0.00417896
C        6.57505988       1.32806309      13.83922042       0.00317034       0.00814924      -0.00058746
C        7.28497657       3.34420636      12.76802182       0.00127389       0.00373092      -0.01048265
C        8.95617671       1.47342001      13.03347693       0.00122416       0.00565252      -0.00330184
C        5.30130543       1.86024348      13.99959365       0.00042266       0.00896264      -0.00087571
C        6.01384606       3.88082615      12.92067905      -0.00171157       0.00366315      -0.01035764
C        5.01411157       3.13665735      13.53848057       0.00261070       0.00673381      -0.00702827
H        6.79000209       0.32591728      14.19457485       0.00243542       0.01010936       0.00407197
H        8.05800808       3.93516647      12.28865415      -0.00087418       0.00130999      -0.01333454
H        9.73587886       2.17494489      13.33627862       0.00079773       0.00652865      -0.00475258
H        9.07902429       0.55461242      13.60596990       0.00142866       0.00702864      -0.00086756
H        9.15553332       1.20949041      11.99304403       0.00152173       0.00364307      -0.00265282
H        4.53228711       1.27473966      14.49094632       0.00273634       0.01062651       0.00202097
H        5.80813919       4.88122597      12.56010905      -0.00052056       0.00239545      -0.01560959
H        4.02308274       3.55394676      13.66743734       0.00044160       0.00701420      -0.00710635
C       10.66214615       5.87516191       8.97011551       0.00497813      -0.00645515       0.00028455
C       11.96393302       6.20433082       8.58591523      -0.00634497      -0.01043308       0.00330994
C       10.37952985       4.53540705       9.24326427      -0.00296572      -0.01215750       0.00751883
C        9.60148007       6.92301415       9.08308050      -0.00289497      -0.01208913      -0.00104579
C       12.94456399       5.22671864       8.47297792       0.00568174      -0.00559299       0.00311227
C       11.35419816       3.55220386       9.13457961       0.00979636      -0.00667286       0.00713464
C       12.64454913       3.89641748       8.74526941      -0.00311562      -0.01074988       0.01033317
H       12.20739461       7.24293721       8.38999456      -0.00170455      -0.00836897      -0.00129695
H        9.37332005       4.26305355       9.54211792       0.00380774      -0.00996825       0.00565728
H        8.86865415       6.68694648       9.85117955      -0.00480063      -0.01236785      -0.00489736
H       10.01843879       7.89847425       9.32279339      -0.00364286      -0.01089776       0.00038659
H        9.04544854       7.02600781       8.14672195       0.00170283      -0.01167146      -0.00379816
H       13.95378239       5.50545186       8.19183850      -0.00111157      -0.00741710       0.00463676
H       11.11204716       2.52001952       9.35747932       0.00452246      -0.00938588       0.01234967
H       13.40968793       3.13472522       8.66388871       0.00494696      -0.00678799       0.01014535
C        2.36643233      10.26825869       1.45548751       0.00477397       0.00215808      -0.00543661
C        1.33867044       9.54947461       2.05974037       0.00951409       0.00525113      -0.00288759
C        3.32612061       9.58000833       0.71596723       0.00545871       0.00848985      -0.00961301
C        2.43369129      11.76190075       1.61130287       0.00422642       0.00405298      -0.00565945
C        1.25787445       8.17192262       1.91299047       0.01016025      -0.00106910      -0.00324848
C        3.25444132       8.20017514       0.57560201       0.00492555       0.00166545      -0.00946636
C        2.21655319       7.49157268       1.17177326       0.00948492       0.00635681      -0.00636601
H        0.59866978      10.06402256       2.66438784       0.01012126       0.00070605      -0.00049156
H        4.13823750      10.12048624       0.24406848       0.00136942       0.00592223      -0.01167090
H        2.05785505      12.29282279       0.71638045       0.00431718       0.00364459      -0.00575575
H        1.88448651      12.07149641       2.50407628       0.00300486       0.00314702      -0.00595238
H        3.45935276      12.10106804       1.75507372       0.00350878       0.00493451      -0.00461461
H        0.44460139       7.63781036       2.38675558       0.01301665       0.00095502      -0.00049251
H        4.00520224       7.68329590      -0.00839751       0.00448656       0.00697737      -0.01214313
H        2.16026167       6.41536162       1.06357278       0.00966326       0.00271648      -0.00662298
C        3.84957912      13.07090489      10.82785696       0.00798211       0.01120790       0.00854857
C        3.93957373      12.25522378       9.70211950       0.00219738      -0.01256715      -0.01353787
C        5.01724045      13.64700196      11.32531110      -0.00257790      -0.00718418      -0.01372024
C        2.54060820      13.28697984      11.53324065      -0.00086361       0.00298487      -0.01076470
C        5.16777023      12.00692902       9.10322961       0.00773589       0.00294591       0.01249321
C        6.24820574      13.40284700      10.72992065       0.00359297       0.00829764       0.01258202
C        6.32502381      12.57588304       9.61827029      -0.00010461      -0.01690862      -0.01280122
H        3.04445322      11.78192821       9.31363944       0.00580721      -0.00162219      -0.00013923
H        4.96166930      14.29424050      12.18967922       0.00076498       0.00656165      -0.00231571
H        2.51646889      14.25634634      12.03447393       0.00107196       0.00619516      -0.01065660
H        1.69356582      13.22423280      10.85131465       0.00249024       0.00511297      -0.01082811
H        2.38976522      12.51649215      12.29738068      -0.00391982       0.00625952      -0.00785016
H        5.22944138      11.32858563       8.26593967       0.00459988      -0.01149881      -0.00053799
H        7.15118298      13.84239771      11.13570974      -0.00082861      -0.00294634      -0.00247701
H        7.28632731      12.35409507       9.17498539       0.00283308      -0.00568178       0.00482549
C        2.27677544       7.91106331       9.69487842      -0.00544871       0.00104067      -0.00293034
C        2.86576703       8.56231029      10.77856933      -0.01154226       0.00433294      -0.00184011
C        1.02927675       8.35458922       9.25347101      -0.00645795       0.00078948      -0.00692850
C        2.99235986       6.77098909       9.03404040      -0.00308883       0.00199580      -0.00035837
C        2.22165676       9.62000099      11.40339383      -0.01129987       0.00228444      -0.00591084
C        0.37895647       9.41360847       9.87849195      -0.00708285      -0.00030528      -0.01117292
C        0.97420051      10.04772014      10.96244986      -0.01241033       0.00408757      -0.00974831
H        3.85576172       8.27138408      11.10370731      -0.01077831       0.00384005       0.00206790
H        0.56185962       7.87186813       8.40154561      -0.00282375      -0.00194283      -0.00734539
H        2.61187569       6.59631794       8.02859546      -0.00677460      -0.00576396       0.00246383
H        4.06389687       6.96837634       8.98780881      -0.00447783       0.00822750      -0.00678804
H        2.85827955       5.84751072       9.60398849       0.00582892       0.00438094       0.00541198
H        2.72066587      10.12290127      12.22148825      -0.01558837       0.00475334      -0.00410150
H       -0.58650226       9.75073734       9.52139941      -0.00725429      -0.00051837      -0.01411167
H        0.46927118      10.88030372      11.43721751      -0.01275785       0.00327519      -0.01333328
C        9.49027871       7.38171599      12.75160309      -0.00090394       0.00874750      -0.00164286
C       10.38212353       6.30897749      12.82712063       0.00127959       0.00071776       0.00550388
C        9.98669308       8.62786683      12.36360682       0.00237641      -0.00202993      -0.00666892
C        8.02778799       7.18192680      13.00838391       0.00074679       0.00601305       0.00151945
C       11.72517566       6.47005468      12.50916859      -0.00037017       0.00560839       0.00476056
C       11.32894739       8.79458248      12.04630048      -0.00043609       0.00342080      -0.00720745
C       12.20371280       7.71516067      12.11502789       0.00222024      -0.00457451       0.00056400
H       10.01172440       5.33090064      13.11793914      -0.00076810       0.00695526       0.00978509
H        9.31003856       9.46788087      12.27412430       0.00065736       0.00282557      -0.01188891
H        7.54792692       8.10840336      13.32299161       0.00401695       0.00623533       0.00899156
H        7.51535983       6.88697230      12.08890688      -0.00290188       0.01425023       0.00089717
H        7.85416380       6.40704967      13.75598498       0.00009981       0.00249268      -0.00355244
H       12.39382731       5.61796403      12.54345232       0.00034633       0.00124669       0.01065597
H       11.67501468       9.77635005      11.74505867       0.00252786      -0.00276929      -0.01032750
H       13.24602290       7.84027462      11.84809542       0.00137910      -0.00152279       0.00051194
C       10.38361293      11.17457110       1.47493912       0.00207433      -0.00075837       0.00495644
C       11.24554523      10.10385067       1.23084500       0.00085753      -0.00501806       0.00490588
C       10.78446425      12.45256703       1.08199719       0.00314995      -0.00450084       0.00438125
C        9.04911656      10.94133950       2.11351717       0.00295639      -0.00071830       0.00731617
C       12.47157815      10.29444417       0.60994736       0.00092161      -0.00378744       0.00345133
C       12.00419530      12.65458657       0.45196690       0.00297176      -0.00425479       0.00301470
C       12.85546705      11.56932771       0.21732794       0.00163915      -0.00765965       0.00371279
H       10.93032611       9.09958775       1.48800042      -0.00004037      -0.00270638       0.00568887
H       10.10298653      13.28587686       1.21034928       0.00434799      -0.00200690       0.00426508
H        8.38991309      11.79897149       1.98443146       0.00488403       0.00178196       0.01029451
H        8.56207773      10.06681170       1.67952089      -0.00036234       0.00186417       0.00683187
H        9.15859679      10.75767604       3.18594420       0.00470240      -0.00263146       0.00669116
H       13.10403950       9.44625408       0.38499484      -0.00037266      -0.00661807       0.00384060
H       12.22045445      13.61610027      -0.00936540       0.00406300      -0.00567588       0.00287045
H       13.75243880      11.70632557      -0.38649898       0.00192135      -0.00731933       0.00259370
