196
Lattice="13.543638163698331 0.0 0.0 0.0 13.543638163698331 0.0 0.0 0.0 13.543638163698331" Properties=species:S:1:pos:R:3:forces:R:3 energy=-1330952.375 stress="-0.0015750676393508911 -0.00012682487795245834 0.0006327180017251521 -0.00012682487795245834 -0.0012464887695387006 -0.0006386839086189866 0.0006327180017251521 -0.0006386839086189866 -0.001192442956380546" pbc="T T T"
Bk      15.24612226      13.19452348      -0.14190613      -0.01417305       0.00106877      -0.00554700
Br       2.19706585      12.05868362      10.44794955      -0.00891722       0.00094602      -0.00573180
O        0.77790500      12.17216854      11.28855258      -0.01065004      -0.00182951      -0.00874531
O        2.05034252      12.73273903       8.98964487      -0.00774402       0.00043690      -0.00655943
O        3.16725916      12.95920357      11.43723276      -0.01221418       0.00170186      -0.00400272
O        2.71383984      10.53637511      10.38636651      -0.00835881       0.00116473      -0.00612491
Br       2.58397718      12.66332927       3.47131686      -0.01165953       0.01393206      -0.00241998
O        3.73265498      13.78279897       3.53891230      -0.00221711       0.00303221      -0.01305543
O        1.55466119      13.09424060       2.22842441      -0.01101696       0.01673663      -0.00599828
O        3.14870091      11.18717888       3.13603216      -0.02375180       0.00649828      -0.00507562
O        1.71139588      12.61891978       4.82466137      -0.00440574       0.02243550      -0.00685924
Br       9.84367951      13.41047522       5.19952753       0.03397800       0.01777134       0.01324078
O        8.26275393      13.64012946       5.42495615       0.03141141       0.01151487       0.00134316
O       10.33114805      13.87937450       3.72696993       0.04309416       0.01792401       0.01590598
O       10.67707536      14.22990167       6.35790005       0.02192950       0.02256322       0.01771653
O       10.19532903      11.82740608       5.39297408       0.03731330       0.01895857       0.01776671
O       13.86601380       1.79369892      10.64230725       0.00218627      -0.00723241      -0.00998235
O       11.95516337       0.67922775      10.70149989      -0.00046223      -0.00234598      -0.01370406
O       13.17384241       0.91137960      12.58141689      -0.00824935       0.00205716      -0.00914335
C       13.27561007       1.96961188       9.32669101       0.00975120      -0.01368439      -0.01386893
C       12.26573178       0.84610060       9.28567951       0.00728202      -0.01140109      -0.01291865
C       13.00743706       1.09824414      11.39470255      -0.00307546      -0.00197719      -0.01165235
H       14.05959025       1.90031875       8.57926741       0.01388147      -0.02036574      -0.00912032
H       12.81250623       2.95877582       9.30387610       0.01236495      -0.01290894      -0.02254917
H       11.35143886       1.06774194       8.74493484       0.01115406      -0.01252817      -0.01932019
H       12.69511994      -0.08775334       8.93317663       0.00719014      -0.01448691      -0.00457548
O        8.81979143       2.82555861      13.22015134       0.00386724      -0.00969578       0.00693943
O       10.23708338       4.53690696      13.22514102       0.00551705      -0.01077260      -0.00229255
O        8.02314181       4.92397983      13.07049433       0.00628114      -0.01256740      -0.01762097
C       10.11082542       2.22947107      13.47285294       0.00356235      -0.00547576       0.02686581
C       11.06459919       3.36372515      13.11766718       0.00358260      -0.00952108       0.01706097
C        8.93640119       4.16059002      13.16975060       0.00582194      -0.01160237      -0.00553566
H       10.21709665       1.36040354      12.82922794       0.00910556      -0.01216438       0.04280123
H       10.15700979       1.93450897      14.52177486      -0.00999437       0.01755415       0.04020858
H       11.90692415       3.46186951      13.79612468       0.00229442      -0.00053048       0.01743373
H       11.42601837       3.30242603      12.08835198       0.00816051      -0.02135090       0.01696780
O        9.37362641       5.77609620       6.07599539      -0.00920284      -0.00694827       0.00060385
O       10.19516308       6.46485462       8.01738107      -0.00375262      -0.01870727       0.00216510
O        7.97776175       6.16954229       7.79472996      -0.00536501      -0.01160497       0.00511682
C       10.79921645       5.61683980       5.95056706      -0.00980149      -0.01148647      -0.00244147
C       11.31852322       6.45052296       7.11103494      -0.00563857      -0.01749039      -0.00067723
C        9.07903652       6.14313300       7.32347206      -0.00505352      -0.01259454       0.00241935
H       11.08973690       6.00137121       4.97906081      -0.01010923      -0.00911507      -0.00135112
H       11.02622374       4.55278356       6.02929243      -0.01355114      -0.01264477      -0.00643452
H       12.15892328       6.01233969       7.63778024      -0.00522307      -0.02115087      -0.00448126
H       11.53289848       7.47576317       6.82135950      -0.00443431      -0.01687306       0.00307022
O        5.70684878      11.41766926      10.20391522      -0.00225422       0.01426068       0.01211106
O        7.87193333      11.80291659      10.53536044      -0.00321075       0.01567666       0.01437721
O        6.66047149      13.24156859       9.30204375      -0.00730780       0.02740145       0.03234333
C        6.10588347      10.42604615      11.16390967       0.00061911       0.00714688       0.00391201
C        7.62946080      10.53579032      11.17471913       0.00015080       0.00739478      -0.00042807
C        6.73937641      12.24326967       9.94940098      -0.00470548       0.01972902       0.02085233
H        5.73090898       9.46065434      10.83266193       0.00020821       0.00948870      -0.00206694
H        5.67170426      10.68753706      12.12515122       0.00352409      -0.00028186       0.00722826
H        8.05112035      10.56563876      12.17612009       0.00459881      -0.00486169      -0.00228816
H        8.11658486       9.75942271      10.59086416      -0.00267632       0.01462966      -0.01222447
O        2.48901038      10.77595450       0.19855489      -0.00621407       0.00442681      -0.00772204
O        4.59851125      10.26929399       0.61739518      -0.00641748       0.01127543       0.00066842
O        3.94599174      12.41982929       0.49133780      -0.01378331       0.00908488      -0.00200509
C        2.46527095       9.32479917       0.38599860      -0.00218379       0.00348437      -0.01481288
C        3.94986673       8.98201679       0.39949333      -0.00153750       0.00869578      -0.00054410
C        3.72773732      11.22609083       0.45954317      -0.00909689       0.00857252      -0.00302967
H        1.93596577       8.90334412      -0.46087254       0.00988132       0.00473122      -0.02277017
H        1.94790204       9.13481475       1.32301969      -0.01160845      -0.00323641      -0.02161807
H        4.26133510       8.33334676       1.21251766      -0.00736845       0.01158085       0.00378755
H        4.30220372       8.59128142      -0.55133501       0.00745133       0.00550985       0.00431567
O        4.77885795       2.08755899      13.02252240      -0.00105033      -0.01397851       0.00993012
O        3.50836600       3.82343547      12.51803606       0.00850666      -0.00995782       0.00109860
O        2.55672425       1.87074427      13.02809225      -0.00156173      -0.00406685       0.00538864
C        5.73885103       3.16922465      12.83149868       0.00501215      -0.02036241       0.00452521
C        4.86542269       4.36287045      12.45461303       0.01107608      -0.01495481       0.00859757
C        3.56221470       2.54134707      12.85609310       0.00161126      -0.00929642       0.00578248
H        6.41108821       2.87513728      12.03521686      -0.00063410      -0.02512988       0.00146535
H        6.27903845       3.29320146      13.76218701       0.01025024      -0.02300444       0.00170058
H        4.92360167       5.19295577      13.15229046       0.01269001      -0.01845595       0.01279268
H        5.02910886       4.69913361      11.43905329       0.01619876      -0.00883422       0.01156980
O        5.71304475      10.93350612       7.25935099       0.00572262       0.01158619       0.00813699
O        4.66367659       9.10386008       7.95316951      -0.00090307       0.00932550      -0.00885069
O        6.87492180       9.31811456       8.29882769      -0.00379443       0.00470740       0.00692081
C        4.31710335      11.22522288       7.06197840       0.00804193       0.01180172      -0.00777900
C        3.64031571       9.87659554       7.29109886       0.00369027       0.01326603      -0.01132470
C        5.84307592       9.75961864       7.86885496       0.00030279       0.00782058       0.00262594
H        4.18494509      11.60536016       6.05274002       0.01944578       0.00817592      -0.01072955
H        4.02331689      11.97817112       7.78995769       0.00077882       0.01456439      -0.01367149
H        2.77108005       9.92718316       7.94233853       0.00211433       0.01508508      -0.01360455
H        3.38145448       9.37728695       6.35586162       0.00448138       0.01501074      -0.01203427
O        6.26707670       7.02773349      11.59918060      -0.00488472      -0.00153670      -0.00103584
O        8.40366200       7.56366468      11.88254319      -0.00721231       0.00656407       0.00055042
O        6.89327472       8.15534959      13.43217823      -0.00957716      -0.00401235       0.00198209
C        6.89490791       6.65890848      10.34893373      -0.00229853      -0.00136797       0.00034946
C        8.38014770       6.83525855      10.64024309      -0.00326526       0.00871184      -0.00060461
C        7.16593811       7.61094522      12.39911158      -0.00752638      -0.00002363       0.00046498
H        6.53690443       7.33057570       9.57324291      -0.00664939      -0.00610134      -0.00147215
H        6.62228828       5.63527145      10.11640065       0.00414224      -0.00373608       0.00368291
H        8.89447380       5.88730985      10.78838491       0.00379874       0.01245320      -0.00270765
H        8.88938850       7.42574345       9.88607853      -0.00807099       0.01380265       0.00007436
O       10.11252686       9.43971489       2.72188329       0.00265718      -0.00834662      -0.01205215
O        9.63220164       7.29956778       3.04953159       0.00546989      -0.00818542      -0.00732759
O       10.63774054       8.46736099       4.68056013       0.01691854      -0.00665354      -0.01513004
C        9.39495871       9.04545660       1.52675643      -0.00569902      -0.00887865      -0.00659406
C        9.32234797       7.52863452       1.65517683      -0.00687596      -0.00865817      -0.00473705
C       10.16490723       8.41682719       3.57576104       0.00885084      -0.00817785      -0.01218909
H        9.96916201       9.38683826       0.66786557      -0.01076975      -0.00994883      -0.01031607
H        8.41845858       9.52360521       1.54019865      -0.00477493      -0.00727832      -0.00160827
H        8.33725875       7.12739974       1.44666483      -0.00975269      -0.00650637       0.00412499
H       10.07282577       7.00898782       1.05914943      -0.01281705      -0.00970230      -0.01107308
O        6.93329083       2.27417707       8.12659906       0.00988021       0.01853183      -0.01252297
O        7.96997401       3.33493564       9.77125943       0.01350412      -0.01281070       0.00475853
O        5.72149953       3.33248374       9.68630788       0.01413620       0.01113555      -0.00424242
C        8.32290146       1.87146764       8.01133046       0.00585925       0.00642103      -0.01274154
C        9.00140797       2.94650381       8.83268063       0.01436570      -0.01401910       0.00684337
C        6.78085741       2.99272857       9.22532166       0.01280689       0.00634209      -0.00383277
H        8.59103262       1.84728700       6.96258020       0.00993000       0.01975456      -0.01160175
H        8.39925254       0.87823842       8.44768138      -0.00569001      -0.00093287      -0.02816337
H        9.85981169       2.60574647       9.40611938       0.00521398      -0.03430301       0.00792073
H        9.26087071       3.82262390       8.23817273       0.03144495      -0.00916716       0.02180445
O        6.77561444       4.62019532       5.53072789      -0.00143738      -0.00607944      -0.00526218
O        6.33062177       2.44642619       5.36209461      -0.00011718      -0.00623417      -0.01893194
O        8.38990874       3.20622008       4.84355136      -0.01129746       0.00107336      -0.04461759
C        5.49041286       4.48158510       6.12840178      -0.00176841      -0.01188391      -0.00463754
C        5.13254014       3.00539639       5.90759854       0.00077392      -0.00941038      -0.01043268
C        7.26906554       3.39480088       5.19998616      -0.00001162      -0.00352310      -0.02581543
H        4.79776406       5.15895748       5.63030185      -0.00395143      -0.01148731       0.00111458
H        5.57474578       4.75515906       7.18147375      -0.00150495      -0.01701168      -0.00446904
H        4.89983646       2.48051637       6.83089051       0.00544219      -0.01659569      -0.01398945
H        4.32388118       2.86059678       5.19680057      -0.00261593      -0.00940087      -0.00631973
O        3.81784965       5.92741885       9.61867372      -0.00969897       0.00292613       0.03209329
O        1.69603575       5.98096488      10.28263035      -0.01885888      -0.01017770       0.00196326
O        3.14281928       7.51537364      11.07053178      -0.03741483      -0.00710607       0.02989227
C        3.15792443       4.90399660       8.84752651       0.00415599       0.00782155       0.01422527
C        1.82956962       4.73802781       9.56629262      -0.00081033      -0.00723907       0.00023240
C        2.91227209       6.56707983      10.38389414      -0.02320668      -0.00503230       0.02231553
H        3.78405191       4.01703572       8.85440342       0.00937864       0.01156247       0.00933181
H        3.04005567       5.27676274       7.82919848       0.01116250       0.01904315       0.01727635
H        0.98618359       4.64191157       8.88876010       0.00634766      -0.01369363      -0.00778228
H        1.84140556       3.92551499      10.29195559       0.00024606      -0.00898084      -0.00204828
O       12.11081167      11.37208717       8.40550168      -0.00047213      -0.01861736       0.01144860
O       11.31604684       9.31183418       8.24402755      -0.00986481      -0.01244812      -0.01444799
O       13.53728750       9.63144199       8.34412367      -0.00794077      -0.02396917      -0.01444233
C       10.66862665      11.52275500       8.51860573       0.00058711      -0.01278347       0.01209015
C       10.15433164      10.16563165       8.07252702      -0.00618684      -0.00583747      -0.00139429
C       12.41883513      10.07189916       8.32997577      -0.00704819      -0.01858854      -0.00667894
H       10.36917705      12.32619576       7.84997574       0.00447111      -0.00578076       0.01902327
H       10.44139809      11.75383402       9.55930531       0.00111787      -0.02036597       0.01380539
H        9.34498157       9.77529658       8.68111389      -0.00613204      -0.00931409      -0.00392520
H        9.87356422      10.15840597       7.02069075      -0.00862191       0.00709068      -0.00063723
O        6.26333469       8.31949823       2.96765737       0.00593360      -0.00132203       0.00613293
O        6.87815419       9.34034652       4.85122463      -0.00235686      -0.00185600       0.00863516
O        6.75874381      10.51588029       2.92487218       0.00020686      -0.00013566       0.01044488
C        6.13838023       7.32376081       3.99695368       0.00443766      -0.00244737       0.00524062
C        6.91021872       7.93019172       5.15422757       0.00248072      -0.00257230       0.00614148
C        6.64113179       9.49951592       3.53192749       0.00117166      -0.00130355       0.00818273
H        6.55314441       6.38867664       3.63419411       0.00475678      -0.00194627       0.00512047
H        5.07437984       7.20012396       4.21717253       0.00426513      -0.00309012       0.00289463
H        6.46324702       7.76482412       6.13070305       0.00320420      -0.00571947       0.00587600
H        7.94778721       7.60355690       5.17525749       0.00355870       0.00123838       0.00453687
O        4.39182277       5.20823870       2.07431497      -0.02691048       0.01003531       0.02322692
O        4.70101310       3.09293551       2.69809299      -0.01819399      -0.00213698      -0.02546177
O        6.47997549       4.43182387       2.39875940      -0.02344322       0.00784840      -0.00851433
C        3.06182922       4.66220038       2.12873377      -0.02360815      -0.00038418      -0.00050317
C        3.27275616       3.21999981       2.60393112      -0.01960506       0.00178784       0.00188246
C        5.30004144       4.25563488       2.39812573      -0.02230275       0.00593223      -0.00411100
H        2.62412879       4.72710767       1.13500028      -0.00647660      -0.00408185      -0.00819424
H        2.48125815       5.25507288       2.82763156      -0.03992845      -0.00455600      -0.01097786
H        2.83989573       3.02198683       3.58228721      -0.00148807       0.00790346       0.01122445
H        2.91798310       2.47178926       1.90075599      -0.03528619      -0.00029528       0.01261428
O        2.32695419       5.13214097       5.22060423       0.00152448       0.01265976       0.00492994
O        0.55974517       5.36944838       6.54251876       0.00942817       0.01269037       0.00813764
O        1.46843970       3.32894667       6.26964769       0.01113698       0.01175123       0.01552351
C        2.15832803       6.56365644       5.36909699       0.00182226       0.01574972       0.00203106
C        0.76526690       6.68018778       5.95672251       0.00426364       0.01560172       0.00097575
C        1.44697491       4.49697092       6.02795093       0.00857395       0.03198016       0.00523487
H        2.23261616       7.04011817       4.39585769       0.00267636       0.01561341       0.00033304
H        2.93850465       6.92396199       6.04278701       0.00255728       0.01742864       0.00118086
H        0.66741467       7.43127268       6.73684012       0.00090489       0.01898897      -0.00097284
H        0.01225704       6.84329036       5.18746148       0.00126916       0.00946176       0.00192761
O       13.72090178       9.50479612       4.85167147       0.02260477       0.01130517      -0.00623047
O       13.19814168      10.18881300       2.80881476       0.00827035       0.00430441      -0.00480306
O       14.38006295       8.30017638       3.07894423       0.02605671       0.01484668      -0.00791484
C       12.85136304      10.64809051       5.07730833       0.00908679       0.00012302      -0.00430238
C       12.60602527      11.19596671       3.67613147       0.00265385      -0.00096560      -0.00325766
C       13.80801575       9.25925279       3.54214497       0.01957747       0.01108623      -0.00612766
H       13.37383299      11.34396081       5.72519189       0.00022808       0.00589886      -0.00332761
H       11.93604846      10.28734753       5.53056947       0.01387030      -0.01212364      -0.00470336
H       11.55169790      11.27807729       3.44014650       0.00190330      -0.00815558      -0.00206167
H       13.11415118      12.13772634       3.48775809      -0.00553417       0.00351149      -0.00295495
O       11.00891803       8.97228882      11.29125289       0.00158790       0.01273018      -0.00557682
O       13.08836046       9.32876253      11.99549176      -0.00663778       0.00578146       0.02074501
O       11.55072854      10.97323716      12.16619781      -0.01111475       0.00160861       0.02428117
C       11.65735523       7.68781912      11.21663440       0.00198776       0.01295775      -0.00978328
C       13.13031545       8.05453032      11.31499088       0.00055557       0.01330440       0.00748755
C       11.86036700       9.86529668      11.84630960      -0.00510877       0.00635689       0.01467112
H       11.38077016       7.22131976      10.27420715       0.01011641       0.01971132      -0.01559025
H       11.30650549       7.08069508      12.05422493      -0.00625822       0.00675395      -0.01765537
H       13.72307587       7.36481464      11.90908314      -0.00531961       0.00810206       0.00650769
H       13.59657874       8.20368137      10.34185799       0.00830869       0.02345899       0.01285726
