199
Lattice="14.44664612527423 0.0 0.0 0.0 14.44664612527423 0.0 0.0 0.0 14.44664612527423" Properties=species:S:1:pos:R:3:forces:R:3 energy=-1031626.9375 stress="-0.0016549121355637908 1.4017658031661995e-05 0.00044463911035563797 1.4017658031661995e-05 -0.001633527223020792 6.282715366978664e-05 0.00044463911035563797 6.282715366978664e-05 -0.004882261157035828" pbc="T T T"
Bk      11.80099753      14.37337858       0.95052573      -0.02192199       0.01753286      -0.01114881
O       13.52941346      14.43951276       1.62634500      -0.01977611       0.02596390      -0.01477563
H       12.72004894      14.22892941       3.07501691      -0.00985226       0.02536134      -0.01626455
O       11.77301666      14.22809188       3.43121243      -0.00728031      -0.00814927      -0.00724116
H       11.61457068      13.35451837       3.79391542       0.03074424      -0.01843959      -0.01520325
O       10.26276854      13.17244008       0.13792539       0.00023931      -0.01364589      -0.01726702
H        9.38239869      13.50674286      -0.03911397      -0.00281055      -0.03237314      -0.03731422
C       10.22517710       4.18187340       3.17986366       0.01344462      -0.01943509       0.01369739
C       10.65624036       5.48340636       2.94787091       0.00402072       0.00007895       0.00599548
C        8.86801624       3.91295337       3.30830266       0.00033153       0.00003794       0.00398059
C        9.73560149       6.51969938       2.86789903       0.01870277      -0.02315100      -0.00552472
C        7.94331643       4.94776226       3.22052064       0.01435597      -0.02248868      -0.00766790
C        8.38163651       6.24781808       3.01105342       0.00462469      -0.00135447      -0.01535865
H       10.94606804       3.37580674       3.24271209       0.00637777      -0.00757097       0.02379751
H       11.71204245       5.69368195       2.82506776       0.01238485      -0.01328810       0.01379224
H        8.52726666       2.89780764       3.47242830       0.00762483      -0.01135570       0.00999573
H       10.06719716       7.53780642       2.70846350       0.01263104      -0.01133735      -0.01120060
H        6.88497151       4.74386039       3.32836804       0.00655530      -0.00978249      -0.01571726
H        7.66907914       7.05634460       2.99597779       0.01203775      -0.01461112      -0.02648367
C       11.13180072       2.92070061      14.07261372       0.00082232      -0.01983979      -0.00282248
C       10.49827652       4.10999960      14.40353134       0.01044382      -0.02007286       0.00802868
C       10.37128669       1.81735021      13.69654540      -0.01420810      -0.01085377      -0.01304641
C        9.11274930       4.19953329      14.36710256       0.01471736      -0.00079834       0.00782435
C        8.98351466       1.90416956      13.67052581      -0.01042403       0.00561191      -0.00747522
C        8.35490498       3.09347152      14.01038544      -0.00035954       0.00610062       0.00052281
H       12.21468738       2.85889428      14.09194514      -0.00095683      -0.03201935      -0.00248774
H       11.07941234       4.98199360      14.66737921       0.01942649      -0.02595639       0.01468633
H       10.84596109       0.90482737      13.34051936      -0.02143062      -0.01091484      -0.01865278
H        8.62709564       5.13335304      14.61791493       0.02253301       0.00006096       0.01394965
H        8.38317328       1.05505100      13.37449298      -0.02091233       0.01053355      -0.00743915
H        7.27547722       3.15931995      13.98064901       0.00184056       0.01795822       0.00694180
C       12.59550172       5.30411550       7.03610994      -0.00241029      -0.00668560       0.00448987
C       12.06843321       5.57053324       8.29202765      -0.00390090      -0.00035358       0.00438790
C       12.21415948       6.07891012       5.94860738       0.00048446      -0.00831243       0.00322612
C       11.16162251       6.60963549       8.46009993       0.00067345       0.00211468      -0.00110765
C       11.30892726       7.11865613       6.11310976       0.00470820      -0.00605751      -0.00246891
C       10.78389333       7.38373007       7.37122197       0.00323710       0.00042331      -0.00252825
H       13.30354032       4.49707027       6.90140020      -0.00559089      -0.00880649       0.00845026
H       12.36136867       4.96625702       9.14041726      -0.00655907       0.00075983       0.00552684
H       12.62030607       5.86793331       4.96974363       0.00160347      -0.01330535       0.00394669
H       10.74723011       6.80666853       9.43928291      -0.00009843       0.00698855      -0.00136100
H       11.01028325       7.71061318       5.25719908       0.00673008      -0.00755867      -0.00371595
H       10.07154997       8.18813196       7.50201017       0.00600655       0.00218439      -0.00701303
C        5.95387170       8.82069886       2.24605613       0.00520754      -0.01498773      -0.00978596
C        5.30507061       7.62149518       1.98591697      -0.03219137      -0.00149005      -0.00438701
C        5.21387113       9.95282678       2.55139310      -0.03703398       0.00316483      -0.00301128
C        3.91721726       7.55899611       2.04041119       0.01096648      -0.01674315      -0.01076171
C        3.82995227       9.89176462       2.60881190       0.00958356      -0.01272739      -0.00864669
C        3.17991943       8.69032119       2.36047834      -0.02970330       0.00376353      -0.00407448
H        7.03506693       8.88624962       2.20392569      -0.01676857      -0.00592934      -0.00504498
H        5.87211982       6.73336404       1.73450316      -0.00762931      -0.01076563      -0.00665957
H        5.72188947      10.89090438       2.73369062      -0.01069517      -0.00553939      -0.00552807
H        3.41720306       6.62964532       1.81234214      -0.01346791      -0.00740261      -0.00633232
H        3.25470654      10.78457840       2.81015573      -0.01686266      -0.00169706      -0.00426795
H        2.09760091       8.64730599       2.38858637      -0.00748500      -0.00715206      -0.00778896
C        8.31761746      11.70219327      12.20005538       0.01648375       0.00609757       0.00456574
C        7.57502131      10.60562534      11.77780400       0.00299520       0.01326497       0.00473200
C        7.74350487      12.96736486      12.16712926       0.01986348       0.01362827      -0.00235773
C        6.26546287      10.77592836      11.35541174       0.01294751       0.01899511       0.00260625
C        6.42825448      13.13717332      11.74538875       0.02840257       0.01930800      -0.00210988
C        5.68721202      12.03653856      11.34535173       0.01529089       0.02639736      -0.00256665
H        9.34117658      11.58837790      12.53482608       0.01112731       0.00135393       0.00565978
H        8.01663010       9.61634526      11.76551084      -0.00010255       0.00846390       0.00963104
H        8.33763608      13.82627308      12.44441049       0.03003503       0.00877017      -0.00627538
H        5.68826038       9.92307880      11.02908605       0.00368562       0.02447544       0.00133928
H        5.98210949      14.12428336      11.73273545       0.03230542       0.02416575      -0.00706137
H        4.65622014      12.14741107      11.03567393       0.02088681       0.03189541      -0.00426522
C        3.55986206       9.42081165      -0.93920913      -0.02372930       0.01343162      -0.01072353
C        2.61140062      10.42569169      -0.77284264      -0.02480972       0.01062181      -0.00949077
C        4.89312721       9.67825305      -0.66183071      -0.02466393       0.01293096      -0.01012123
C        3.00038475      11.68279413      -0.32586813      -0.02610964       0.01122095      -0.00616629
C        5.28197510      10.93503707      -0.21750505      -0.02586445       0.01354942      -0.00708811
C        4.34010031      11.93673253      -0.05015698      -0.02717805       0.01086272      -0.00545216
H        3.25716042       8.43552772      -1.27443864      -0.02280965       0.01330796      -0.01321993
H        1.56850280      10.22197654      -0.98005787      -0.02411412       0.01116900      -0.01062430
H        5.63679674       8.90081013      -0.78687135      -0.02382203       0.01466748      -0.01090251
H        2.26235809      12.46264656      -0.18625406      -0.02705723       0.00952537      -0.00556478
H        6.32858840      11.13522438      -0.02407537      -0.02657954       0.01307002      -0.00580696
H        4.65090754      12.91646774       0.29239906      -0.02846061       0.01076303      -0.00247365
C        4.29431795       9.39335077       8.58508047      -0.00256449       0.00287848       0.00487570
C        4.53872075      10.74436059       8.36044874      -0.00044142       0.00186799       0.00042037
C        5.35925884       8.51048043       8.71912428      -0.00393815       0.00190742       0.00610134
C        5.84550879      11.20320529       8.27144150      -0.00021278      -0.00110155      -0.00229232
C        6.66763457       8.97386730       8.64604554      -0.00368191      -0.00116716       0.00271802
C        6.90769520      10.32022457       8.41735712      -0.00147077      -0.00185314      -0.00121273
H        3.27506299       9.02836137       8.63694187      -0.00285152       0.00506712       0.00755305
H        3.71241199      11.43386398       8.24480871       0.00047185       0.00252753      -0.00095707
H        5.17496191       7.45307875       8.85144560      -0.00579540       0.00271402       0.01035099
H        6.03525985      12.25518380       8.09697689       0.00146194      -0.00195339      -0.00601815
H        7.49427402       8.28079143       8.74656713      -0.00481801      -0.00199137       0.00319809
H        7.92532823      10.68290705       8.35013039      -0.00120345      -0.00416757      -0.00351720
C       11.84829453       7.94952983      12.42153820       0.00643584       0.00174375      -0.00348806
C       12.40712099       6.71846441      12.09767219       0.00374576       0.00104930       0.00078615
C       10.46689209       8.11116871      12.41097248       0.00556923       0.00353870      -0.00313330
C       11.58274267       5.65238319      11.75961146       0.00384666       0.00018819       0.00496536
C        9.64320004       7.04572709      12.06513425       0.00569780       0.00272305       0.00107426
C       10.20361785       5.81727701      11.73673214       0.00289384       0.00194176       0.00511030
H       12.48667628       8.78875873      12.66732637       0.00654005       0.00221588      -0.00654616
H       13.48317067       6.59452190      12.10361867       0.00408554      -0.00038849       0.00054830
H       10.03733392       9.07251641      12.66469579       0.00752068       0.00425723      -0.00606310
H       12.01054030       4.68806947      11.51587474       0.00210993      -0.00041403       0.00817872
H        8.56602207       7.16639150      12.05078806       0.00534640       0.00406473       0.00129628
H        9.56619810       4.98717588      11.46743475       0.00285271       0.00147836       0.00763181
C       11.29868662      10.50837879       3.88014814       0.00485260       0.00481706       0.00580831
C       10.31544946      10.86672387       2.96296046       0.00296195      -0.00048377       0.00814571
C       12.29992320       9.61110490       3.51750572       0.01051599       0.01173860       0.00665233
C       10.32940696      10.32732417       1.68128073       0.00529097      -0.00037406       0.00641252
C       12.31295481       9.07423630       2.23584061       0.01221590       0.01110987       0.00502416
C       11.32823541       9.43187201       1.32092281       0.00997787       0.00547894       0.00763635
H       11.27876239      10.90902424       4.88774438       0.00225243       0.00376839       0.00697607
H        9.53158031      11.55910105       3.24525209      -0.00098815      -0.00571807       0.00796790
H       13.05401441       9.32403357       4.23929716       0.01269476       0.01652822       0.00468311
H        9.57365800      10.61722585       0.96308722       0.00380142      -0.00430369       0.00803186
H       13.08128403       8.36619696       1.94863035       0.01655285       0.01643994       0.00564225
H       11.33072843       8.99687488       0.33157311       0.01157188       0.00472870       0.00684817
C        9.10684060       3.26399365       6.87547892       0.00869794       0.00424907       0.00428791
C        8.05940399       4.17747573       6.85930977       0.00750047       0.00727214       0.00453284
C        9.59196632       2.78670389       8.08708847      -0.00086248      -0.00091434       0.00544763
C        7.49819538       4.61267117       8.05435395       0.00450654       0.00054608       0.00208284
C        9.02774090       3.21808789       9.28171464      -0.00441343      -0.00854398       0.00288244
C        7.97831414       4.13049370       9.26640042      -0.00469478      -0.00452608       0.00312296
H        9.55028257       2.93767197       5.94386243       0.01206920       0.00990016       0.00595219
H        7.69172313       4.55330542       5.91253493       0.01338410       0.01003717       0.00366443
H       10.41675931       2.08474927       8.09886404      -0.00093482      -0.00335395       0.00529485
H        6.68892550       5.33262520       8.04150340       0.00477025       0.00299131       0.00223685
H        9.40772526       2.84556923      10.22619163      -0.01230349      -0.01345215       0.00371360
H        7.53011651       4.46516936      10.19455252      -0.00746756      -0.00971028       0.00174160
C        4.65017417       3.15632929      11.67569830       0.00143048       0.00027741       0.00282395
C        4.47366980       3.61589500      10.37599222       0.00182696       0.00353494       0.00555982
C        4.86264744       4.06199945      12.70910935      -0.00154866      -0.00258104       0.00664531
C        4.50366618       4.98117591      10.11529856      -0.00091935       0.00460364       0.00877564
C        4.89511819       5.42706252      12.44800587      -0.00441981      -0.00152756       0.00980544
C        4.71167675       5.88796115      11.14932338      -0.00373703       0.00154926       0.01247333
H        4.62251553       2.09363527      11.88283300       0.00368498      -0.00074604       0.00020314
H        4.32682472       2.91254234       9.56578565       0.00404739       0.00613452       0.00272055
H        5.00166502       3.70907898      13.72198627      -0.00192663      -0.00520299       0.00483730
H        4.37419453       5.33085788       9.09842002      -0.00081784       0.00711380       0.01048802
H        5.06077880       6.13044922      13.25545790      -0.00692138      -0.00388439       0.01266436
H        4.73493680       6.95144499      10.94717369      -0.00588585       0.00227693       0.01489350
C        0.78377187       3.99573583       4.88125610       0.00055880       0.00164998       0.00666350
C        0.93255877       5.36616373       5.05704453       0.00473327       0.00339129       0.00083444
C        1.20738252       3.11715744       5.87193941      -0.00943003       0.00484258       0.00371165
C        1.48248491       5.86259194       6.23272718       0.00702553       0.00239503       0.00791940
C        1.76063941       3.61231260       7.04759252      -0.00755670       0.00213739       0.01169412
C        1.88903547       4.98554445       7.23173558      -0.00300249       0.00453427       0.00406413
H        0.35359235       3.60897195       3.96635761      -0.00117698       0.00463405       0.00155384
H        0.60945346       6.05135613       4.28251023       0.01118740       0.00102250       0.00213289
H        1.11615834       2.04905736       5.72178019      -0.01337169       0.00336395       0.00989356
H        1.57689189       6.93142916       6.37793986       0.01095053       0.00455341       0.00284880
H        2.09135289       2.93076561       7.82206589      -0.01531205       0.00357496       0.01201947
H        2.29549080       5.36983480       8.15814300      -0.00157873       0.00250965       0.00873856
C       11.50918410      12.42591471       9.91039481       0.00882270       0.01110272       0.00295421
C       12.88665735      12.24957247       9.94394430       0.00701059       0.00640658       0.00572651
C       10.67327313      11.32529654       9.76117822       0.00437714       0.01589556      -0.00321089
C       13.42937987      10.97385601       9.81587137       0.00306658       0.00437602       0.00192146
C       11.21493141      10.05251482       9.64345882       0.00035007       0.01354688      -0.00666121
C       12.59392416       9.87441374       9.66093341      -0.00142219       0.00902443      -0.00405773
H       11.08191084      13.41618656      10.00836575       0.01214800       0.01272422       0.00553883
H       13.53713626      13.10632765      10.07203790       0.01040866       0.00279896       0.01056314
H        9.59987474      11.45864516       9.76031048       0.00550435       0.01970132      -0.00566296
H       14.50434855      10.83842042       9.84085497       0.00183623       0.00071731       0.00347012
H       10.56380847       9.19353111       9.55543935      -0.00302043       0.01691850      -0.01157762
H       13.00708800       8.87789969       9.56354259      -0.00458851       0.00755592      -0.00688592
C        6.44414478       7.55139729       5.67639507      -0.00218369      -0.00824607      -0.00524617
C        7.81389947       7.78032175       5.68413537      -0.00204844      -0.00422767      -0.01039401
C        5.56156988       8.61247572       5.53166407      -0.00186661      -0.00176645      -0.00278870
C        8.29981551       9.07054818       5.50648488      -0.00190870      -0.01088356      -0.00992074
C        6.04860916       9.90313263       5.38706119      -0.00155474      -0.00846647      -0.00322067
C        7.41732435      10.13098025       5.35648571      -0.00147001      -0.00439870      -0.00726764
H        6.06412802       6.54205753       5.78711257      -0.00293245      -0.00451609      -0.00495412
H        8.50177351       6.95627656       5.81734270      -0.00220281      -0.00796786      -0.01282065
H        4.49366564       8.43403575       5.52106226      -0.00191247      -0.00407131       0.00086440
H        9.36670455       9.25227616       5.49417182      -0.00178222      -0.00870624      -0.01410806
H        5.35856240      10.73133845       5.30030226      -0.00086637      -0.00454640      -0.00147650
H        7.79644304      11.14034242       5.24275896      -0.00087487      -0.00808807      -0.00737621
C        3.43252733       4.22657595       2.92462073       0.00672562      -0.01960479       0.00438481
C        4.06381615       4.00285171       4.14193291       0.01033741      -0.01958725       0.00269997
C        3.80211270       3.50442388       1.79841573       0.00407647      -0.02112485       0.00400627
C        5.05623132       3.03532878       4.23923747       0.01093721      -0.01789043       0.00023462
C        4.80314685       2.54246500       1.89315967       0.00397121      -0.02000464       0.00169536
C        5.42353513       2.30288769       3.11408457       0.00848787      -0.01870341      -0.00028259
H        2.63972541       4.95892643       2.86475541       0.00748613      -0.01979835       0.00583581
H        3.76441006       4.57289008       5.01234039       0.01181723      -0.01951759       0.00325470
H        3.30507999       3.68726866       0.85307362       0.00091622      -0.02200830       0.00563446
H        5.54667844       2.85791738       5.18895095       0.01439657      -0.01705695      -0.00150445
H        5.09466225       1.97288718       1.01873870       0.00154738      -0.02096816       0.00147860
H        6.19805923       1.55013891       3.18728762       0.00890425      -0.01768667      -0.00208854
C        2.36027926      11.31231492       5.52532972      -0.00806808       0.00426488       0.00210825
C        2.96011571      12.49400472       5.10264363      -0.00099504      -0.00005454       0.00587530
C        1.44818071      11.33378120       6.57404269      -0.01185399       0.00564873      -0.00183384
C        2.65767895      13.69628526       5.73305172       0.00305076       0.00199687       0.00685175
C        1.14321680      12.53436835       7.20456656      -0.00833369       0.00770943      -0.00114545
C        1.75096096      13.71347816       6.78718398      -0.00084735       0.00341842       0.00310880
H        2.60892217      10.37656068       5.03992031      -0.01116684       0.00298633       0.00131655
H        3.66420147      12.48212285       4.27947278       0.00169735      -0.00153730       0.00840563
H        0.97771463      10.41567712       6.90554399      -0.01795620       0.00873794      -0.00506685
H        3.12478820      14.61521391       5.39877790       0.00865749      -0.00085890       0.01017483
H        0.42749654      12.54895190       8.01519610      -0.01184347       0.00915866      -0.00460091
H        1.51199342      14.64576491       7.28429874       0.00231952       0.00446449       0.00378513
