197
Lattice="13.777908540562573 0.0 0.0 0.0 13.777908540562573 0.0 0.0 0.0 13.777908540562573" Properties=species:S:1:pos:R:3:forces:R:3 energy=-1107667.5 stress="-0.0003339745453558862 6.790901534259319e-05 0.00023253933613887057 6.790901534259319e-05 -8.175482071237639e-05 1.3593165931524709e-05 0.00023253933613887057 1.3593165931524709e-05 -0.001698448439128697" pbc="T T T"
Bk      10.86782003      14.57650632      -3.82758541      -0.00343853      -0.00575042      -0.00278473
O       12.58395880      13.61079537       9.45791188      -0.00354433      -0.00435887      -0.00480705
H       13.39613526      13.70870185       8.93025447      -0.00465453      -0.00584855      -0.00666938
O       10.84627231      13.91728640      11.85087641       0.00246477      -0.00658017      -0.00247532
H       10.14009168      13.61411489      12.44189091       0.00323680      -0.00012815       0.00140272
O       10.16886026      14.01259960       7.55120617      -0.02086260      -0.00267237       0.00539696
H        9.38871783      13.45445900       7.39149086      -0.02413444      -0.00322342       0.02037865
O        4.90930550       9.62612155       2.87927274      -0.00092295       0.00160730      -0.00050450
O        2.88347165       9.32234672       3.73823619      -0.00096543       0.00101569      -0.00108392
O        3.72617874      11.39436868       3.60454585      -0.00270860       0.00181931      -0.00382262
C        4.67281506       8.20872148       2.72443535      -0.00027397       0.00158140      -0.00041801
C        3.30769247       7.99084558       3.37563691       0.00012863       0.00103980       0.00015774
C        3.84051215      10.21202074       3.42876699      -0.00169003       0.00097030      -0.00202337
H        5.46840734       7.66788770       3.22944992       0.00007337       0.00186981      -0.00076899
H        4.67884782       7.99138093       1.66132516      -0.00057852       0.00160947      -0.00044531
H        2.56501094       7.57110115       2.70070287       0.00029278      -0.00019793       0.00076193
H        3.37301395       7.40389549       4.29030636       0.00093762       0.00195490       0.00058091
O        7.05691987      12.98506267      11.78086984       0.00017260       0.00495622      -0.00264746
O        7.55094049      10.84755519      12.12524109       0.00638545       0.00766091       0.00405584
O        8.79171503      12.43961982      13.09708074      -0.00712475       0.01313901       0.01138568
C        6.03877381      12.26331545      11.06695946       0.00623763      -0.00052996      -0.00572415
C        6.51805939      10.81146997      11.11958622       0.01253243       0.00194830      -0.00204921
C        7.87242448      12.11630433      12.39555048      -0.00082487       0.00899115       0.00455010
H        5.98850945      12.67877924      10.06456003       0.00804556      -0.00241415      -0.00644794
H        5.09015092      12.41762832      11.57993388       0.00374651      -0.00422598      -0.00925533
H        5.75833339      10.09911665      11.43229833       0.01396218      -0.00127009      -0.00585143
H        6.96996311      10.48086369      10.18791403       0.01947498       0.00386347       0.00076932
O        5.27911438      11.50339690       0.21645944      -0.00412607       0.00603234      -0.00356640
O        3.54556431      10.10837057       0.25984501       0.00129748      -0.00057060      -0.00414025
O        5.62966647       9.29038329       0.02681641       0.00443858       0.00755128       0.00202798
C        4.14750558      12.32916136       0.57287133      -0.00813296       0.00231147      -0.00803661
C        2.96293946      11.42436220       0.26964380      -0.00372756      -0.00289272      -0.00921387
C        4.88471065      10.21590534       0.16041648       0.00161630       0.00378811      -0.00179965
H        4.18094672      13.24164473      -0.01856257      -0.01014422       0.00101021      -0.00989273
H        4.21144573      12.55914456       1.63113646      -0.01160100       0.00476419      -0.00838840
H        2.21481241      11.45843800       1.05535699      -0.00622785      -0.00403655      -0.01172078
H        2.50404626      11.60579158      -0.70330984      -0.00135404      -0.00712351      -0.01102796
O        6.18673788      10.91308570       8.01140686      -0.00180396       0.01704931       0.00114374
O        6.25338401      13.05515618       7.44112709       0.01160651       0.00763938      -0.02954720
O        8.16314691      11.97916074       7.90789833       0.00389636       0.00403212      -0.00733183
C        4.81988619      11.23793320       7.66659280       0.00012177       0.02099210      -0.00242043
C        4.84057581      12.75886049       7.53375894       0.00986192       0.01833200      -0.02373285
C        6.96476038      11.98803942       7.77451710       0.00386310       0.00901346      -0.01177811
H        4.17599252      10.86425896       8.46269585      -0.00086084       0.03635557       0.00347465
H        4.59123132      10.74616918       6.72306227      -0.00437345       0.00899334       0.00510117
H        4.35156513      13.12202269       6.63645087       0.01064889       0.00848711      -0.02806094
H        4.43784048      13.28165308       8.40085173       0.01603097       0.03360754      -0.03067008
O        9.60781336       7.01940315      13.23198321       0.00346920       0.00449240       0.00237415
O        7.98259049       6.06353919      12.05465691       0.00060698       0.00682470       0.00459333
O        9.95463090       5.00300077      12.28467171       0.00177002       0.00713187      -0.00396583
C        8.46371583       7.89627030      13.36949427       0.00338375       0.00309604       0.00862688
C        7.55372909       7.43577655      12.25192018      -0.00002545       0.00570302       0.01038414
C        9.24495161       5.93945245      12.51200248       0.00175339       0.00650966       0.00032069
H        8.79642709       8.92288729      13.25291252       0.00209585       0.00374019       0.01058476
H        8.02404450       7.74083053      14.35559233       0.00696978      -0.00010148       0.00975025
H        6.49878009       7.44806394      12.49152658       0.00095662       0.00377454       0.01418126
H        7.72998534       7.97772519      11.32101135      -0.00409999       0.00855088       0.01151431
O        8.49949420      11.97696578       2.53221267       0.00372042       0.01118116       0.01461534
O        9.44031401      10.50221017       3.90202944       0.00710604       0.00767906       0.00832722
O        9.48507591      12.69376117       4.42376503       0.00955462       0.00645131       0.01306176
C        8.46282464      10.72349171       1.81432883      -0.00095719       0.01279373       0.01211029
C        8.77365744       9.70850652       2.90210004       0.00492457       0.00995809       0.00776029
C        9.16102051      11.80049160       3.69358453       0.00692779       0.00791967       0.01180726
H        9.21964408      10.76690331       1.03265484      -0.00603634       0.01420842       0.00752148
H        7.47990267      10.60327662       1.36655388      -0.00367475       0.01461367       0.01759198
H        7.86649335       9.28841816       3.33624588       0.00784045       0.00710386       0.01030174
H        9.45018726       8.91479143       2.59129016       0.00495589       0.01197600       0.00266878
O        9.81797636       3.72418206       9.29335456      -0.00311559      -0.01009387      -0.00242092
O        7.65459019       3.98553319       9.70158742      -0.00053704      -0.00288557       0.00661048
O        8.64748830       2.00746875      10.09564483      -0.00528212      -0.00641920       0.00273195
C        9.58419474       5.14081936       9.08486507       0.00032374      -0.00928634      -0.00215962
C        8.06086398       5.23309059       9.09161928       0.00092399      -0.00466228       0.00383693
C        8.69106520       3.15895325       9.73511944      -0.00319499      -0.00458330       0.00186825
H       10.04611284       5.41823145       8.14271493      -0.00258552      -0.01118049      -0.00414985
H       10.05087505       5.68013925       9.90168254       0.00516616      -0.01035792      -0.00432828
H        7.67654854       6.04299181       9.69997733       0.00602247      -0.00299624       0.00490731
H        7.61616468       5.26022361       8.09854618      -0.00299469      -0.00404814       0.00562584
O        3.40213650       5.59424122      10.96618207       0.00870559       0.00214633       0.00096222
O        4.71796822       6.06740189       9.23839518       0.00004421       0.00620450      -0.00426313
O        4.65105258       7.47174853      10.99483944       0.00956282       0.00120318      -0.00044501
C        3.02847095       4.65796907       9.92415051       0.00249857       0.00558989       0.00021261
C        4.22647192       4.72186720       8.99932448      -0.00237042       0.00750381      -0.00583178
C        4.27775263       6.47258888      10.44876063       0.00659965       0.00344461      -0.00094992
H        2.10738615       5.01675968       9.46635281       0.00062311       0.00782453       0.00618079
H        2.87022165       3.68483642      10.38223510       0.00417822       0.00440058      -0.00199659
H        5.01061409       4.01693776       9.27258684      -0.00171018       0.00592661      -0.01220906
H        4.00162109       4.62293234       7.94241238      -0.00803921       0.01106333      -0.00487256
O        9.75724756      10.36300792      10.17287390       0.00006741      -0.00494123      -0.00156289
O       11.11370077       9.65622137       8.56988640      -0.00012985      -0.00947928      -0.00004494
O        9.43257027       8.29553708       9.29969750       0.01243471       0.01766460       0.00218961
C       10.63702438      11.44781042       9.86399934       0.00133049      -0.00469071      -0.00218403
C       11.50329507      10.87731273       8.85410664       0.00313842      -0.00629115      -0.00202650
C       10.00591868       9.33338354       9.36549936      -0.01383829      -0.03364623      -0.00259006
H       11.13488677      11.83829820      10.75894421       0.00067654      -0.00531027      -0.00304168
H       10.02673847      12.28024333       9.45912486       0.00208014      -0.00639123      -0.00454813
H       10.88923095      13.62308178       7.04726987      -0.03244206      -0.00469568      -0.00924109
H       12.34731206      11.28436669       8.32887713       0.00130928      -0.00951354      -0.00184140
O        5.74874685       8.74823979       5.70535593      -0.00320192       0.00104657       0.00488630
O        7.90488798       9.18321284       6.03276056      -0.00270682      -0.00078486       0.00288298
O        6.57997005      10.76737369       5.14270021      -0.00198121       0.00046331       0.00202453
C        6.25249892       7.61007249       6.45055346      -0.00313321       0.00056106       0.00444818
C        7.75684118       7.77858659       6.30232361      -0.00341731      -0.00097775       0.00256734
C        6.73792055       9.66902919       5.59065862      -0.00226372      -0.00196737       0.00405708
H        5.86444776       6.70121032       5.99503507      -0.00469299       0.00097075       0.00487736
H        5.91362470       7.69662062       7.48329033      -0.00180389       0.00096533       0.00476983
H        8.32415195       7.55187341       7.20156736      -0.00236981      -0.00189403       0.00170055
H        8.15265187       7.22769846       5.44487696      -0.00503013      -0.00075790       0.00167084
O        3.29799858       4.67745838       3.29715969       0.00113270      -0.00072542      -0.00212444
O        3.69912828       4.96111470       5.46118317      -0.00342083      -0.00036763      -0.00144548
O        5.34948108       5.28288049       3.96696987      -0.00103897       0.00110266       0.00202248
C        2.01972994       4.42829050       3.92412888      -0.00010854      -0.00054259      -0.00465110
C        2.35586945       4.43021136       5.41800777      -0.00287741      -0.00128782      -0.00412428
C        4.21508900       4.97504773       4.22308983      -0.00065345       0.00028310      -0.00047135
H        1.65932260       3.46983264       3.56339166       0.00037161      -0.00021949      -0.00577066
H        1.33631687       5.21958642       3.61678047       0.00079513      -0.00018874      -0.00559294
H        1.72050102       5.08185087       6.01490371      -0.00427324      -0.00207070      -0.00491340
H        2.38526016       3.42847956       5.84229343      -0.00293347      -0.00154808      -0.00483751
O        1.91878473      13.23018052       5.84049610      -0.00266525      -0.00707505      -0.00553532
O       -0.21291437      13.76714513       6.15936125       0.00000325       0.00134397      -0.00278920
O        1.16704682      13.55370448       7.92705226      -0.00056873      -0.01127890      -0.00418550
C        1.38782405      13.44501664       4.50915299      -0.00264096       0.00028021      -0.00431859
C       -0.11465235      13.43048100       4.75315038      -0.00234026       0.00413854      -0.00332436
C        0.97692004      13.52518994       6.74158798      -0.00115909      -0.00612144      -0.00408667
H        1.76116139      12.63717640       3.88660889      -0.00549842       0.00198814      -0.00802360
H        1.76930850      14.40294467       4.15556423      -0.00004691       0.00078699      -0.00030861
H       -0.66235705      14.18121031       4.18962805      -0.00081415       0.00681904      -0.00110896
H       -0.56931601      12.44786589       4.62519127      -0.00523046       0.00571802      -0.00516608
O       13.13998772       8.29651340       5.42089378       0.00389953      -0.01104271       0.00054289
O       10.97154445       8.50456043       5.85609452       0.00403182      -0.00486839      -0.00216047
O       12.24202141      10.34567202       5.56783880       0.00873626      -0.00808585      -0.00493258
C       12.65235029       6.93318365       5.49787936       0.00012353      -0.00953627       0.00168832
C       11.27478134       7.11551343       6.11083501       0.00071168      -0.00503322       0.00133559
C       12.11466929       9.15142293       5.60642597       0.00573009      -0.00905591      -0.00246245
H       13.31656004       6.37063946       6.14853547      -0.00158736      -0.01067504       0.00239623
H       12.63068796       6.52553344       4.48859785      -0.00077189      -0.01030421       0.00205559
H       10.50913500       6.50882175       5.63164609      -0.00083786      -0.00425741       0.00290415
H       11.28392319       6.96186094       7.18961922       0.00028069      -0.00241918       0.00169364
O       13.47838815       5.23138335      10.52102471       0.00294644      -0.00549240       0.00472635
O       12.31647097       6.97673775       9.78925258       0.00089178      -0.00399157       0.01243937
O       12.92515108       5.36807959       8.34843113      -0.00498921      -0.00154001       0.00699389
C       13.29477251       6.04589052      11.70643243       0.00771067      -0.00749379       0.00681692
C       12.54032475       7.27035609      11.18588086       0.00770921      -0.00559825       0.01152831
C       12.92472601       5.81972175       9.46367967      -0.00095916      -0.00318047       0.00832766
H       14.27834295       6.28819162      12.10031156       0.00911945      -0.00964259       0.00415741
H       12.72276786       5.46577021      12.42521235       0.00919852      -0.00809830       0.00755480
H       11.57120455       7.40438102      11.66322010       0.01034206      -0.00415498       0.01583278
H       13.13477993       8.17984640      11.24059971       0.00995973      -0.00692490       0.00945514
O        6.67792556       3.84857139       6.45180866      -0.00395171      -0.00291147       0.00044185
O        7.71629873       1.91135486       6.80967751      -0.00066988       0.00021812       0.00562735
O        5.62214942       2.21433922       7.58626115       0.00086236      -0.00026345       0.00923812
C        7.86382467       3.92175718       5.64752474      -0.00515560      -0.00363302      -0.00156096
C        8.67937209       2.71487544       6.11168014      -0.00393558      -0.00322807      -0.00230519
C        6.57774472       2.60959077       6.99477414      -0.00033790      -0.00056231       0.00491524
H        8.36070593       4.87015861       5.85122615      -0.00497474      -0.00343913      -0.00311656
H        7.56652406       3.88172210       4.60189389      -0.00699423      -0.00450595      -0.00091243
H        9.09749422       2.12426689       5.30018058      -0.00961512      -0.00646672      -0.00286007
H        9.47668497       2.97681475       6.80749815       0.00039181      -0.00247799      -0.00763720
O        1.93138634       7.65052471       7.65846959       0.00488487      -0.00410528       0.00148131
O        1.46515814       9.62649652       8.57081367       0.00080427      -0.00683072       0.00495565
O        1.40217843       7.76307566       9.83831260       0.00473903      -0.00862747       0.00130439
C        2.22570146       8.61165691       6.62402404       0.00328204      -0.00155276       0.00348145
C        1.60732668       9.89587087       7.15867155       0.00007929      -0.00410163       0.00555409
C        1.58320509       8.29854999       8.78585215       0.00352852      -0.00703892       0.00320435
H        1.75864282       8.27822161       5.70592871       0.00450633      -0.00090446       0.00270212
H        3.30795658       8.67012871       6.50546724       0.00314185       0.00113170       0.00434147
H        2.23413545      10.77480657       7.03557271      -0.00221294      -0.00237238       0.00717947
H        0.62088906      10.08995094       6.73715137      -0.00026068      -0.00586448       0.00572929
O        4.85322307       0.68264284       2.81280744      -0.00569272      -0.00151886       0.00034661
O        6.11229897       1.75804290       4.28980224      -0.00443608      -0.01244830       0.00691058
O        3.87752863       2.03220250       4.32571060      -0.00286174      -0.00225618       0.00260329
C        6.16809072       0.08031614       2.70232816      -0.00818430      -0.00698233       0.00094202
C        7.04837653       1.09016579       3.41069433      -0.00520337      -0.01394470       0.00713692
C        4.85760727       1.53533702       3.84985952      -0.00418079      -0.00486946       0.00299603
H        6.41167048      -0.04667730       1.65107196      -0.00625942      -0.00323386       0.00100246
H        6.14034466      -0.88508040       3.20700964      -0.01427471      -0.00905088      -0.00343060
H        7.83364360       0.63190896       4.00605858      -0.00961500      -0.01967409       0.00848857
H        7.46531913       1.83650373       2.72947680       0.00072891      -0.01386955       0.01132914
O       11.97764712       8.69719262       2.52491344       0.00127096       0.00076249       0.00367833
O       14.15209188       8.88878662       2.07675747      -0.00007264       0.00132984      -0.00179935
O       13.22740676       6.83942027       2.24428879       0.00190860       0.00158298       0.00542296
C       12.21240370      10.11117268       2.35688253      -0.00043696       0.00028479      -0.00164404
C       13.72169621      10.20273683       2.47309714      -0.00040072       0.00195506      -0.00439113
C       13.12969262       8.02625980       2.27189426       0.00115637       0.00044662       0.00284171
H       11.68296335      10.63985290       3.14314820       0.00058997       0.00238782      -0.00249106
H       11.84608508      10.40579173       1.37088590      -0.00240237      -0.00368776      -0.00207829
H       14.16204940      10.93104895       1.79767037      -0.00218987       0.00055753      -0.00680853
H       14.05285918      10.37661975       3.49771326       0.00087211       0.00466298      -0.00533101
O        2.92592597       5.44930294       0.44726011       0.00092357       0.00156567      -0.00307834
O        3.42499477       3.28168550       0.31164821       0.00124881       0.00202934      -0.00638774
O        1.29144932       3.91496664       0.65478543       0.00156283       0.00112611      -0.00319806
C        4.35807590       5.41836640       0.37812701       0.00095092       0.00159860      -0.00333771
C        4.67780398       3.94760426       0.10525389       0.00010911       0.00306493      -0.01056471
C        2.43763203       4.19329596       0.48802081       0.00124580       0.00148419      -0.00412294
H        4.75584275       5.73976366       1.33994421       0.00095429      -0.00303017      -0.00182933
H        4.67102160       6.09168334      -0.41721034       0.00098057       0.00507271      -0.00028613
H        5.00852215       3.76631154      -0.91761964      -0.00560337       0.00745618      -0.01309603
H        5.40179048       3.54096557       0.81038636       0.00383601       0.00020128      -0.01623935
