199
Lattice="13.46804207792306 0.0 0.0 0.0 13.46804207792306 0.0 0.0 0.0 13.46804207792306" Properties=species:S:1:pos:R:3:forces:R:3 energy=-1032713.25 stress="0.0005238184821791947 0.0008729803084861487 0.000704471895005554 0.0008729803084861487 -0.0006127865053713322 -0.00019170547602698207 0.000704471895005554 -0.00019170547602698207 0.0007762166787870228" pbc="T T T"
Bk      14.15122996      14.33576536      -1.18310084      -0.01497722       0.01270723      -0.00380370
N        1.53155744      13.00034591       7.54007049      -0.03102708       0.02309389       0.08660606
C        0.75750485      13.17110120       8.37572027       0.07004020      -0.01735451      -0.06375432
N        5.19420892      11.85032565       3.23058026      -0.01882634      -0.03608799      -0.01722486
C        6.04671860      11.33018621       3.82943172      -0.01800501      -0.03111064      -0.01383734
N       13.21774914      13.35217855       0.64877307       0.02794725       0.00037003       0.00827631
C       12.38525421      14.10842525       0.98280511       0.02376735      -0.00981925       0.02030423
O        3.04997282       9.20418476       2.57459887       0.00585306       0.02181923      -0.01146898
C        3.19741580       7.78531051       2.55237494       0.00763708       0.02221373       0.00098963
H        2.39610954       7.39111185       1.92660239      -0.00186586       0.01472600       0.01844649
H        3.08487322       7.36295300       3.55401291       0.02454146       0.03138936       0.00670990
H        4.15560948       7.46949643       2.13347619       0.00088918       0.01832625      -0.01124403
H        3.81903415       9.61010595       2.99441140       0.01104686       0.02916810      -0.02722418
O        7.31213943       2.99084698       8.65633996       0.00435796       0.04058501       0.02182239
C        6.70696092       3.07268034       9.93090248      -0.00559749       0.01020436       0.01662508
H        6.84861902       4.05770508      10.38269397      -0.00472526      -0.00438091       0.04719312
H        7.14336289       2.31851981      10.59097796      -0.01392952      -0.00998029      -0.00205614
H        5.62717810       2.88390054       9.86920342      -0.00652137       0.01790189       0.00503579
H        7.47162898       3.90518694       8.37507141      -0.00681581       0.04789032       0.03332964
O        3.19223539      10.40281063       0.03589783      -0.00060141      -0.00755167      -0.02755150
C        4.59807520      10.53615831       0.17048449      -0.00146902       0.00475289      -0.03314703
H        5.05840447       9.59778727       0.50039329       0.00504561       0.01719511      -0.00916079
H        4.87796732      11.31095680       0.88730156      -0.00515539       0.02479869      -0.05428937
H        5.00337881      10.79393821      -0.80912474      -0.00359571      -0.01848309      -0.03957650
H        2.88922592      10.05702752       0.89010481       0.00331256       0.00224695      -0.02204421
O       -0.04774495       4.20527936      11.93184111      -0.01570034      -0.03265357      -0.00572523
C       -0.04270834       3.44762180      13.13673971       0.00706639       0.00851920       0.01710545
H       -0.28820093       4.03565710      14.01846320       0.03475228       0.04358667      -0.00178814
H        0.94000846       2.99451189      13.32328742       0.00634726       0.00065473       0.00852721
H       -0.81308361       2.67455867      13.03749236      -0.00381368       0.01710072       0.06301207
H        0.78753250       4.68106922      11.79882607      -0.03662127      -0.00195816      -0.01341157
O        7.73933859       5.76369491       8.10110416       0.00095834      -0.01605210      -0.03003848
C        7.36903043       7.06357724       8.55617315       0.01082162      -0.02628356       0.00240402
H        6.33814423       7.07924423       8.93086443       0.00973052      -0.02568075      -0.00066926
H        7.45856534       7.80305705       7.75621300       0.02413635      -0.00658047       0.02339572
H        8.03440979       7.36902759       9.36148665       0.01095769      -0.05883272       0.01336953
H        7.54056309       5.73727306       7.14493479      -0.01114951      -0.00243005      -0.02806122
O        2.58185633       2.52642481      11.76764241       0.01666903      -0.03582254       0.00397199
C        2.04536167       2.28156593      10.46037400       0.01660232      -0.01464903       0.00021297
H        2.06040687       1.20953464      10.22479324       0.00485016      -0.01119700      -0.01444558
H        2.57371731       2.82668830       9.67837963       0.02238567      -0.00935949       0.00752473
H        1.01827103       2.64656360      10.47764658       0.02067477      -0.00354268       0.00576732
H        3.51994189       2.31348134      11.78326570       0.00034130      -0.09088953       0.01422983
O        1.82747281      10.31111559       6.05250421       0.00961316      -0.00090346       0.00504401
C        3.23428410      10.14692687       5.88254158       0.00938019       0.00156127      -0.00074467
H        3.50033661       9.08647840       5.79269774       0.01115881       0.00222427      -0.00167743
H        3.78977155      10.59358974       6.71173180       0.01225254       0.00314817      -0.00341412
H        3.52343396      10.67399774       4.97814696       0.00412321       0.00082779      -0.00260100
H        1.63788900      10.05390218       6.96327352       0.01194685      -0.00842110       0.00366407
O        7.04499012       6.65861791      12.75688151       0.01012117      -0.01550788      -0.02992801
C        6.66982824       7.95053738      12.29731592       0.00347348      -0.00708303       0.00071563
H        7.06826918       8.15321680      11.29968118      -0.00473432       0.01617089       0.00247213
H        7.01113140       8.73951542      12.97509093       0.00676811      -0.02134025       0.01507014
H        5.58170945       7.99379997      12.25644414       0.00315154      -0.00973362       0.01017062
H        8.02367694       6.61112878      12.69494758       0.01137878      -0.00552548      -0.01979207
O        5.44944864       5.55669419       1.25881781       0.00878417       0.01809782      -0.01194537
C        4.40945693       5.05986307       0.44825822       0.00882870       0.00894354      -0.00662526
H        4.71537128       4.16818410      -0.11438283       0.01134287       0.00902003      -0.00493135
H        4.04661932       5.80765234      -0.26771985       0.00178476       0.00475138      -0.00763077
H        3.57305405       4.78317615       1.09160539       0.01262394       0.00701513      -0.00252861
H        6.11638148       5.94170055       0.65859998       0.01268474       0.00334903      -0.01682094
O        2.00819378       5.37637437      10.30057418      -0.03334302      -0.00511247       0.04132861
C        1.02003028       5.78193891       9.34811148      -0.00519659      -0.01198348       0.01062392
H        1.46361621       6.06179591       8.38869721       0.02246837      -0.02596659       0.02045926
H        0.40231847       6.59868543       9.73493542      -0.01155268      -0.00500295      -0.01641428
H        0.37683594       4.92503025       9.16249567      -0.00371890      -0.01160437       0.00341831
H        2.66646371       6.07324426      10.37066147      -0.02984449      -0.00964910       0.05090671
O       10.33038682      11.74386864       2.63785410       0.00317681       0.01371221       0.02408451
C        9.54300814      11.72484348       1.45652094       0.00962707       0.02083855       0.02009314
H        8.50007407      11.46408154       1.66856238       0.01150835       0.01233439       0.01402067
H        9.94335893      11.01361070       0.72650315       0.01517378       0.02771306       0.01712532
H        9.57109343      12.71833381       1.01153605       0.00801253       0.02416158       0.02761426
H       10.64354310      10.83640198       2.78467273       0.01477410       0.01580854       0.01420403
O        1.98797348      12.68867699       4.67238223      -0.00180770       0.00060605       0.00890094
C        1.53170818      12.18545911       3.42082621       0.00522320       0.01091240       0.00214553
H        1.92650379      12.83528911       2.64331519       0.01877266       0.01074481       0.00929305
H        0.44127630      12.19288200       3.37272956       0.00627607       0.02175708      -0.00755918
H        1.90732797      11.17399945       3.25104759      -0.00198877       0.00887173       0.00093169
H        1.73525156      12.06572561       5.37154080       0.00064381      -0.00746788       0.00258929
O        3.93379483       0.45873502       1.67692966       0.00661105      -0.00781709      -0.00497419
C        4.64917790       1.55299513       2.21633941      -0.00134072      -0.00725299       0.00385058
H        5.71515563       1.51545200       1.96254749      -0.00083750       0.00009705       0.00952300
H        4.55918566       1.60173796       3.30651597      -0.00798672      -0.01096387       0.00327033
H        4.23238416       2.46906971       1.79433403      -0.00122467      -0.00752798       0.00384311
H        4.25989945      -0.33378977       2.15183462       0.00240945      -0.00975631      -0.00566585
O       12.48331847       4.23666477       6.70851594      -0.00554121      -0.00239444       0.01025262
C       11.39688352       3.67357373       7.41673508      -0.00510842      -0.01245725       0.00302619
H       10.42562273       3.97624332       7.00487448      -0.00561348      -0.00921945       0.00677301
H       11.41060779       3.94267392       8.47882783      -0.00521124      -0.02386489       0.00587964
H       11.47474596       2.59082935       7.33530136      -0.00342790      -0.01133597      -0.00836536
H       12.49253248       5.17845423       6.91790617      -0.00896734      -0.00512524       0.02354110
O        5.52521627      -0.50107464       9.04361650       0.03063524      -0.00034381       0.00712067
C        4.34706096      -0.02322940       9.65982797       0.02419186      -0.01310689       0.00305466
H        3.52882018       0.10321697       8.94664424       0.02910894      -0.01360053      -0.00215480
H        4.52382711       0.93033073      10.17794924       0.01402235      -0.01541293       0.01098484
H        4.04852329      -0.76255729      10.40360718       0.02399321      -0.02075239      -0.00452141
H        5.74263376       0.08364244       8.31227762       0.03156126       0.00404072       0.01099572
O        0.12382338       6.44792038       4.43858615       0.00031796       0.00207961      -0.01956819
C        0.43486136       7.77113915       4.86572656      -0.00609436      -0.00104809      -0.00648698
H        1.10178928       8.29009014       4.17492030       0.00382799       0.00385118       0.00716239
H        0.90353159       7.76949936       5.85266027      -0.02127311      -0.00813583       0.00044304
H       -0.49166870       8.34432318       4.93803787      -0.00711980      -0.00148360      -0.01590469
H        0.90410470       5.91068162       4.69183190      -0.00223798      -0.00067218      -0.01491477
O        2.55848344       5.43634768       5.21378257      -0.01647513      -0.01359744      -0.01424342
C        3.20603588       4.74991936       4.13873709      -0.00433284      -0.00022556      -0.01512039
H        2.51089056       4.62733194       3.30504469       0.00620025       0.01736411      -0.02588177
H        3.53739863       3.75920543       4.44974514      -0.01414445      -0.00681168      -0.02632017
H        4.06767691       5.31622155       3.78812360       0.00332686       0.00039604       0.00559571
H        2.51658017       4.80789282       5.97272324      -0.01007366      -0.01549456      -0.01526034
O       11.43751486       9.19685949       2.44469017       0.00959703       0.02621335       0.01248509
C       12.78181509       9.53822974       2.06166383       0.00820141       0.01795562      -0.00046808
H       13.32479842       8.65966653       1.71075670      -0.00034215       0.01466328      -0.00488926
H       13.31890217       9.99335963       2.89215970       0.01823089       0.01574062      -0.00586605
H       12.70105997      10.26748019       1.25961532       0.00446333       0.01792343      -0.00010498
H       11.48622086       8.47064897       3.07194203       0.01144581       0.03171760       0.01871431
O        2.06628956       8.99030158       8.60145251      -0.01259172      -0.00390127      -0.00110854
C        3.32679787       8.35415662       8.78772031      -0.01073003       0.00255279       0.00918328
H        3.42751919       7.45613114       8.16881946      -0.00011735       0.00478727       0.00794448
H        3.49744177       8.10548300       9.84140765      -0.01944390       0.00135878       0.01019073
H        4.09254582       9.06362121       8.48480280      -0.01233940       0.00767951       0.01740877
H        1.37021883       8.36292551       8.81575195      -0.01122281      -0.00738665      -0.00645140
O       11.72350869       6.68350825       8.22849196      -0.00404695      -0.01379490      -0.00460684
C       10.78824096       7.19050549       7.27348221      -0.00560653      -0.00305685       0.00256903
H       10.21468738       8.03175821       7.66859475      -0.00055650      -0.00392574       0.01154627
H       10.09976552       6.41036508       6.93983580      -0.00973952       0.00206059      -0.00067922
H       11.37570574       7.53439063       6.42355787      -0.00737061       0.00132810       0.00317061
H       11.22781780       6.26611288       8.94366207      -0.00186497      -0.01893684      -0.00583115
O        7.04639876       5.87878836       5.48925157      -0.00624436       0.01049872      -0.02312988
C        5.93906773       6.78183547       5.35348090      -0.00458442       0.01445000      -0.00978470
H        5.54823148       6.75438954       4.33609038      -0.00063075       0.03542029      -0.01143968
H        6.21908499       7.80499794       5.61510951      -0.00402898       0.00851896       0.01113859
H        5.16424402       6.42729868       6.03027485      -0.00778718       0.00209687      -0.02018431
H        7.71402215       6.12010982       4.84182385      -0.00293568       0.02286209      -0.01491818
O        2.11683615       1.78859082       5.14232430       0.00099605      -0.00184545      -0.00612044
C        1.32991680       2.15347844       4.00987691      -0.01328978       0.00401568       0.00630221
H        0.59301652       1.38168776       3.78572400      -0.02360907       0.01094493       0.01807332
H        1.96209315       2.29061853       3.12556004      -0.02632689      -0.00212010      -0.00377592
H        0.80203466       3.08128245       4.22389392      -0.00053847       0.00948796       0.01319543
H        2.17291565       0.80220003       5.11369220      -0.00530960      -0.00289387      -0.00432380
O       12.77328706       0.51955447      10.75949521      -0.01529354      -0.00986212      -0.00135610
C       11.54960349       0.74881629      10.13285384      -0.01919645      -0.01702128       0.00409111
H       11.38608096       0.06314381       9.28818695      -0.02294945      -0.02832845       0.01646301
H       11.49736559       1.77204020       9.74070387      -0.01988278      -0.02298480      -0.00731100
H       10.71500589       0.61325639      10.83015315      -0.01242280      -0.00732657       0.01237589
H       13.58277080      -0.09750261       9.23283845      -0.01099872      -0.01277841      -0.01053909
O        8.05006586      10.01690568       5.08362092      -0.01803172      -0.01535422       0.00802004
C        8.43284883       9.12261978       4.07052344       0.00180236      -0.00606084       0.00739256
H        9.31841358       8.57101744       4.40075878      -0.00745937      -0.01192535       0.02158426
H        8.67831430       9.63646368       3.13693411       0.02354558       0.00267962       0.01860368
H        7.63671141       8.40091615       3.84629415       0.00485411      -0.00092724      -0.01735577
H        7.29661304      10.59293039       4.68122523      -0.01785451      -0.02098684       0.00174714
O        2.69600880       3.51575054       7.08363387      -0.00676358      -0.00847429      -0.00788556
C        4.07733664       3.41572660       7.39494978      -0.00664064      -0.01276528      -0.01033042
H        4.71925075       3.56731692       6.52135037      -0.00780021      -0.01270171      -0.01128435
H        4.32395548       2.44363085       7.83319004      -0.00859338      -0.01437777      -0.01274751
H        4.31254859       4.18956440       8.12838073      -0.00265544      -0.01492572      -0.00928985
H        2.45346232       2.79690650       6.44216739      -0.00863710      -0.00951184      -0.00685086
O        8.77342134       9.98236605       9.64708240       0.00569208      -0.01560277      -0.00941777
C        9.03438096      10.97934440      10.61363773      -0.00091762      -0.00342068      -0.02021441
H        8.67595950      11.96528287      10.30193684      -0.00865667      -0.00958139      -0.03103158
H       10.10285253      11.05698015      10.85633360      -0.00113082       0.00721282      -0.02301868
H        8.50371815      10.70325198      11.52659249       0.00559159       0.00122333      -0.01450205
H        9.13802829      10.26297759       8.78624740      -0.00150146      -0.01717243      -0.01311415
O        9.74385721      10.50941353       7.11021460      -0.01130033       0.00630115      -0.00390180
C       11.07311198      10.56842659       6.62271994      -0.01145399       0.00346170      -0.00483420
H       11.15634577      10.11513072       5.63062034      -0.01135251      -0.00421175      -0.00135797
H       11.72733482      10.02023501       7.30442577      -0.01103385       0.00910364      -0.00077856
H       11.43563607      11.59678987       6.54766860      -0.01244714       0.00295508      -0.01325136
H        9.11733832      10.42590430       6.35490319      -0.01283278       0.00112092      -0.00198887
O       13.43899462       6.16409926       1.50689042       0.00529516       0.02346449       0.01306891
C       12.19026186       6.37029746       0.86618841      -0.00233087       0.01389242       0.02671313
H       11.41365854       6.72369953       1.54506178       0.00919050       0.03578673       0.02788550
H       11.81782779       5.45938814       0.38976233      -0.01473897       0.00416929       0.05659996
H       12.32271410       7.12474389       0.08955284      -0.01049856      -0.00662488       0.00648090
H       13.31894233       6.08029025       2.46597066       0.01744495       0.03720991       0.01665582
O       10.85680254       4.76581411      10.95778560       0.00799781       0.02193688      -0.01034869
C        9.93142805       3.70204918      11.21561576       0.00651602       0.02163336      -0.01550835
H       10.29312994       3.03593645      12.00112497       0.00712243       0.01815248      -0.01888774
H        9.73770834       3.12470710      10.31016560       0.00593603       0.02602302      -0.01796719
H        8.99152339       4.14325252      11.54803291       0.00667068       0.02024651      -0.01324192
H       11.74993573       4.52753682      11.27080748       0.00474614       0.01542774      -0.00421020
O        9.72637203       6.73536884      12.39711901       0.01331395       0.00888437       0.00950720
C       10.22073419       7.95384065      11.84406423       0.00180313       0.01374525       0.00982390
H       10.09664438       8.73584370      12.59229927      -0.00271041       0.01153034       0.01123011
H        9.68795414       8.24616287      10.93560805      -0.00278768       0.00991292       0.01132223
H       11.28587585       7.86548507      11.61281550       0.00190997       0.02317689       0.00653776
H       10.14241238       6.00754682      11.89023022       0.01448210       0.01329829       0.00372558
O       12.06430507      -0.06857263       4.24415859      -0.00441435      -0.01679838       0.00308037
C       11.77423245       0.79545438       5.32009055      -0.02464092      -0.01251048      -0.00739875
H       11.34306179       0.26847043       6.18116730      -0.04527107      -0.00777820      -0.01515082
H       11.09339718       1.60604070       5.04030632      -0.01606399      -0.01139086      -0.02431153
H       12.71603623       1.24523729       5.63531964      -0.03028786      -0.01405348       0.01094952
H       11.26077847      -0.42141367       3.83534856       0.00296765      -0.01422975      -0.01491188
O       12.02886019       3.42415423       2.71277172       0.00285181       0.00356388      -0.01876271
C       11.02248098       4.15019057       3.39722039       0.00181282      -0.00847155      -0.00722367
H       10.52044745       3.55035449       4.16188443       0.01256965      -0.01705793      -0.00734967
H       10.26616584       4.54623229       2.70818515      -0.00645822      -0.01155736       0.00031853
H       11.51885162       4.97882502       3.90301109      -0.00196365      -0.00688785      -0.00642841
H       11.69930808       2.55693040       2.44803036       0.01176146      -0.00211062      -0.01088731
