200
Lattice="14.045499365480682 0.0 0.0 0.0 14.045499365480682 0.0 0.0 0.0 14.045499365480682" Properties=species:S:1:pos:R:3:forces:R:3 energy=-1251483.375 stress="-0.004046290181577206 -1.7079434201150434e-05 -0.0007473618607036769 -1.7079434201150434e-05 -0.0046894485130906105 0.001525573548860848 -0.0007473618607036769 0.001525573548860848 -0.003980311565101147" pbc="T T T"
Bk      11.98132849      15.04977899      -1.23268867      -0.05218872       0.03610384      -0.04290044
S        7.55855787      11.58041024       2.93591198      -0.00526091       0.01691008       0.00076371
N        7.21706308      14.32221998       3.48863591       0.04596773       0.02736664      -0.01787269
C        7.33338830      13.17205201       3.26007705       0.02351985       0.01723593      -0.01043729
S        7.90729699      12.37067124       9.97456906      -0.00802256       0.00341415      -0.00292205
N        5.75057524      10.60662391      10.45914422       0.03284393       0.03492504      -0.04582130
C        6.64950759      11.31196464      10.24228138      -0.06992394      -0.04920059      -0.00461042
S        6.84745553      13.78974468       8.63924217       0.01503983       0.01450046      -0.00895417
N        8.88750653      13.94114655       6.69885013       0.04572538       0.00706550      -0.03232842
C        8.03140720      13.88201071       7.48238427      -0.06596616       0.00695972       0.06768361
S        3.78968241       5.48449509       9.82790299      -0.00245726      -0.00227308       0.00916058
O        2.37613403       5.00616232       9.62125260      -0.00259626      -0.00031912       0.01132803
C        4.65913256       4.08679960      10.57784778      -0.00237341      -0.00352591       0.00552726
C        3.75124236       6.56386151      11.27262596       0.00149777      -0.00474530       0.00996745
H        4.73430472       3.31036451       9.81551912      -0.00258598      -0.00278185       0.00502370
H        4.09845271       3.73791377      11.44558172      -0.00003321      -0.00476012       0.00631420
H        5.65516527       4.40292099      10.88153178      -0.00257634      -0.00291045       0.00370097
H        4.74549363       6.92069895      11.53277273       0.00102755       0.00033224       0.00261254
H        3.29764003       6.04176222      12.11432130       0.01105514      -0.00694576       0.01325975
H        3.14411421       7.42206748      10.98868782      -0.00453569      -0.00800665       0.01484971
S       12.27104240      11.34020394       8.91303748       0.02385777       0.01342237       0.00619030
O       11.72679104      11.13130474      10.30292061       0.01934755       0.01376078       0.00310683
C       13.78258995      12.29192392       9.07874662       0.01867747       0.02094066       0.01360559
C       11.32822874      12.66295167       8.14653803       0.02160701       0.00784963       0.00057273
H       14.51478603      11.67270184       9.58535416       0.02179028       0.02088290       0.00929126
H       13.55296278      13.21054504       9.62118132       0.01258957       0.01305136       0.02313311
H       14.14870001      12.50214334       8.07403930       0.01884578       0.03517439       0.01744249
H       11.70217434      12.79575148       7.12996959       0.02330703       0.00608765       0.00135192
H       11.41816508      13.58568314       8.71802544       0.02028244       0.00829295      -0.00113620
H       10.29317649      12.34640189       8.11250727       0.02261382       0.00479084       0.00196863
S        5.50252708       7.74880797       4.58631148       0.01466805      -0.00989366      -0.01704931
O        4.65455170       6.83676896       5.41072650      -0.00224364      -0.00226724      -0.02642143
C        7.16442579       7.07608384       4.50952259       0.00980806      -0.02172428       0.01016641
C        5.87932985       9.22985320       5.52479932       0.00773504      -0.01133525      -0.01330984
H        7.10479876       6.11816709       3.99217466       0.00981927      -0.02027670       0.00837123
H        7.53592955       6.95206535       5.52548064      -0.01054888      -0.02565267       0.01626512
H        7.79846081       7.76302110       3.95138569       0.02634823      -0.02798602       0.02276996
H        6.54306439       9.84735160       4.91631098       0.01235547      -0.01059368      -0.00674776
H        6.31901324       8.96180565       6.48595991      -0.00045745      -0.01225448      -0.01026291
H        4.95064751       9.78406579       5.63406379       0.00654173      -0.01254450      -0.01990423
S        5.39000667       3.41523167       3.00259342       0.00115466       0.00216693      -0.01164053
O        6.75580925       3.91734073       3.36518874      -0.00396037       0.01303506      -0.00823364
C        5.56588800       2.39484888       1.53464815       0.01497702       0.00537297      -0.01142013
C        4.55363709       4.81864224       2.26117699      -0.00812665      -0.00465405      -0.01387522
H        6.15015910       1.52929566       1.85232370       0.02042373       0.01012069      -0.01026489
H        6.08215785       2.95931756       0.75641817       0.01392975       0.01092906      -0.00761326
H        4.56988266       2.08466095       1.21505773       0.01939759      -0.00186272      -0.01636022
H        3.57823687       4.51328757       1.88605359      -0.00037867      -0.01364190      -0.02529760
H        5.18461116       5.24056313       1.47648032      -0.00493547       0.00338894      -0.00628020
H        4.38261652       5.53266062       3.06710988      -0.02300469      -0.00819576      -0.01467863
S        3.48612754      12.67695556       4.92251520      -0.00109550      -0.01524568       0.00213823
O        3.75071922      11.27863837       4.46595082      -0.01251151      -0.01739943       0.00148332
C        3.57357109      12.67268887       6.72169352       0.00886085      -0.01171724      -0.00105882
C        1.69894313      12.85293143       4.81946632       0.00241590       0.00124954       0.00594320
H        4.61697544      12.53000162       6.99275040       0.00808936      -0.02451299      -0.00646779
H        2.95546360      11.86307663       7.11419964       0.00197066      -0.00353995       0.00246473
H        3.24656295      13.64494901       7.09133587       0.02370029      -0.00780700      -0.00098027
H        1.36998778      13.81039155       5.22128976       0.01535865       0.00705197       0.00106493
H        1.23125911      12.03090296       5.35775377      -0.00291251       0.00954616       0.01199518
H        1.44533672      12.78702753       3.76427856       0.00053386      -0.00180139       0.00717334
S        9.35769348       9.93288909       7.83755712       0.00898743       0.00645840       0.00384859
O        8.00675380       9.52589137       8.33849832       0.01117611       0.00424820       0.00270694
C        9.08918490      10.57012833       6.18610395       0.00819850       0.00863969       0.00486273
C       10.31853315       8.48112886       7.32081843       0.01142856       0.00908011       0.00340486
H        8.38787737      11.39673209       6.26085030       0.00743791       0.00694426       0.00750853
H        8.67189906       9.78092662       5.56559224       0.00797603       0.00912529       0.00439531
H       10.03231867      10.92379816       5.77231055       0.00700702       0.01018200       0.00487691
H       11.23269376       8.86112015       6.86501341       0.01261854       0.00959462       0.00741551
H        9.76970818       7.88605530       6.59330210       0.01394352       0.01015266       0.00077760
H       10.56285707       7.90583869       8.21061891       0.00865020       0.00773465       0.00297193
S       11.80442472       6.76087959      12.57941216       0.01058614      -0.00356364       0.00281626
O       12.54856065       5.46323488      12.65695973      -0.02325594      -0.01487362       0.00399875
C       10.81789842       6.63217829      11.07380400       0.01286024       0.02180461      -0.00319570
C       12.95155817       7.98725430      11.91870893       0.01864824      -0.00112659       0.00783053
H       10.03723143       5.90646988      11.28748403       0.00928151       0.02610148      -0.00883301
H       11.45790374       6.27812224      10.26401950       0.01301268       0.01811575      -0.00062072
H       10.36896609       7.59514305      10.82906495       0.01563527       0.02234048      -0.00567123
H       12.40524665       8.88179586      11.61234929       0.02154407       0.00200634       0.00886237
H       13.47521093       7.54977673      11.06752756       0.02262634       0.00279063       0.00900365
H       13.65468930       8.23226371      12.71174761       0.01464702      -0.00428436       0.01070125
S        5.92140534       2.34181097       6.13366675      -0.02160487       0.00156711       0.00922513
O        5.70828846       1.61135774       7.46369899      -0.01321770       0.01213104       0.01680040
C        7.67787291       2.74438797       6.03895239      -0.02154219      -0.00534739      -0.00597830
C        5.30836970       3.98621255       6.48048969      -0.01278728       0.00490916       0.00262260
H        8.15809769       1.94883977       5.47755210      -0.02800411      -0.00790824      -0.00713497
H        8.06345009       2.78649709       7.05631283      -0.01651913      -0.00356362      -0.00856717
H        7.78350856       3.68955487       5.51409713      -0.02117310      -0.00710364      -0.00928402
H        5.56685054       4.66911415       5.67500457      -0.02742433      -0.00396147      -0.00858572
H        5.73685980       4.35820291       7.40992667       0.00442658       0.01374846      -0.01006602
H        4.22500993       3.92408206       6.55734243      -0.01071683       0.00646762       0.02399977
S       12.08757969       5.73720713       2.67109841      -0.00411785      -0.01648283      -0.00466347
O       12.25090378       6.90007510       1.73944584       0.00387910      -0.01552641      -0.00158596
C       12.80127791       6.16686181       4.29851325      -0.00449330      -0.02092347      -0.00506026
C       13.34684257       4.55914891       2.11149530      -0.00779992      -0.02054638       0.00133666
H       11.96195588       6.45112494       4.92672561      -0.00137542      -0.00751877      -0.00775667
H       13.46872050       7.01511164       4.18383134       0.00845847      -0.03205766      -0.00700446
H       13.35485219       5.32583513       4.70800979      -0.01730816      -0.02700418      -0.00146653
H       13.59347879       3.83340309       2.88482127      -0.04404039      -0.04094526      -0.00882822
H       14.24335941       5.11017397       1.83950675       0.00896306      -0.03172281       0.04232494
H       12.92250509       4.08277633       1.22937525       0.00812481       0.00487724      -0.01818398
S        2.07692554       8.86046456       8.73557451      -0.01009187      -0.00301993      -0.01195097
O        1.62384697      10.22310044       8.30720783      -0.01544821      -0.00680649      -0.01865435
C        3.66591606       8.61755593       7.95362921      -0.00660431      -0.00058205      -0.00497043
C        1.14096054       7.67663449       7.75606786      -0.00101662      -0.01148239      -0.00933403
H        4.38032984       9.26121758       8.46626362      -0.00995295       0.00171837      -0.00388193
H        3.54752476       8.91879191       6.91518069      -0.00159368      -0.00491901      -0.00657825
H        4.00554191       7.58461932       7.99313570      -0.00549541       0.00027052       0.00142391
H        1.46157736       6.66806048       8.01549430      -0.00108853      -0.00846814       0.00102691
H        1.29850606       7.88058245       6.69768651       0.00563888      -0.02035739      -0.00962541
H        0.09427323       7.81858579       8.02164787      -0.00270274      -0.01172818      -0.01747863
S        9.48510901      11.98742897      13.80003034       0.00312340      -0.01928860      -0.00007850
O        8.38987780      12.94443594      13.46765940       0.00904977      -0.00991797       0.01443422
C       10.94335442      12.60899699      12.85906957       0.00162342      -0.01785806       0.00436544
C        9.26448292      10.49314919      12.82072799      -0.00488493      -0.01166078      -0.01200989
H       10.51773383      13.51516812      12.41852622       0.00385515      -0.05833402      -0.06047636
H       11.25395268      11.95145418      12.04458493       0.05076253      -0.04714687       0.06088656
H       11.77549498      12.80739768      13.54559384      -0.03574064       0.04670189       0.01454037
H       10.12020031       9.84475851      13.01359352      -0.00646174      -0.01389877      -0.01275796
H        9.21287965      10.73762297      11.76024991      -0.00034748      -0.00266951      -0.00972998
H        8.35149827      10.01676226      13.17247820      -0.00755879      -0.01082423      -0.01692420
S       10.48440332       9.27561068       3.50858618       0.00955157       0.00055647       0.00357467
O       10.28659989       7.92529385       4.13207585       0.00343418       0.00507367       0.01031131
C       10.08192858       9.12918813       1.76889106       0.00823680      -0.00882690       0.00518525
C       12.26107087       9.52824959       3.32964072       0.01012397      -0.01051534       0.00138106
H        9.00579934       8.97714143       1.70140711       0.00777009      -0.00357354       0.00712576
H       10.64370981       8.30056408       1.33971988       0.00396097      -0.01457608       0.01153087
H       10.32564826      10.08901542       1.31725499       0.01390233      -0.01434220      -0.00209009
H       12.41849008      10.50095191       2.87112861       0.01537946      -0.01707617      -0.00991673
H       12.68127194       8.71845624       2.73517840       0.00544754      -0.01784465       0.00865512
H       12.67017416       9.56537171       4.33696973       0.01110775      -0.00361205       0.00031260
S        9.49085808       3.02837224       1.68045047      -0.03470027      -0.02131832      -0.00340009
O        9.96408277       4.24993459       0.97309505      -0.03650564      -0.02278697      -0.00695097
C       10.30934095       2.90210586       3.28789697      -0.05483407       0.00213823       0.00433511
C       10.47217794       1.67603971       0.92039138      -0.01484907      -0.01502305       0.02044239
H        9.99945632       3.76559484       3.86976830      -0.06901205       0.00643820      -0.01071007
H       11.39308958       2.89726802       3.16872177      -0.05533488       0.01074104       0.00804593
H        9.96140694       1.98730412       3.76687698      -0.05231073       0.00261332       0.00636510
H       10.18391870       0.70757866       1.32596575       0.00604007      -0.01292622       0.03560842
H       11.54434379       1.89215048       1.05264560      -0.01930033       0.00363034       0.00920678
H       10.19069836       1.71493956      -0.12683848      -0.02667984      -0.03011721       0.02521450
S       12.14815328      13.61924405       4.13027092      -0.00159270       0.00473773       0.01388931
O       12.73330681      12.53836216       4.98361006      -0.00676274       0.01863027       0.03373337
C       10.46943021      13.11532468       3.77315848       0.00374138       0.00064608       0.00888737
C       12.80910348      13.36793119       2.45644022       0.01461977      -0.00903767       0.02456874
H        9.93738389      13.12140295       4.72196217      -0.00594874       0.00414226       0.00210738
H       10.45656441      12.11594497       3.34003713       0.00995169       0.00035167       0.01091290
H        9.96961527      13.82343689       3.11560977       0.01095330      -0.00085524       0.00327370
H       12.23126134      13.97198346       1.76012227       0.02426855      -0.00849114       0.01776590
H       12.72098671      12.31323261       2.19885579       0.01367598      -0.00445904       0.01151818
H       13.85003531      13.68211377       2.43503216       0.01798269      -0.02038627       0.06056332
S        1.45199742       7.28641666       2.69085761      -0.00424778       0.02283847      -0.01518977
O        1.89261806       6.07215259       3.44193671      -0.01120412       0.01507545      -0.02387488
C        2.39700155       7.30020997       1.15587900      -0.00570321       0.02267165      -0.01521337
C        2.17539376       8.70875314       3.51314389       0.00643316       0.01177412      -0.00793040
H        2.06488158       6.41840641       0.60919709      -0.01417657       0.02892433      -0.01902829
H        3.46235706       7.23142338       1.36219960      -0.00671238       0.01144544      -0.01562594
H        2.17450942       8.19196910       0.57353237       0.00365888       0.02728921      -0.01093628
H        1.95561537       9.61757901       2.95665325       0.01141837       0.01647764      -0.00148098
H        3.24730291       8.58283873       3.64041536       0.00536257       0.00444808      -0.01000311
H        1.69559019       8.76684917       4.48858409       0.00867976       0.00953333      -0.00707649
S        8.60494106       2.08636176      12.25841666      -0.00456899       0.03704536       0.01749139
O        9.84631318       1.29953462      11.80955837       0.00351089       0.04644907       0.02350029
C        7.11982186       1.22984848      11.77147132       0.02296335       0.00148636       0.02144584
C        8.60127826       3.37629527      11.04651830      -0.01649366       0.03366327       0.01194581
H        7.10301382       0.28095326      12.30125466       0.05160366       0.00461376       0.02453874
H        7.08981860       1.09389049      10.69210202       0.02118129      -0.00669945       0.02256286
H        6.30325249       1.87405800      12.10629904       0.01447414      -0.01745602       0.02975190
H        7.80368383       4.08783216      11.24534254      -0.02391715       0.02254803       0.02176870
H        8.49484919       2.90925715      10.06832796      -0.00318540       0.02777189       0.01364765
H        9.56929942       3.86312718      11.13820108      -0.01819938       0.03744560       0.01198746
S        5.92696394       9.73498319       0.25329880      -0.00825381       0.00118828      -0.01485026
O        5.35746696       8.80011480      -0.77006131      -0.01577163      -0.00255001      -0.00684690
C        4.91380677       9.55209934       1.71478557      -0.00727654       0.02107875      -0.01240051
C        5.38374913      11.41463020      -0.11417580       0.00338268       0.00065178      -0.02938890
H        5.06505850       8.53987093       2.07944918      -0.01282072       0.02396311      -0.00309866
H        3.87572640       9.69796685       1.42048805      -0.00639807       0.02553999      -0.01223370
H        5.21063494      10.26963489       2.47933662      -0.00111155       0.02568455      -0.01973447
H        5.56988437      12.01001373       0.78067120       0.02043414       0.00994217      -0.04023519
H        4.32638276      11.37932194      -0.37674363       0.00031102       0.00859349      -0.01610668
H        5.98007333      11.79487314      -0.93770943      -0.00459951      -0.01656975      -0.04196458
S        7.77880187       6.85243286       8.55871537      -0.00365663      -0.00009903      -0.00540966
O        6.50545187       6.78832605       7.78519875      -0.00861573      -0.00310768       0.00389916
C        8.38063396       5.15700016       8.55188503      -0.00402920      -0.00001240      -0.00455120
C        7.28464007       7.00721161      10.28431853       0.00684673       0.00314701      -0.00303614
H        8.66862734       4.96911415       7.51942427      -0.00924870      -0.00465504      -0.00472289
H        7.58663022       4.46613396       8.83355708      -0.00343414       0.00280272       0.00223354
H        9.25845423       5.05957839       9.18713524      -0.00066665       0.00189449      -0.00938688
H        8.13550321       6.95346280      10.95799017       0.01088344       0.01030599      -0.00815063
H        6.55887098       6.22830748      10.51198647       0.01201882       0.00092003       0.00481289
H        6.81793056       7.98869189      10.36954830       0.00269750       0.00113289      -0.00425924
S        0.31021786       2.74631661      11.72955358      -0.01558737      -0.00022820      -0.01957589
O        0.08776821       1.75859347      12.90236605      -0.03448731      -0.01073119      -0.03616355
C        1.63638513       2.03741748      10.77090748      -0.00531071      -0.00430506      -0.01151653
C        1.16397037       4.15502283      12.37729399      -0.01237983      -0.01248485       0.01214314
H        1.28318189       1.09796483      10.35360135      -0.00422284       0.00183864      -0.02820498
H        2.49130803       1.87215337      11.42491537      -0.00960442      -0.01371341      -0.00874791
H        1.87872719       2.76084413       9.99039545       0.00556260       0.00077969      -0.00104371
H        1.46000216       4.72406419      11.48937507      -0.00156751      -0.00536442       0.02746278
H        2.03452066       3.81491873      12.93837177      -0.02294220      -0.02530095       0.01425570
H        0.45237350       4.72350383      12.97084773       0.00786552       0.01254261       0.00921980
