196
Lattice="19.22251283938951 0.0 0.0 0.0 19.22251283938951 0.0 0.0 0.0 19.22251283938951" Properties=species:S:1:pos:R:3:forces:R:3 energy=-1998605.75 stress="-8.844269905239344e-05 -3.6793615436181426e-05 -2.2196968529897276e-05 -3.6793615436181426e-05 -0.0001203855499625206 7.942868978716433e-05 -2.2196968529897276e-05 7.942868978716433e-05 -0.00017445196863263845" pbc="T T T"
Ca      18.38449265      18.97375630      -0.62659068      -0.00539088       0.01097644       0.01601881
S       18.83347283      17.80552277       1.78313240       0.00667715      -0.00963032       0.01505241
S       17.04513920      17.00158786       1.34227790       0.00073290       0.00877631      -0.02409364
O       18.55281607      19.28416292       1.67703764       0.01772696      -0.01230836       0.02677742
O       19.68342395      17.48990167       0.59073243       0.01409996       0.00435632       0.00144398
O       19.39974283      17.41007657       3.04140314      -0.00830853      -0.03873086      -0.00687766
Cl      11.52001023       5.64315198      13.09989491      -0.00396106       0.00152948      -0.00682536
Cl      10.71224804       7.68867493      14.99035034       0.01577453      -0.00134397       0.00494909
Cl      11.13994636       4.96593904      15.89499695       0.01577154      -0.00499260      -0.00558132
Cl       8.84870276       5.60006272      14.23480569       0.00495797       0.00555566       0.01318392
C       10.55199621       5.97692226      14.55904279       0.00833010       0.00001788       0.00159938
Cl       8.03193417      15.17058106      -0.10878905      -0.01765351      -0.00204802      -0.01285705
Cl       8.31494949      12.52921112       1.06417846       0.00432220       0.00018811      -0.01247309
Cl       8.28818525      14.88163630       2.75712599      -0.03030500      -0.00037727      -0.01100704
Cl      10.56484438      14.36860678       1.03227096      -0.01554662       0.02303690       0.00311998
C        8.80064851      14.23033525       1.18654415      -0.01502303       0.00574194      -0.00831829
Cl       3.79232372       1.84300761      19.23506838       0.00255704       0.00323054       0.00152326
Cl       0.49564137       1.81472910      17.91199251      -0.01093668       0.01841870       0.00720878
Cl       2.31082231       4.09430972      20.17764090      -0.00288662       0.00050384      -0.00151626
Cl       1.72361089       1.46939158      21.18018840       0.01412848       0.00260857       0.01396132
C        2.59245196       2.45277638      20.19779301       0.00670543       0.00261122       0.00715290
Cl       9.41517383      11.14768386      13.20349795      -0.00468928       0.00720961      -0.01659250
Cl      11.77624327      10.02015485      11.95015226       0.00224915       0.00039721       0.00255460
Cl      11.57833832      12.88493887      12.34941068      -0.00090125       0.00263435      -0.01414157
Cl       9.90276545      11.57378894      10.37765867       0.01096730      -0.00854111      -0.01653886
C       10.67578982      11.40714044      11.96512518       0.00187701       0.00028348      -0.01107988
Cl       3.16008740       3.35288323      15.79095904      -0.01060711       0.00703609       0.00340742
Cl       3.77869020       6.06532315      16.61780390      -0.00052398       0.00463682       0.00308198
Cl       1.04798787       5.11218067      16.71091324      -0.00590909       0.01801649      -0.00657356
Cl       2.32142825       5.58641874      14.15007492       0.00723867       0.00951637      -0.00190705
C        2.57379692       5.03572942      15.80978401      -0.00273485       0.00987379      -0.00033666
Cl       4.71599490      14.97754146       4.91027738       0.01266748      -0.00242439       0.00158322
Cl       2.20353218      14.88537461       3.47532395       0.01239944       0.02096829       0.00134662
Cl       3.02066943      12.62739105       5.10724405      -0.00813965       0.01239777      -0.00068915
Cl       4.42171978      13.20616778       2.63428386      -0.00285026       0.00123104      -0.00009096
C        3.58064964      13.92756161       4.02403024       0.00340955       0.00828947      -0.00003696
Cl       7.72191958       9.11406818       0.65384972      -0.00052735      -0.00589658       0.00839373
Cl       5.11580563       9.17108630       1.93179035      -0.00279218       0.00621272       0.00340986
Cl       5.82230607       6.98350271       0.15754251      -0.00396313      -0.00438878       0.01561217
Cl       5.33907314       9.63885372      -0.91939906       0.00402930      -0.00873801       0.00162143
C        5.98988011       8.73072331       0.45751403      -0.00102645      -0.00331712       0.00744683
Cl       0.21267219      10.21828430      13.52577439      -0.01345606       0.00267628      -0.00309014
Cl       0.80306779       8.76532891      15.96475088       0.01090959       0.01804025      -0.00122061
Cl      -1.01984016       7.64027473      14.01108534      -0.00217664       0.00201547       0.02045470
Cl      -1.81482016       9.94899545      15.58166891       0.00336757       0.00722599       0.01516038
C       -0.45638672       9.14118504      14.77071918      -0.00057446       0.00761733       0.00801700
Cl      13.45801639      16.66432410       1.00229770      -0.00714740      -0.00340724      -0.00118938
Cl      13.85492172      16.88472972       3.86621096       0.02551371       0.00738516      -0.00694084
Cl      11.39994935      17.85317028       2.66241770       0.00817543      -0.00485275       0.01981468
Cl      13.89005630      19.26128721       2.20302776      -0.00262389       0.00253552      -0.01648208
C       13.15499430      17.66340977       2.44260535       0.00618573       0.00054113      -0.00103106
Cl       2.05922400      17.39150822       6.60442932       0.00081187       0.03591046      -0.00935316
Cl       2.33395178      15.00048287       8.20752375      -0.02617505       0.01929247      -0.02622884
Cl       0.97149329      17.32027598       9.29482339      -0.00169796       0.02620362      -0.01183626
Cl       3.83965560      17.37482695       8.89905874      -0.00067234      -0.00270805      -0.00847259
C        2.30320344      16.77286254       8.24607821      -0.00645478       0.01899135      -0.01417512
Cl       5.79362479       0.71932125       2.89645197      -0.00747287       0.01097872       0.01395283
Cl       8.12755306      -0.55173628       1.75235504      -0.02646276      -0.01295599       0.00083125
Cl       8.43550382       1.41264752       3.86424138       0.00534330      -0.00255050      -0.01356250
Cl       7.59671192       2.25407329       1.21695715      -0.01145073      -0.01258808      -0.01160941
C        7.49939508       0.95697953       2.43479714      -0.01026038      -0.00479450      -0.00257909
Cl      11.46639508       0.88428729       9.66676834      -0.00298363      -0.00312448      -0.01050380
Cl      13.16121445       2.01515457       7.60966457      -0.00165664      -0.00895305      -0.01269060
Cl      13.82625818       2.39057030      10.40184989       0.01408643      -0.02700386      -0.01418751
Cl      11.52995445       3.74999397       9.26936234       0.02094546      -0.00194561       0.00199559
C       12.49513646       2.26153279       9.23108892       0.00756129      -0.01044560      -0.00866955
Cl       4.80300770      -1.59264721      17.99067843      -0.00038359      -0.00471564      -0.00543579
Cl       7.55689268      -0.97505786      17.32034400      -0.00452214      -0.00627652      -0.02182066
Cl       5.41841548       0.69178562      16.30129458      -0.00895504       0.00520934       0.00487358
Cl       5.77053484      -2.00623017      15.28833977      -0.02203167       0.01117459      -0.01544830
C        5.89397068      -0.97797861      16.72185058      -0.00881431       0.00138503      -0.00948631
Cl       2.71068904       8.92557211       5.42274393       0.00664079      -0.00282764      -0.00307229
Cl       0.09623124      10.05824745       5.96314883       0.00237662      -0.00336695      -0.02142420
Cl       0.88500565       7.58141442       7.22848703       0.00310387       0.00683767       0.00081298
Cl       0.32635033       7.64420517       4.38042403       0.01257259      -0.01482853      -0.00163779
C        1.00008226       8.55051681       5.75003918       0.00629383      -0.00364277      -0.00602919
Cl       5.28553455       4.70250045       3.51741297      -0.00688091      -0.00453810      -0.00247133
Cl       6.96188506       4.32576798       5.85875183       0.00610419      -0.01443353      -0.01371548
Cl       5.94114727       6.96010894       5.21714896       0.00553530      -0.01052091      -0.00092198
Cl       7.98690657       5.75733619       3.55308092      -0.00540945      -0.00934760      -0.01589993
C        6.54718225       5.43497652       4.54078997       0.00029575      -0.00971255      -0.00792542
Cl      17.65678661      13.74273934      -0.78204945       0.02522305       0.01397151      -0.00105593
Cl      15.38902830      13.57940508       1.00447352       0.00527853       0.00043672      -0.02688922
Cl      18.03573139      12.86861779       1.95882491      -0.00148442       0.02912022       0.00730485
Cl      16.66549291      11.14692876       0.07626959       0.03968418       0.00812513      -0.00466803
C       16.94025419      12.82999508       0.57168758       0.01742644       0.01285215      -0.00652339
Cl       1.55286016       7.39904268      11.04519876       0.00766796      -0.00809282      -0.01050860
Cl       2.44857385      10.01354640      10.15884495      -0.01008257       0.00356266       0.00595914
Cl       4.12218685       7.68478129       9.72239579       0.00810301       0.01848084      -0.00385129
Cl       3.74824280       8.71524001      12.40455307      -0.00516929       0.00095525       0.00107482
C        2.97191755       8.45583699      10.82976120       0.00045411       0.00396669      -0.00195156
Cl       8.75595803      19.00904232       7.40407867      -0.00781167       0.00486779       0.00812988
Cl       7.52407206      16.49927115       8.15914951       0.01624277      -0.00819665       0.00409326
Cl       8.67155770      16.80913442       5.51298390       0.00277399       0.01083533      -0.00012925
Cl       6.23417387      18.21455676       6.21008334      -0.00504053      -0.01158819       0.01484127
C        7.79227949      17.63389727       6.82666657       0.00186437      -0.00122916       0.00701848
Cl      14.60945756       7.90480222      11.17649630       0.00694448      -0.01255804      -0.00671754
Cl      17.23417447       8.76282166      10.28999568       0.01067126      -0.00904606       0.01537098
Cl      15.79999633      10.30518493      12.28393574      -0.01048549      -0.00969398      -0.00109452
Cl      14.88446764      10.28491771       9.53623542       0.00864410      -0.01198119      -0.01662347
C       15.63114539       9.31987919      10.82264109       0.00423378      -0.01017179      -0.00254646
Cl       9.84293580      -0.39183850      12.68128043      -0.01018722      -0.00110042       0.01732963
Cl       9.17007298       1.35453578      14.89807362       0.00210655       0.00725030       0.01509047
Cl       9.23103631       2.39441331      12.19814006      -0.02024958      -0.00439712       0.00950459
Cl      11.70703109       1.66619377      13.53606214      -0.00934339       0.00675991      -0.00501454
C        9.98880550       1.25877744      13.32779488      -0.00979074       0.00204580       0.00920046
Cl       8.04779362       9.93681835       4.39484563      -0.01558415       0.00754115      -0.01512617
Cl       6.17376361      10.25420455       6.58158957      -0.01079369       0.01057312      -0.01181535
Cl       7.77340926      12.50828223       5.70669514      -0.00580974       0.00641268      -0.01159763
Cl       9.02843810      10.29921938       7.09925074      -0.00930092       0.00207673      -0.01630193
C        7.76436322      10.75155012       5.94463140      -0.01025896       0.00645254      -0.01349938
Cl       3.38147293       4.89474768       6.89504536       0.00755531      -0.00943789       0.01603230
Cl       1.36760133       4.05621896       4.98701912       0.01377971      -0.00496273       0.00714874
Cl       0.82671972       3.88547964       7.83228412       0.00222135      -0.00697288       0.00464809
Cl       2.74540639       2.08163823       6.61667691       0.00401056      -0.00805086       0.00997972
C        2.08506643       3.72631567       6.59340098       0.00693402      -0.00711313       0.00972901
Cl      17.98643498       3.60635838      14.37923316      -0.01384291      -0.01485535       0.00481126
Cl      17.50029460       4.90369528      11.82632500      -0.00334711       0.01598832       0.01939854
Cl      15.27012389       4.15854997      13.52055546      -0.01054904      -0.02226253      -0.00857967
Cl      16.82947948       2.10706335      12.18065484       0.01480249       0.00583035      -0.02390620
C       16.89737721       3.69552102      12.98722008      -0.00366482      -0.00429130      -0.00238390
Cl      12.32060163      11.95876245       6.24929615       0.02108315      -0.03241536       0.01454112
Cl      11.39202198      14.26748249       4.76980168       0.00018179      -0.00932449       0.04438190
Cl      11.21021106      11.62415572       3.59564576      -0.01604530       0.00567564       0.01508892
Cl      13.79519719      12.88436262       3.93018075      -0.01299143      -0.00165727       0.00123589
C       12.17951622      12.68736914       4.62926767      -0.00394422      -0.00970350       0.01915948
Cl       8.66837560       5.36913237      10.46460235      -0.03010118       0.00317752       0.00035667
Cl       8.16470775       8.15588242      11.07582253       0.00011641       0.01024339      -0.00496313
Cl       7.59317439       7.11596300       8.42557434      -0.00507385       0.01291326      -0.00498205
Cl      10.34233223       7.42979158       9.30122807      -0.00409657      -0.01717199       0.00176620
C        8.68577128       7.02154895       9.81865153      -0.01000315       0.00211260      -0.00169733
Cl      10.68082186      14.97300546      15.50355667       0.00446039       0.00793058       0.00048549
Cl      11.01976092      17.19719534      17.34057613      -0.00008976      -0.00162607       0.01259971
Cl      12.42637113      17.18019270      14.80639335       0.00887591       0.01003715       0.01758605
Cl      13.19045548      15.33035929      16.90677042       0.00035298      -0.00084522       0.01039250
C       11.82438613      16.17303401      16.13157977       0.00335785       0.00363539       0.01019997
Cl      17.56203586      14.01868596      12.58387676      -0.00344011      -0.03117293      -0.01007265
Cl      16.22266521      16.53444062      12.04377169       0.01099931      -0.01938403       0.00835738
Cl      15.08972081      14.67506235      13.95552786       0.01772839      -0.01183909       0.01892304
Cl      15.04868327      14.04248830      11.13278222      -0.01927200      -0.00728223       0.01799867
C       15.97340755      14.81126639      12.42649918       0.00176287      -0.01766892       0.00890221
Cl      14.35656211       6.63433252       2.71514672      -0.00459082       0.00517571       0.00080571
Cl      13.67800970       8.76571065       4.56994372      -0.00796506       0.00540173      -0.00173324
Cl      13.89494797       9.32503372       1.74044150      -0.01625139       0.00236854      -0.00380242
Cl      16.27596549       8.72996453       3.28716781      -0.01065022       0.01267956      -0.00751429
C       14.55011134       8.36385042       3.07800695      -0.01010348       0.00651480      -0.00333097
Cl      16.81649258       2.89714454      18.02139704      -0.00276616      -0.01651794       0.02274713
Cl      15.19034898       5.29422363      17.86780094       0.00401568      -0.01439273      -0.00858742
Cl      14.55090513       3.24720246      19.81507391      -0.01236731       0.00376537       0.00658917
Cl      14.08984765       2.75715139      16.98871501       0.00365496      -0.02089937       0.00919536
C       15.15112534       3.54799535      18.16926165      -0.00176078      -0.01169257       0.00776872
Cl      13.46363498       9.39696387      17.45648881       0.00329179      -0.01470163      -0.04457681
Cl      14.41426811      11.91212309      16.37751706      -0.00149217       0.00145975      -0.00933784
Cl      12.36812550      11.89542998      18.43870809       0.01226923      -0.02624641       0.00368071
Cl      11.73556654      11.00039535      15.76115770      -0.00587586       0.01789257      -0.00632143
C       12.99387710      11.04936961      17.00930919       0.00170115      -0.00646249      -0.01345861
Cl      15.66384755       0.63417569       5.39045623       0.00177163       0.01223881      -0.00860062
Cl      16.91856378       0.95454646       7.99036167      -0.00888962       0.00386626      -0.00316137
Cl      18.49993258       1.18236764       5.56923265       0.00303257      -0.00015050       0.00458762
Cl      17.46689295      -1.39823238       6.38330770      -0.01152216       0.00303388      -0.00276713
C       17.14113461       0.33476516       6.33176565      -0.00379604       0.00447083      -0.00250303
Cl      15.99318075       4.58149717       5.69754374      -0.00047210       0.00813505       0.00672156
Cl      16.42344531       7.18254363       6.90687715      -0.00649685       0.01459420      -0.00491554
Cl      16.06948883       4.84814350       8.58218733       0.00639847       0.01906013       0.00534177
Cl      13.82404306       5.91479200       7.09034190      -0.00120479       0.00516833       0.00722702
C       15.57874088       5.63286414       7.06529946      -0.00019765       0.01205124       0.00363584
Cl       2.06344942      13.60157602      13.83173074      -0.01413891      -0.01169807       0.00356740
Cl       3.59839493      14.26873779      16.20098607      -0.01037693       0.01653779      -0.00743042
Cl       3.36848701      11.50457177      15.35143902       0.02223629       0.01059735       0.00297892
Cl       1.06616101      12.88239475      16.45637601       0.01027405      -0.01642117       0.01155120
C        2.52046824      13.06223101      15.46721541       0.00180173      -0.00039678       0.00296471
Cl       4.37693377      14.13180909      11.10686728       0.01133317      -0.00120246       0.01484562
Cl       7.26401130      14.28892388      11.22653630       0.01230392      -0.00615513       0.01971075
Cl       5.98137827      12.97457135       8.98546020       0.01303658       0.01185501       0.00849771
Cl       5.92649658      11.73780634      11.60626711       0.00923823      -0.00644976      -0.00024042
C        5.88077865      13.28146335      10.72888801       0.01144222      -0.00033176       0.01049058
Cl      18.84591174      12.59837667       8.19274082      -0.02187768      -0.00600410       0.02175963
Cl      18.48056367      14.28295534       5.85383161       0.02302948      -0.00689510       0.01332265
Cl      17.23978693      14.99244121       8.37412943      -0.00617820       0.00677097      -0.00406921
Cl      16.26970970      12.70835621       6.87034235      -0.00266206       0.01242340      -0.01376668
C       17.70877730      13.65252296       7.31860536      -0.00156379       0.00154376       0.00397842
Cl       1.04723167      -1.64171526      16.60944058      -0.01894474       0.00166449       0.01265675
Cl      -1.45307936      -0.59266665      15.57446949       0.00044531       0.02043770      -0.01370497
Cl       0.23548028      -2.26516333      13.89777196      -0.00881705      -0.01744932       0.01606917
Cl       1.07880788       0.42370835      14.54911359       0.01950325      -0.01980379      -0.01129319
C        0.26349514      -1.01370175      15.12593697      -0.00279897      -0.00335753       0.00155073
Cl       3.19762889       1.31400070      10.79289894      -0.00537485       0.00088960       0.01112778
Cl       5.82506757       2.17575625       9.90114251      -0.00519121      -0.00794014      -0.00378472
Cl       5.14761136       2.27217295      12.71650683       0.00358269       0.00580916      -0.00196719
Cl       3.90497182       4.12555446      10.85650899       0.00149572       0.00006545      -0.00358613
C        4.51298642       2.47221274      11.06698084      -0.00108209      -0.00041947      -0.00042993
Cl      13.35470604      14.95909190       7.97308328       0.00701061      -0.00752831       0.00622036
Cl      11.52164160      16.35644514       9.72898592       0.01624703       0.00675685       0.00361997
Cl      12.14451932      17.43965738       7.10968864       0.00435373      -0.01292121      -0.00760335
Cl      14.15269858      17.46405070       9.19326842       0.01445276       0.00041807      -0.01669294
C       12.79491502      16.55696001       8.50024414       0.01029295      -0.00334384      -0.00388862
