197
Lattice="17.985995434877093 0.0 0.0 0.0 17.985995434877093 0.0 0.0 0.0 17.985995434877093" Properties=species:S:1:pos:R:3:forces:R:3 energy=-1726312.875 stress="-0.0003251094603911042 -1.0905095678026555e-05 -6.746182407368906e-05 -1.0905095678026555e-05 -0.0007510213181376457 0.00014866353740217164 -6.746182407368906e-05 0.00014866353740217164 -0.00043544432264752686" pbc="T T T"
Ce      16.95789634      17.42126395      -0.97059372       0.00666326      -0.00101429      -0.00013743
O       11.93856250      16.75713273      13.85855134       0.00848587      -0.00974920      -0.00510693
H       12.49496982      16.92011375      13.08983464       0.00137933       0.01085117       0.00695941
O       -0.63103636      16.11039689      15.51406066      -0.01746720      -0.01033610      -0.00377102
H       -0.22453682      15.42260355      14.97199671      -0.00774205      -0.00423279      -0.00033391
O        1.18007835      18.18281632       8.39045929       0.00292037       0.00643669       0.00086901
H        1.74506304      18.06558204       7.62098543       0.00150689       0.00235849       0.00044109
Cl       4.31633404       9.35515643      -0.46906187       0.01278053       0.00239165      -0.00440517
Cl       7.10808066       9.31309861       0.38937047       0.00962219       0.00597413       0.00632980
Cl       5.67071807      11.84979444       0.21129928       0.00619746       0.00355574       0.00393826
C        5.54078827      10.11266255       0.56150371       0.00760311       0.00298847       0.00124757
H        5.21827902      10.00059799       1.59046289       0.00413557       0.00129011      -0.00012341
Cl       0.11830172       4.85611471      16.53937988      -0.01678043       0.01723957      -0.00825793
Cl       2.26248957       6.72967666      17.14681666      -0.00144783      -0.00568949       0.01214771
Cl      -0.30723685       7.73026941      16.18389095       0.00798755       0.02431443       0.02045880
C        0.51627274       6.47281505      17.13563900      -0.00319741       0.00809903       0.00898770
H        0.16183594       6.55270659      18.15604107      -0.00359486       0.00083171       0.00945076
Cl      14.63795797      14.47102062       1.63422850       0.00860909       0.00814414      -0.00789616
Cl      15.14794633      17.37600977       1.42778436       0.00066119       0.00918037      -0.00379765
Cl      12.40146204      16.34475930       1.54968187       0.00288981       0.00094041      -0.00732118
C       14.02268856      16.03690638       2.09950856       0.00377172       0.00603634      -0.00669381
H       14.09897183      16.16621990       3.17528409       0.00249364       0.00473690      -0.00662518
Cl       0.90747786      17.63954248       1.53340676      -0.00135649      -0.01067260       0.01716881
Cl       2.90798606      15.54453551       1.93657662       0.01209737      -0.00185595      -0.00728131
Cl       0.41606164      14.99067413       0.45448722       0.00650781      -0.00465998       0.00024152
C        1.71279154      16.17886442       0.86247227       0.00242078      -0.00112898       0.00323409
H        2.17838300      16.47666755      -0.07713613      -0.00622542       0.00712995       0.00174011
Cl       6.67716544       1.46219772       1.68161827      -0.00786033       0.00570695      -0.00008743
Cl       5.29497028       2.38452884       4.09522209       0.00060439       0.00809897       0.00337548
Cl       8.08171166       1.53239866       4.24396949       0.00056995       0.00667651      -0.00509857
C        6.84791671       2.30012856       3.23387739      -0.00227931       0.00671026      -0.00138977
H        7.16624985       3.31455110       3.02517699      -0.00241262       0.00631562      -0.00305008
Cl      14.14481122       3.50729483       9.74458794      -0.00135516      -0.00335993      -0.00933795
Cl      16.19434399       5.41403576      10.56856955      -0.00133681      -0.00849923       0.00828445
Cl      16.85158368       3.31044002       8.65978436       0.00044325       0.01074979      -0.00852940
C       15.58763933       4.39955691       9.24392310      -0.00197318       0.00295810      -0.00030779
H       15.31256775       5.05862271       8.42874653      -0.00303710       0.01053859       0.00631276
Cl       0.33103442       1.50402996      16.54686668       0.03176997      -0.01616508      -0.00587096
Cl       4.50083575      -0.46017682      17.35516279      -0.00110066       0.00945705      -0.00422871
Cl       4.07160418      -0.46171556      14.48405667       0.01148518       0.00618863      -0.00578350
C        3.99816872       0.30305219      15.95597069       0.00018398       0.00523653      -0.00641450
H        3.71096484       1.33959897      15.99751310      -0.01643565       0.00071311      -0.00709896
Cl       2.40887223      11.02020873       4.90487630       0.00133263       0.00664515       0.00114307
Cl       0.88646568      13.26573890       3.83775473       0.00010656       0.00365230      -0.00181234
Cl       2.71769880      11.79132528       2.10632710      -0.00174607       0.00032391      -0.00134599
C        1.61123285      11.67034472       3.47889790      -0.00006710       0.00343986       0.00036919
H        0.79975763      11.00794819       3.19879366       0.00000530       0.00252470       0.00265482
Cl       4.85480433       6.40211258       2.15733376       0.00027153       0.00586676       0.00096026
Cl       4.80299454       8.11160294       4.52001398       0.00370727       0.00472987       0.00147340
Cl       2.35847591       7.68579859       2.97233847       0.00105228       0.00309041       0.00655642
C        3.88598480       6.96839968       3.52485539       0.00267302       0.00430276       0.00312902
H        3.64159321       6.11190238       4.14201034       0.00478446       0.00390446       0.00332089
Cl       2.80690818       8.85214554      13.85385502      -0.00418273       0.00073484       0.00826028
Cl       3.76162796       6.10288012      13.64961655       0.01680809       0.00821738       0.01731794
Cl       1.15373704       6.81331750      12.56606859       0.00968395      -0.01536497       0.01658008
C        2.80642858       7.37648211      12.87872418       0.00588571      -0.00229675       0.01298666
H        3.26625917       7.60511759      11.92165417       0.00300796      -0.00319532       0.01149142
Cl       7.72472196      14.93727325       9.15876198       0.00537258      -0.00756986       0.00304634
Cl       6.67201634      17.06296320       7.45974980       0.01162892      -0.00334865       0.00479576
Cl       5.06930364      14.67186550       7.96666389       0.00209443       0.00391582       0.00801197
C        6.26721807      15.79782307       8.62865396       0.00826489      -0.00128164       0.00571695
H        5.82782651      16.27748358       9.49491392       0.01198451       0.00067562       0.00638866
Cl      12.60977492       9.89028069       8.95691788      -0.00008111      -0.00400916       0.00485460
Cl      13.02823156       7.00393994       8.99004437      -0.00766922      -0.00566778       0.01853529
Cl      15.29662318       8.81597432       9.38189004      -0.00246228      -0.00871296       0.00211331
C       13.55453275       8.56663804       9.63980348      -0.00183751      -0.00334707       0.00858634
H       13.38925372       8.55221337      10.71027894       0.00085331       0.00196649       0.00901204
Cl       7.96466676       2.52790140      15.46755202      -0.00638673      -0.00016116      -0.00510954
Cl       9.38716209       0.56589301      17.09935921      -0.00464365       0.00799858       0.00253861
Cl       7.46843760      -0.31227651      15.07721486       0.00786768      -0.00297970      -0.00468010
C        8.68728588       0.91603927      15.51360701       0.00042157       0.00307368      -0.00102950
H        9.47607215       0.86369445      14.77238645       0.00245902       0.00587326       0.00097550
Cl       7.81686991      11.76755261       6.25075093       0.02224451       0.00641151      -0.02043723
Cl      10.00980565      12.08926443       8.16154648       0.00296595      -0.00109597       0.00313163
Cl       9.20789552       9.41459460       7.27840868       0.00236925       0.00190043      -0.00404845
C        9.36358587      11.11222424       6.82602303       0.01362873       0.00085763      -0.00333548
H       10.07389697      11.17344519       6.01025471       0.02212904      -0.00176363       0.00404960
Cl      -0.21519302       2.72534308       2.11244493       0.00114143       0.00523946      -0.00626994
Cl       2.55667358       3.31110558       1.40839409      -0.00063213       0.01329451      -0.00626141
Cl       1.53630411       4.02921241       4.05153090      -0.00050026       0.00519053      -0.00428787
C        1.46324987       2.87721802       2.71148602       0.00114028       0.00805166      -0.00675040
H        1.74979558       1.90696937       3.10204481       0.00367317       0.00787592      -0.00959770
Cl      15.95507101       3.18774222      13.84366622      -0.02349855      -0.02655942      -0.00068177
Cl      14.91140879       0.68785885      15.02123092      -0.00882604      -0.02211148       0.04098371
Cl      14.69758902       3.25049106      16.48402502       0.00483147      -0.00727399       0.00736314
C       14.72062414       2.54637036      14.88220522      -0.01228961      -0.02217120       0.01516452
H       13.74273869       2.64798111      14.42011085      -0.01587669      -0.03505138       0.01883775
Cl      11.40086136      13.65469915       4.03417610      -0.00762178       0.00108133      -0.00500742
Cl      10.43162353      12.87057794       1.38668715      -0.00570706       0.00093262      -0.00542243
Cl      11.04746858      10.83409618       3.38339052      -0.00320309       0.00115924      -0.00623729
C       10.44429107      12.47822507       3.11767764      -0.00566341       0.00013060      -0.00568374
H        9.42102443      12.53647608       3.47341987      -0.00574446      -0.00170149      -0.00584329
Cl       6.99675795       4.49813161      12.33614975      -0.00185289       0.00202949       0.00638849
Cl       8.29998548       7.06890721      11.86383556       0.01401937      -0.01061023      -0.01276226
Cl       5.99131265       6.29540501      10.25058281      -0.00173110       0.00075115       0.00453022
C        6.77211216       6.19404409      11.84051217       0.00699573       0.00108737       0.00019417
H        6.10340463       6.64658413      12.56184452       0.01466145       0.00940777       0.00196627
Cl      10.41901935      12.74243885      14.44978728      -0.00498141      -0.00621516       0.01021707
Cl       9.45423488      15.19985554      15.59403060       0.01284319       0.00362647       0.00260871
Cl      12.01559869      14.15210116      16.39776680       0.00871694      -0.00729409      -0.00034899
C       10.62352407      14.02639744      15.48884606       0.00540091      -0.00281692       0.00457330
H       11.98222985      15.80192746      13.96203059       0.01784967      -0.00005861      -0.01094728
Cl      12.20365524      13.25009896      11.18348459       0.00043552      -0.00918169       0.00446183
Cl      14.07863017      13.93175999      13.33056633       0.00098100      -0.00218427       0.00960546
Cl      14.30294625      11.37432780      11.96748856       0.01348338       0.00757486      -0.00621178
C       13.86371223      13.06495707      11.78320643       0.00264473       0.00540921       0.00169514
H       14.53205941      13.52902198      11.06748977      -0.00307462       0.02136691       0.00603396
Cl      16.86985295      11.81951856       1.29112847      -0.00039107      -0.00289135      -0.00470352
Cl      16.96392481       8.99070987       2.01717733       0.00635407      -0.00120505      -0.00095017
Cl      14.44604512      10.20064392       1.17553294       0.00608146      -0.01179666      -0.01487190
C       16.19935667      10.19954086       0.97562597       0.00691542      -0.00556335      -0.00634085
H       16.44023001       9.95903337      -0.05385347       0.01213874      -0.00613629      -0.00489508
Cl      11.30919636       4.96763660      15.02669468       0.02302980      -0.01312769      -0.00962487
Cl      11.57854984       5.17282374      12.12507043       0.01469959      -0.00376468      -0.01085487
Cl      11.20681826       2.55873445      13.37226962       0.00283933      -0.00565644      -0.01912729
C       10.81791497       4.30751129      13.45682165       0.01426196      -0.00329700      -0.01130845
H        9.74034813       4.39671882      13.37047674       0.01470512       0.00411373      -0.00706766
Cl      14.62163466       8.54840488      14.11362265       0.00930492      -0.01015907      -0.01542050
Cl      16.14523233      10.76143349      15.27908595      -0.01516997      -0.00227614       0.00038999
Cl      13.23792156      10.67933703      15.55569476      -0.01610552      -0.02676144      -0.01603725
C       14.71432890       9.71658870      15.44210711      -0.00768134      -0.01426136      -0.01077908
H       14.81363247       9.15725283      16.36654466      -0.00777802      -0.01598999      -0.01190481
Cl      18.06917084       1.33454382       5.46424721       0.00087172       0.00032002      -0.00422774
Cl      15.51648550       0.44339019       6.48549434       0.00468051      -0.00358491       0.00059748
Cl      17.06380389      -1.29151177       4.76797127       0.00536236      -0.00354427       0.00208065
C       17.04887481       0.02682186       5.88096373       0.00510550      -0.00190576      -0.00008004
H       18.29578871      -0.07450680       8.07232932       0.00243422       0.00565910       0.00367762
Cl      17.02231349       6.89951204       5.02338978      -0.00254736      -0.00597465       0.00309542
Cl      15.72618168       4.32069092       5.46624655      -0.00995104      -0.00385915      -0.00819734
Cl      14.67436851       6.14545916       3.44217417       0.00220832       0.00186147      -0.00849208
C       16.12615550       5.56815308       4.27169108      -0.00230150      -0.00241542      -0.00372258
H       16.77497198       5.11304186       3.53301056      -0.00007302      -0.00158852      -0.00209893
Cl       2.30611013      11.87825941      15.62316166      -0.02191423       0.00987035       0.00675830
Cl       0.69413520      13.50235125      13.78220386      -0.01513685      -0.00340580      -0.01114358
Cl       3.56104145      14.03977300      14.12245538      -0.01780124       0.00112906      -0.00405341
C        2.31752370      12.78787864      14.11805478      -0.01658602      -0.00013612       0.00025052
H        2.51372955      12.11083743      13.29366988      -0.01212205      -0.00599895       0.00628336
Cl       6.91998777      10.37229569      10.05278113      -0.00307801      -0.00499757       0.00155585
Cl       6.49907024      10.84351333      12.90725961      -0.00527759      -0.00203246       0.00052294
Cl       9.21594901      10.72845299      11.81947921      -0.00442137      -0.00120004       0.00242316
C        7.52186285      11.18307266      11.49933137      -0.00442734      -0.00310084       0.00095956
H        7.50502043      12.25091005      11.31782240      -0.00481448      -0.00329667       0.00006911
Cl       0.66350551       0.62819237      13.02998677       0.01012729      -0.02208629       0.00403712
Cl       0.73324189       3.19271077      11.62531943      -0.03845306      -0.02427848       0.00070738
Cl       2.49259330       2.76037533      13.89650171      -0.00513984       0.00063819      -0.01765871
C        1.66977903       2.00267420      12.51489123      -0.01284716      -0.01015425      -0.00742967
H        2.42788067       1.59612993      11.85677713      -0.01576057      -0.00093672      -0.01604348
Cl       6.62805814       0.60450129      11.52519199       0.01062632       0.00048076      -0.00725894
Cl       5.79823466       2.44152744       9.40920488       0.00437498       0.00411260      -0.00115770
Cl       3.98750381       0.33241311      10.29790472       0.00801819       0.00118607      -0.00158300
C        5.27024417       1.47243308      10.77556958       0.00802937       0.00100276      -0.00206675
H        4.85679315       2.13507111      11.52938999       0.00922462      -0.00086035       0.00006370
Cl      13.31657359      15.50880244       6.55337259      -0.00606454      -0.00005919      -0.00654882
Cl      12.39173947      18.03077889       7.73475305       0.00226787       0.00205436      -0.00541531
Cl      10.45880651      16.08622352       6.75285905      -0.00406814       0.00655865      -0.00277290
C       12.03711053      16.31210199       7.50235181      -0.00270422       0.00299738      -0.00497358
H       12.02676954      15.83641617       8.47590855      -0.00254940       0.00347964      -0.00473681
Cl       8.49508665       4.57533497       7.90691845      -0.00214446       0.00653967      -0.00075632
Cl      11.25608977       3.64440957       7.66843954      -0.00081271       0.00899350       0.00790597
Cl       9.06703727       1.71468177       7.76152626       0.00099631       0.00718555      -0.00069280
C        9.56256811       3.32921951       7.23942328       0.00104950       0.00795743       0.00204078
H        9.48044222       3.36567081       6.16031097       0.00469487       0.00863233       0.00186265
Cl      -0.67751398      12.82897704       8.34335560      -0.00267363       0.00793897       0.00653870
Cl       0.97442575      15.15583069       7.75407150       0.00003296       0.00448307       0.00331069
Cl       2.23419293      12.56954433       8.14974093      -0.00291312       0.00412026       0.00985812
C        0.80075390      13.40380224       7.54683401      -0.00153803       0.00423526       0.00666707
H        0.70590173      13.18707652       6.48996542      -0.00046887       0.00205015       0.00705069
Cl      14.02520094       9.26635392       5.33035198       0.00088288       0.00750276      -0.01675022
Cl      16.50158295      10.81101684       5.29619094       0.00547656      -0.00537675       0.01408081
Cl      13.99621782      12.08324150       6.10025962       0.00679325       0.00276929       0.00109097
C       14.92934802      10.57972760       6.08940745      -0.00108422      -0.00218899       0.00198860
H       15.12697073      10.30167739       7.11752764      -0.01380001      -0.00875829       0.00313187
Cl       0.75591580       9.39097653       8.88917807      -0.00890125       0.00233427      -0.00943264
Cl       3.31528805       9.90544800      10.22016270      -0.01254870      -0.01377889      -0.00006200
Cl       0.87467892      11.18052950      11.20760692      -0.01426930      -0.01796082       0.00553842
C        1.55681317       9.74904034      10.42579759      -0.01328246      -0.01265824      -0.00405131
H        1.37084645       8.91012154      11.08517710      -0.01629370      -0.01932499      -0.01324423
Cl       9.73954795       3.88051264       0.91248990      -0.00514325      -0.00135210       0.00334963
Cl       7.48946844       5.43578134      -0.11536148      -0.00254157       0.00096346       0.00200826
Cl       8.75348691       6.18615233       2.41468868      -0.00128867       0.00132012       0.00081444
C        9.00509596       5.48904048       0.80500006      -0.00226649      -0.00033937       0.00139362
H        9.69111557       6.13317937       0.26873084      -0.00138964      -0.00176410       0.00101775
Cl      16.16436099      18.32221478      10.26188085      -0.00681110       0.01354399      -0.00425436
Cl      13.85173379      16.68154669      10.93725545      -0.00422357       0.01305198       0.00572544
Cl      16.49445462      15.45296091      10.67340168       0.00125981       0.01553716       0.00918864
C       15.61931745      16.91135744      11.15398834      -0.00310852       0.01550581      -0.00004537
H       15.78767494      17.07714150      12.21286426      -0.00163723       0.01248435      -0.00077197
Cl       5.90804574      13.65170978       3.40463245      -0.01790861       0.00633252       0.00293410
Cl       8.27483920      15.20760706       4.12439819      -0.01267850      -0.00098537       0.00096280
Cl       5.67537074      16.51664486       3.90519209      -0.00907739       0.00637420       0.00671071
C        6.52561397      15.02797839       4.34090840      -0.01259947       0.00362019       0.00346728
H        6.34066901      14.83126980       5.39092881      -0.01185628       0.00271183       0.00336823
Cl       4.38733496       4.87813420       6.95993526       0.00139673       0.00158773      -0.00515351
Cl       1.94602492       5.95214796       8.16016420       0.00902209       0.00536662       0.01355839
Cl       2.35276704       3.05937038       8.02311857       0.00304227       0.00559551       0.00034565
C        3.13004431       4.63729657       8.19394843       0.00702365       0.00329207       0.00086199
H        3.62337570       4.65644708       9.15823046       0.01276365       0.00052038      -0.00223294
