199
Lattice="14.40231485877981 0.0 0.0 0.0 14.40231485877981 0.0 0.0 0.0 14.40231485877981" Properties=species:S:1:pos:R:3:forces:R:3 energy=-354285.65625 stress="9.47389708016999e-05 -0.00017752566782291979 -0.0002728405233938247 -0.00017752566782291979 -0.0007544200052507222 -0.0001229301378771197 -0.0002728405233938247 -0.0001229301378771197 -0.0007791421376168728" pbc="T T T"
Ce      14.26467003      15.21276518       0.73852583       0.01255138      -0.00329861      -0.01410177
N       12.69952949      14.21418514      -0.67458561      -0.00370967       0.00966990       0.00274833
C       11.96044284      15.13258899      -0.65075384      -0.00224960       0.01191354      -0.02634776
N       15.44771565      13.31243688       1.62188564       0.01583868      -0.00380152      -0.02339050
C       16.15032030      14.16076955       2.03466051       0.02939230      -0.00853217      -0.03584421
N       12.24469090      15.46963558       3.66530555       0.00875404       0.00268313      -0.00573403
C       12.92638054      15.61989002       2.73577357       0.03397304       0.02161283      -0.02690929
C        7.52819077      11.77383273       2.28150508       0.00003436       0.00939269       0.00994429
C        8.57852369      10.87264243       2.39785711       0.00259991       0.01105331       0.00047990
C        7.75176199      13.12938308       2.50534067      -0.00180608       0.00872767       0.01513756
C        9.84770429      11.32123988       2.74735618       0.00326893       0.01222035      -0.00341216
C        9.02478260      13.57915882       2.83732330      -0.00122659       0.00997947       0.01115317
C       10.07367741      12.67442501       2.96283171       0.00128779       0.01162487       0.00250228
H        6.53909488      11.41990478       2.01658897      -0.00052695       0.00847222       0.01305950
H        8.40817465       9.81624138       2.22728492       0.00416871       0.01153879      -0.00369973
H        6.93200440      13.83228942       2.42401825      -0.00364976       0.00740503       0.02222623
H       10.66236176      10.61404339       2.83670214       0.00523888       0.01361450      -0.01098415
H        9.21335744      14.63217063       3.00265347      -0.00272843       0.00962433       0.01441583
H       11.06005997      13.03450400       3.22566596       0.00145034       0.01215490       0.00079865
C        3.02931762       1.08765621      12.56035205      -0.02329279      -0.00623808       0.01068767
C        1.69287583       0.99805117      12.94433981      -0.02780379       0.00248136      -0.00314975
C        3.54694428       2.30315368      12.13101019      -0.01259401      -0.00986036       0.01370533
C        0.87984954       2.14152909      12.91297939      -0.02128883       0.00760251      -0.01103791
C        2.74873253       3.44299474      12.12274417      -0.00675027      -0.00589314       0.00156527
C        1.41891001       3.36667928      12.51364690      -0.01048772       0.00317606      -0.00901785
H        3.65863020       0.20638886      12.57596902      -0.02726569      -0.00911419       0.01910086
H        1.29459764       0.00346403      13.16538985      -0.03681940       0.00377768      -0.01190839
H        4.57541661       2.36846746      11.80070532      -0.00824091      -0.01656826       0.02625211
H       -0.20849833       2.07834856      13.02376014      -0.02175831       0.01488703      -0.01336561
H        3.15994311       4.38581138      11.78366822       0.00157689      -0.00971204       0.00120335
H        0.79473837       4.25138885      12.46747090      -0.00496800       0.00664721      -0.01493883
C       10.23431851       3.91841713       3.17966931      -0.00093149       0.00606705       0.00672410
C       10.47676196       5.27758454       3.35094950      -0.00160867       0.00616004       0.00728501
C        8.98772731       3.49339120       2.73211335       0.00074534       0.00600761       0.00221456
C        9.47954148       6.20756716       3.07811570      -0.00057475       0.00594598       0.00312512
C        7.98635546       4.42078822       2.46506903       0.00161123       0.00576724      -0.00154481
C        8.23247079       5.77857969       2.63754874       0.00107059       0.00582892      -0.00116148
H       11.00638381       3.19111491       3.39587265      -0.00146078       0.00620663       0.00891886
H       11.44177174       5.60972097       3.71516616      -0.00307398       0.00635682       0.01078305
H        8.79767109       2.43788861       2.58053688       0.00171369       0.00595440       0.00138441
H        9.66647219       7.26293951       3.22918381      -0.00102735       0.00600643       0.00318699
H        7.01967134       4.08299467       2.11541977       0.00288667       0.00569053      -0.00497868
H        7.44972191       6.50200038       2.44242547       0.00189614       0.00585891      -0.00432485
C       13.38375674       6.04667104       6.25128397       0.00569144      -0.00533444      -0.00470085
C       12.90678671       4.77317551       6.54459014       0.00155133      -0.00470985      -0.00862066
C       12.88339437       7.15254696       6.93142393       0.00974800      -0.00598261      -0.00071614
C       11.93901184       4.60201449       7.52826008       0.00182927      -0.00469278      -0.00862164
C       11.91246848       6.97922125       7.91150562       0.00984918      -0.00596279      -0.00060892
C       11.44643225       5.70491260       8.21524613       0.00594564      -0.00548022      -0.00449875
H       14.14143062       6.18022513       5.48882595       0.00566974      -0.00534746      -0.00457256
H       13.27621860       3.91226161       6.00081058      -0.00148594      -0.00401607      -0.01184703
H       13.24294240       8.14692320       6.69403965       0.01295530      -0.00646833       0.00236904
H       11.56167196       3.61260386       7.75356178      -0.00136649      -0.00422095      -0.01163348
H       11.51015524       7.84172340       8.43009025       0.01320726      -0.00643659       0.00262485
H       10.69920956       5.57020951       8.98733264       0.00606777      -0.00563420      -0.00435673
C        3.39876027      10.35283336       3.49982737      -0.00473132       0.00355455      -0.00177067
C        2.08536130      10.69345147       3.80058402      -0.00470343       0.00169343       0.00002458
C        3.72432133       9.03603123       3.20244208      -0.00282794       0.00357017       0.00042989
C        1.09959313       9.71462027       3.81693963      -0.00281748      -0.00005927       0.00386634
C        2.73831601       8.05662575       3.21315354      -0.00094569       0.00189374       0.00408432
C        1.42749307       8.39360940       3.52878915      -0.00094205       0.00011967       0.00565226
H        4.16648555      11.11692059       3.49197367      -0.00623380       0.00503603      -0.00497639
H        1.82757311      11.72331720       4.00940946      -0.00610690       0.00172511      -0.00150467
H        4.73997467       8.77413717       2.93541717      -0.00277738       0.00490185      -0.00080189
H        0.07301979       9.98362339       4.03294488      -0.00288184      -0.00167330       0.00551849
H        2.98834425       7.03662607       2.94897433       0.00048357       0.00174518       0.00572009
H        0.65448251       7.63362408       3.52532747       0.00037701      -0.00125122       0.00825154
C        7.70827961      10.79154040      11.85563571       0.00158284       0.00373178       0.00284324
C        7.60314551      12.11050415      12.28711129       0.00441122       0.00429470       0.00180306
C        6.65282271      10.19526698      11.17626654       0.00008333       0.00518031       0.00399905
C        6.44517090      12.83551528      12.02308907       0.00557531       0.00616010       0.00194856
C        5.48860659      10.91236611      10.93019149       0.00141352       0.00719216       0.00393028
C        5.38921603      12.23303152      11.34750843       0.00415222       0.00762862       0.00295370
H        8.61344007      10.22788835      12.04896263       0.00058207       0.00214159       0.00260179
H        8.42026901      12.57235938      12.82777722       0.00581145       0.00343656       0.00052495
H        6.73586854       9.17153908      10.83104600      -0.00210489       0.00464866       0.00502587
H        6.37121755      13.86713813      12.34660221       0.00761481       0.00649777       0.00108957
H        4.66868485      10.44607674      10.40060493       0.00027210       0.00826542       0.00472955
H        4.48533032      12.79189650      11.13739857       0.00531647       0.00940162       0.00283359
C        4.74597358       8.04982306      -0.13068014       0.00231891      -0.00337368       0.00130046
C        3.36198862       8.05324759      -0.26822575       0.00267877      -0.00583851      -0.00160422
C        5.43605631       9.25210931      -0.01808852      -0.00006808      -0.00219418       0.00226318
C        2.66626512       9.25704678      -0.27571550       0.00073265      -0.00696376      -0.00379523
C        4.74028389      10.45542742      -0.03375364      -0.00206290      -0.00333713       0.00044773
C        3.35565884      10.45781862      -0.15267096      -0.00168949      -0.00575480      -0.00280576
H        5.28573010       7.10984894      -0.11434059       0.00391445      -0.00246980       0.00261071
H        2.82463919       7.11696484      -0.36174052       0.00442910      -0.00675558      -0.00237562
H        6.51619202       9.25624072       0.06870233      -0.00032280      -0.00033016       0.00450953
H        1.58721084       9.25870970      -0.36863530       0.00091556      -0.00914404      -0.00624716
H        5.28064726      11.39102495       0.03143099      -0.00373317      -0.00249112       0.00179441
H        2.81257866      11.39498119      -0.14004365      -0.00341950      -0.00669612      -0.00400990
C        7.00236836       1.47227744      14.38661508       0.00368530      -0.00782500       0.00384954
C        5.94046065       2.36575663      14.47878202       0.00223751      -0.00935596       0.00165422
C        8.18844684       1.85457577      13.76691112       0.00268075      -0.00773217       0.00203933
C        6.06005801       3.64215521      13.93801507       0.00001767      -0.01070818      -0.00222090
C        8.30692344       3.13113996      13.23161547       0.00050254      -0.00918099      -0.00168343
C        7.24135235       4.02250273      13.31398903      -0.00079582      -0.01078169      -0.00378199
H        6.91313233       0.47676794      14.80228793       0.00544825      -0.00670482       0.00676324
H        5.02129007       2.06996291      14.97027686       0.00297712      -0.00970648       0.00294352
H        9.02974300       1.17327554      13.71700306       0.00359540      -0.00645119       0.00314863
H        5.23284116       4.33912924      14.00577609      -0.00095250      -0.01179333      -0.00417579
H        9.23753518       3.43611120      12.76942306      -0.00011268      -0.00926803      -0.00317162
H        7.33809125       5.02026982      12.90457360      -0.00261273      -0.01184458      -0.00675841
C        4.02291627      11.33193315       6.85604701      -0.00245108       0.00773269       0.00232558
C        5.37649844      11.39351515       7.16724557      -0.00245520       0.00580673       0.00272112
C        3.30492854      10.16745746       7.10323954      -0.00379461       0.00828746       0.00105979
C        6.01075358      10.29321294       7.73091954      -0.00385684       0.00451465       0.00155362
C        3.94027221       9.06790387       7.66758024      -0.00517483       0.00706549       0.00010089
C        5.29194552       9.13204183       7.98373521      -0.00519525       0.00514829       0.00021113
H        3.53036603      12.18432340       6.40493222      -0.00134115       0.00875303       0.00321112
H        5.93896427      12.29594171       6.96133019      -0.00147820       0.00552754       0.00406838
H        2.25826962      10.10856474       6.83262330      -0.00378098       0.00986583       0.00085122
H        7.06608008      10.33724236       7.96696627      -0.00390814       0.00316601       0.00194146
H        3.38976985       8.15475543       7.85139909      -0.00636245       0.00757182      -0.00068842
H        5.78478544       8.26844596       8.41257841      -0.00622197       0.00414290      -0.00049916
C        9.60289600       6.82586753      12.44064736      -0.00169295      -0.00414564      -0.00088379
C       10.46516039       7.28332454      11.45057978      -0.00009240      -0.00295793       0.00121021
C       10.08174152       6.00974308      13.45970494      -0.00329158      -0.00451023      -0.00051248
C       11.81000358       6.93157014      11.48586273       0.00013754      -0.00195762       0.00370246
C       11.42295094       5.64822429      13.48605347      -0.00312578      -0.00376613       0.00193729
C       12.28672228       6.11468609      12.50322646      -0.00156088      -0.00235255       0.00419031
H        8.55965540       7.12217478      12.42615047      -0.00190787      -0.00513490      -0.00294494
H       10.08823140       7.91281881      10.65240240       0.00119758      -0.00265283       0.00083471
H        9.41984508       5.66443302      14.24395764      -0.00470601      -0.00573667      -0.00223340
H       12.48511717       7.27959768      10.71555161       0.00150190      -0.00086390       0.00549845
H       11.79088975       5.01701503      14.28573515      -0.00449544      -0.00471059       0.00176363
H       13.33644931       5.85022289      12.52997193      -0.00142200      -0.00160944       0.00624723
C       13.22103949       9.06993235       1.00034175       0.00327586      -0.00361530      -0.00373697
C       13.18218566      10.25911289       0.28139137       0.00648840      -0.00574182      -0.00716817
C       12.05792528       8.33300307       1.19021314       0.00105635       0.00053546      -0.00101838
C       11.98229163      10.71200012      -0.25656967       0.00770855      -0.00340806      -0.00749020
C       10.85879827       8.78552392       0.65537270       0.00210516       0.00260034      -0.00163954
C       10.82244186       9.96998348      -0.06906004       0.00534454       0.00093211      -0.00464141
H       14.15935680       8.72664655       1.41603827       0.00229838      -0.00546016      -0.00304242
H       14.09036754      10.83335166       0.15270006       0.00816093      -0.00852420      -0.00959191
H       12.08282273       7.40354919       1.74606166      -0.00157567       0.00212727       0.00164286
H       11.95178305      11.64509048      -0.80363112       0.01013593      -0.00483826      -0.01007310
H        9.95433902       8.21089480       0.80604621       0.00056551       0.00556193      -0.00004403
H        9.88003736      10.33116248      -0.46130205       0.00634810       0.00294000      -0.00498455
C        9.02250306       1.40132492       8.90353489      -0.00189782      -0.00191488      -0.00179549
C        9.12748298       1.06947261       7.55681406       0.00593157      -0.00394318      -0.00060973
C        8.65484980       2.69010698       9.27665946      -0.00546250      -0.00176087      -0.00602409
C        8.86541118       2.02589119       6.58132990       0.01035829      -0.00592496      -0.00367194
C        8.39104275       3.64440807       8.29962073      -0.00095606      -0.00364894      -0.00906712
C        8.49609342       3.31370621       6.95234424       0.00704120      -0.00557697      -0.00799815
H        9.22430389       0.65645771       9.66358423      -0.00514175      -0.00024161       0.00065655
H        9.41777211       0.06765563       7.26567504       0.00886049      -0.00405061       0.00261373
H        8.57265502       2.94498034      10.32615621      -0.01138580      -0.00007378      -0.00703089
H        8.96187879       1.77271264       5.53321501       0.01644538      -0.00807465      -0.00267075
H        8.10852632       4.64989201       8.58971192      -0.00351775      -0.00358193      -0.01202672
H        8.30593326       4.05842315       6.18932830       0.01107009      -0.00678606      -0.01015458
C        5.02991337       4.85307383       9.25559832      -0.00475653      -0.00203273      -0.00022923
C        3.70725653       5.02194986       8.86086735      -0.00469710       0.00059251       0.00090076
C        5.56535479       5.66135274      10.25353720      -0.00276305      -0.00421600       0.00037500
C        2.91894495       5.99505708       9.46595080      -0.00268039       0.00099158       0.00276840
C        4.77783768       6.63681042      10.85800997      -0.00073814      -0.00388721       0.00224288
C        3.45361807       6.80340570      10.46432542      -0.00068513      -0.00119072       0.00358072
H        5.64178390       4.09530197       8.78166105      -0.00624443      -0.00237589      -0.00168455
H        3.29775809       4.39818714       8.07717171      -0.00621542       0.00243758       0.00032113
H        6.59726218       5.53078524      10.55834227      -0.00272512      -0.00619985      -0.00068063
H        1.88995077       6.12625092       9.15155061      -0.00262113       0.00317159       0.00372961
H        5.18770439       7.27314024      11.63260984       0.00083625      -0.00559662       0.00289284
H        2.84775241       7.57030386      10.93144075       0.00087060      -0.00094870       0.00501869
C       12.07055103      13.14770126       9.46220637      -0.00131258       0.00327839       0.00121411
C       13.27107621      12.65697517       8.96047159      -0.00160740       0.00491542      -0.00064848
C       11.15771236      12.28068953      10.05223766       0.00182375       0.00263764       0.00477983
C       13.56025635      11.29999670       9.04859019       0.00127503       0.00551974       0.00062688
C       11.44696993      10.92374333      10.14154029       0.00452565       0.00333254       0.00606909
C       12.64793304      10.43407435       9.64048102       0.00413428       0.00480109       0.00398757
H       11.84828424      14.20567629       9.39667226      -0.00368692       0.00280614       0.00035951
H       13.98391096      13.33240435       8.50415283      -0.00371310       0.00560377      -0.00300533
H       10.22186786      12.65802809      10.44666556       0.00238155       0.00181984       0.00691503
H       14.49873233      10.91863064       8.66503598       0.00084257       0.00672068      -0.00123066
H       10.74150341      10.25118293      10.61253532       0.00687861       0.00256500       0.00851852
H       12.87885593       9.37927728       9.71753454       0.00590148       0.00515950       0.00450379
C        6.45490634       7.69005571       5.29585693       0.00234970      -0.00061622      -0.00059914
C        7.13013491       6.75363107       6.07053072       0.00206044      -0.00028095      -0.00000583
C        7.09129612       8.86088337       4.90632302       0.00181367       0.00018300       0.00105330
C        8.44452122       6.99200831       6.45487013       0.00113369       0.00101445       0.00238424
C        8.40145718       9.10510483       5.30125429       0.00100493       0.00139022       0.00313716
C        9.07780916       8.16960996       6.07343084       0.00049508       0.00175681       0.00402313
H        5.41975900       7.52531261       5.02624398       0.00315131      -0.00181458      -0.00282387
H        6.62306529       5.84657417       6.37941889       0.00275305      -0.00122713      -0.00165335
H        6.55904605       9.60224585       4.32331768       0.00205431      -0.00010110       0.00042207
H        8.98822849       6.26184353       7.04071403       0.00080865       0.00121919       0.00287007
H        8.88914909      10.02565798       5.00887506       0.00057597       0.00182413       0.00392926
H       10.10345863       8.34823223       6.36977693      -0.00014246       0.00265582       0.00601862
C        2.46148670       3.65959865       5.58559493      -0.00179413      -0.00702529       0.00047535
C        3.26693139       2.55875393       5.85711815      -0.00117084      -0.00578740       0.00356600
C        2.99218604       4.76176713       4.92502802      -0.00186391      -0.00772946      -0.00070350
C        4.60339852       2.56129154       5.47271525      -0.00071721      -0.00534452       0.00513433
C        4.32415983       4.75651607       4.52576175      -0.00129446      -0.00716643       0.00125163
C        5.13160987       3.65889071       4.80254173      -0.00085840      -0.00609716       0.00394767
H        1.42471272       3.66405042       5.89836318      -0.00221792      -0.00746561      -0.00104780
H        2.85406035       1.70224365       6.37539651      -0.00111771      -0.00511587       0.00458653
H        2.37239224       5.62821541       4.73100933      -0.00241442      -0.00877726      -0.00320289
H        5.23550554       1.71080059       5.69512526      -0.00036227      -0.00449169       0.00725631
H        4.74082543       5.60908880       4.00391400      -0.00135193      -0.00763826       0.00054125
H        6.17069550       3.66316831       4.49720178      -0.00054230      -0.00592397       0.00497505
