199
Lattice="14.352690806204254 0.0 0.0 0.0 14.352690806204254 0.0 0.0 0.0 14.352690806204254" Properties=species:S:1:pos:R:3:forces:R:3 energy=-1623322.75 stress="-0.00015971499669831246 9.50505564105697e-05 0.0002507109456928447 9.50505564105697e-05 -0.0012136864243075252 0.00010494619709788822 0.0002507109456928447 0.00010494619709788822 -0.000782811373937875" pbc="T T T"
Cf      12.38929464      14.55336811      -0.70597050       0.01929027       0.02835609      -0.03226548
I        9.53320011      14.66560458      13.97583044       0.02136663       0.01387734      -0.00226750
I       13.27314997      14.45094391      10.94150970       0.02299257      -0.00470088      -0.03785175
I       11.44025218      12.71854676       7.43778317      -0.01694595      -0.00181212      -0.00632247
O        4.30918426       9.94379078       4.87476367      -0.00296825       0.00182462       0.00290318
C        5.46765528      10.76477870       4.91183500      -0.00442472       0.00159633       0.00509623
C        4.63241579       8.61381313       4.50362963      -0.00882474       0.00296164      -0.00051856
C        5.06083170      12.18259256       5.22877012       0.00096980      -0.00226432       0.00760001
C        3.39633228       7.75760337       4.62877061      -0.00729179       0.00299346      -0.00371366
H        6.15706999      10.38518066       5.67823826      -0.00240389      -0.00357883       0.00180238
H        5.98069360      10.70536726       3.94270683      -0.00407082       0.00229350       0.00239360
H        5.01431934       8.61013705       3.47495184      -0.00729914       0.00399536      -0.00153631
H        5.44003071       8.23514120       5.14629580      -0.00737223      -0.00187413      -0.00190586
H        5.94515274      12.81490989       5.32944505      -0.00350875      -0.00392904       0.00882304
H        4.42694109      12.59319384       4.44192182      -0.00160247       0.00255873       0.01107475
H        4.51184511      12.21646122       6.16963080      -0.00111860      -0.00321155       0.01024145
H        3.62124228       6.72962531       4.34119925      -0.01104094       0.00509492      -0.00650645
H        3.03025666       7.75338819       5.65626876      -0.00885222       0.00135475      -0.00289619
H        2.60034876       8.13121389       3.98387548      -0.00873271       0.00780711      -0.00230174
O        8.10529643       1.94239541       9.97631787       0.00585130      -0.00697553       0.00992185
C        8.87581356       1.18174854       9.05460416       0.00339985      -0.00580987       0.00724888
C        6.92683441       1.26373620      10.36150880       0.00302690      -0.00812602       0.00437683
C       10.19224467       1.88223012       8.84917986       0.00504529      -0.00185153       0.01448625
C        6.19835725       2.11841835      11.36880900       0.00451767      -0.00686178       0.00807863
H        9.03665085       0.16866057       9.44297952       0.00427556      -0.00659776       0.00697917
H        8.32437082       1.07414793       8.10584554       0.00571361      -0.00354042       0.01250732
H        6.29419255       1.07920702       9.47821395       0.00587374      -0.00194371       0.00400156
H        7.18327932       0.28432134      10.78695770       0.00002193      -0.00833660       0.00221810
H       10.78562740       1.33694239       8.11562980       0.00592026      -0.00324932       0.00429545
H       10.02853207       2.91019427       8.51860675       0.00351073      -0.00409144       0.00851858
H       10.75770395       1.90238413       9.78025539       0.00176091      -0.00386973       0.00309303
H        5.31226248       1.60020437      11.73646671      -0.00283363      -0.00716102      -0.00016500
H        6.85048524       2.32842525      12.21757172      -0.00216283      -0.01597025       0.01052597
H        5.87944304       3.06396304      10.93022953       0.00849509      -0.00502354       0.01022778
O       13.49859607       3.30153421       2.32181494      -0.00106627       0.00400101      -0.00783291
C       12.79827426       2.13536162       1.99195431      -0.00313950       0.00462496      -0.00460263
C       12.75713100       4.47296131       1.97679769       0.00187308       0.00738597       0.00009857
C       13.59079850       0.92710196       2.42828611       0.00322253       0.00441921      -0.02214035
C       13.45266873       5.67473430       2.56160809       0.00628933       0.00486654      -0.00193074
H       11.80904607       2.14361349       2.46334693       0.00105006       0.00002117       0.00429007
H       12.61187468       2.15190134       0.88657183      -0.01551638       0.00160143      -0.00296879
H       12.69010297       4.54402496       0.88070271      -0.00471668       0.01021463       0.00104368
H       11.74065716       4.37864813       2.37571440       0.00227475       0.00941119       0.00633276
H       13.04142095      -0.00140589       2.23965721       0.00144084       0.00791708      -0.02657226
H       14.57571483       0.88690107       1.95629397      -0.00244761       0.01065394      -0.03413199
H       13.74277913       0.96890270       3.50872241       0.01704643      -0.00269356      -0.02239326
H       12.91204744       6.58277514       2.29151857       0.00848767       0.00591697       0.00018835
H       13.48256140       5.60019547       3.64868025       0.01377049       0.00621639      -0.00221440
H       14.47418810       5.75409757       2.18965737       0.00608443       0.00356702      -0.00765233
O       10.80942228       3.05563130       4.37947845      -0.00236964      -0.00402775      -0.00007531
C       11.36571530       2.66088417       5.63314779      -0.00169617      -0.00439900      -0.00085843
C        9.46163492       2.63258904       4.26467492      -0.00239658      -0.00270572      -0.00054073
C       12.76396863       3.20790173       5.76518076      -0.00158691      -0.00478384      -0.00272041
C        8.97577124       2.90755890       2.86203489      -0.00096442      -0.00779770      -0.00122318
H       10.72492585       3.03772206       6.43778312      -0.00068736      -0.00333543       0.00020552
H       11.36688724       1.56522572       5.70710681      -0.00277165      -0.00389463      -0.00102121
H        9.38819524       1.56103814       4.49881851      -0.00145843      -0.00536919       0.00019996
H        8.84832315       3.16659521       5.00709241      -0.00235334      -0.00485307      -0.00177529
H       13.19962903       2.85701782       6.70135586      -0.00052124      -0.00489671      -0.00260361
H       13.39244297       2.88263802       4.93771558      -0.00283396      -0.00682528      -0.00290024
H       12.76052427       4.29862798       5.77276480      -0.00019063      -0.00542781      -0.00313264
H        7.91643485       2.66156843       2.77575433      -0.00043930      -0.00584308      -0.00159564
H        9.10710286       3.96003144       2.60757676      -0.00251757      -0.00381541      -0.00167240
H        9.51237816       2.30408885       2.12917426       0.00131573      -0.00329106       0.00069077
O        9.51580808      11.76190291       1.59179399       0.00049785      -0.00363982       0.00568181
C       10.79544457      11.37506599       2.04061992      -0.00293601      -0.01455715       0.00667396
C        8.51095587      11.79525812       2.59729867      -0.00360823      -0.00047520      -0.00025082
C       11.79640966      11.91283782       1.03882652       0.00406873      -0.02057557       0.01306003
C        7.34089688      12.59646934       2.07878867       0.00119862       0.00191346      -0.00230926
H       11.00226175      11.79884772       3.03249831      -0.00438604      -0.02443379       0.01228994
H       10.88367078      10.28355765       2.12089669      -0.01750735      -0.01651251       0.00703571
H        8.20117890      10.77496650       2.85139829      -0.00472254       0.00159997       0.00327508
H        8.91970726      12.24781670       3.51059412      -0.00707833       0.00332201       0.00351286
H       12.82505112      11.69988426       1.33879388       0.00045332      -0.03827174       0.01098550
H       11.60674753      11.51310975       0.03939720      -0.00490727      -0.01259820       0.01203093
H       11.60614229      12.99092613       1.03796782       0.03021338      -0.01556864       0.02022100
H        6.52709223      12.58271568       2.80323606       0.00105652       0.00715174      -0.00503103
H        7.63690888      13.62892000       1.89593101       0.00297396      -0.00118878      -0.01191591
H        6.96388718      12.17702797       1.14610498      -0.00163826      -0.00661440      -0.00190654
O        3.75211137       4.46424746      11.83902649      -0.00573373      -0.00294256      -0.00502914
C        4.44072610       5.09068622      12.90090557      -0.00364870      -0.00144213      -0.00754531
C        2.95579911       3.37428396      12.27409093      -0.00796893       0.00059962      -0.00167701
C        5.31974729       6.17735782      12.32861313      -0.00694048      -0.00094277      -0.00670704
C        2.42324096       2.64395129      11.06561632      -0.01042634       0.00172219       0.00125480
H        3.72394275       5.50812304      13.62535220      -0.00210184      -0.00564386      -0.00405887
H        5.04924670       4.34762723      13.43930189      -0.00008628      -0.00290504      -0.01002748
H        3.56600967       2.70241694      12.89533978      -0.00671935      -0.00170946      -0.00186029
H        2.13381953       3.74251116      12.90597734      -0.00317401       0.00282089       0.00132215
H        5.90530419       6.64704557      13.11988716      -0.00649889      -0.00115054      -0.00821593
H        6.00873117       5.75841421      11.59460856      -0.00967668       0.00412400      -0.01100750
H        4.72023951       6.94373893      11.83667208      -0.01145300       0.00142480      -0.00344168
H        1.82018088       1.78630542      11.36580970      -0.01517242       0.00256029       0.00736356
H        1.80049692       3.30183809      10.45943707      -0.01362491       0.00295560       0.00408849
H        3.24916739       2.29118745      10.44681941      -0.01893017      -0.00373081      -0.00072826
O        8.16816888       7.74845719       4.38244060      -0.00380671      -0.00698832       0.00240782
C        9.36896432       8.49964119       4.21866647      -0.00341639      -0.00676739       0.00153363
C        8.23494921       6.49120266       3.74155675      -0.00230342      -0.00573915      -0.00037352
C        9.33546820       9.66933187       5.16428748      -0.00111331      -0.00380293      -0.00089735
C        6.88810187       5.82053577       3.85949189      -0.00565273      -0.00403060       0.00150239
H       10.23095645       7.85748878       4.44049720      -0.00367108      -0.00455782      -0.00219539
H        9.44655074       8.81691599       3.16754709      -0.00650734      -0.00556608      -0.00010610
H        8.51161372       6.62302376       2.68346877      -0.00576162      -0.00381394      -0.00001860
H        9.02463890       5.88040720       4.20625191      -0.00372994      -0.00623041      -0.00274444
H       10.17354956      10.34669252       5.00010101      -0.00460023      -0.00625397       0.00053924
H        8.41258233      10.23550632       5.04542159      -0.00333619      -0.00504459       0.00148026
H        9.40466572       9.31886828       6.18989593      -0.00167846      -0.00555052       0.00189826
H        6.91847245       4.82169326       3.42650490      -0.00521636      -0.00542994      -0.00323913
H        6.59678401       5.73652999       4.90735181      -0.00132674      -0.00941250       0.00026044
H        6.12634200       6.40012831       3.33761243      -0.00401154      -0.00440666       0.00478068
O       10.53785430       4.58341083      12.47992993       0.00103147       0.00421262       0.00074108
C       11.67158828       3.87586554      12.01328535       0.00085676       0.00528662       0.00259227
C        9.67515121       3.71477538      13.19628326      -0.00283206       0.01205871       0.00413370
C       12.41185053       4.72742718      11.01437849       0.00340191       0.00348553       0.00434807
C        8.47698622       4.45094313      13.73651446      -0.00126243       0.01380664      -0.00784203
H       12.32671447       3.62448176      12.86914265      -0.00218353       0.00398953       0.00469449
H       11.35270005       2.92995294      11.55440223       0.00002223       0.00473094      -0.00030729
H        9.35816317       2.90326223      12.53307098      -0.00196482       0.00623211       0.00345373
H       10.23036203       3.25343370      14.02426563      -0.00363746       0.01039311       0.00532615
H       13.29270165       4.19622137      10.65236189       0.00538246       0.00163496       0.00726384
H       11.76176590       4.94000211      10.16545576       0.00838575       0.00441637       0.00244987
H       12.71554933       5.67499439      11.46008522       0.00521902       0.00349560       0.00410652
H        7.82229678       3.72982812      14.23005215      -0.01043715       0.03028560      -0.00377351
H        8.76621155       5.20239483      14.47054743       0.00108382       0.02568565      -0.01386526
H        7.91610276       4.93308608      12.93657532       0.00774680       0.01401699      -0.01611488
O       11.06613340       7.48429862       6.87644674       0.00394598      -0.00193682       0.00071697
C       10.68672866       6.16380183       7.21635661       0.00137037      -0.00245324      -0.00397991
C       12.45967497       7.59225594       6.62015642       0.00436595      -0.00402617       0.00023746
C        9.21966340       6.14754835       7.56844418       0.00219917       0.00176844       0.00045435
C       12.75797305       8.92376065       5.97540351       0.00555454      -0.00289226       0.00281340
H       10.88623918       5.49638999       6.36531008      -0.00336157       0.00068083      -0.00698066
H       11.29655014       5.80513532       8.05959281       0.00247058      -0.00774580      -0.00710770
H       13.00921564       7.47813805       7.56509503       0.00453180      -0.00695302      -0.00060880
H       12.77098752       6.76786169       5.96073724       0.00241192      -0.00277945      -0.00193316
H        8.89189827       5.12784490       7.77750291      -0.00048466       0.00145526      -0.00199421
H        9.02900705       6.75349395       8.45443464       0.00713268      -0.00121866       0.00314060
H        8.62896001       6.54971531       6.74349221       0.00124858       0.00592519       0.00376834
H       13.83742879       9.05306467       5.88215929       0.00542252      -0.00368990       0.00283055
H       12.32178402       8.97479614       4.97689462       0.00504738       0.00020327       0.00346321
H       12.36550161       9.75994671       6.55682838       0.00607185      -0.00384524       0.00512226
O        4.83760265       9.97408410       1.36086889       0.00241515       0.00046548      -0.00413352
C        3.43568557      10.02245833       1.15102948       0.00193885       0.00517029      -0.00652325
C        5.42695001       8.87268626       0.69587556      -0.00006902      -0.00083293      -0.00669029
C        2.86248852      11.19183806       1.91186212       0.00709128      -0.00079694       0.00169563
C        6.89804476       8.82124595       1.02770645      -0.00105232      -0.00099374      -0.00230992
H        3.22900352      10.10978446       0.07403510       0.00272013       0.00559471      -0.00402164
H        2.98344489       9.07941127       1.49326055       0.00053856       0.00131264      -0.00713274
H        4.92849074       7.94220220       1.01356639      -0.00294513       0.00119194      -0.00954367
H        5.26951806       8.96828871      -0.38865386       0.00197266       0.00336579      -0.00638771
H        1.78710919      11.25382570       1.73883144       0.00103167       0.00227643      -0.00069250
H        3.03853457      11.06865821       2.98000870       0.00407011      -0.00068978      -0.00434870
H        3.32144575      12.12446113       1.58241749       0.00349439       0.00276960      -0.00077097
H        7.36524520       7.97708044       0.51752095      -0.00146600      -0.00667895      -0.00513182
H        7.40468843       9.73263165       0.70958970       0.00181842      -0.00647700      -0.00167480
H        7.04802039       8.69987159       2.10237035      -0.00338600      -0.00590775      -0.00463986
O        6.97162307      11.95632395      11.40461936       0.00306553       0.00022173      -0.00025171
C        7.84387413      11.09877183      12.11523938       0.00425953       0.00078966       0.00034661
C        5.61544763      11.58043785      11.54211427       0.00353044       0.00132012       0.00523481
C        9.26833337      11.48733264      11.80861486       0.00376707       0.00835367      -0.00292543
C        4.76744250      12.57261422      10.78453216       0.00287759      -0.00130281       0.00150356
H        7.64657626      11.18105483      13.19469395       0.00740901       0.00360999       0.00205654
H        7.64203912      10.05351676      11.82724455       0.00137691       0.00249785       0.00632212
H        5.47591498      10.56815944      11.13603986       0.00160877       0.00002903       0.00886458
H        5.33801542      11.56044214      12.60852541       0.00609680       0.00653592       0.00538510
H        9.96222262      10.83241110      12.33895722       0.00646254       0.00464665      -0.00558685
H        9.47784160      11.43415940      10.74054991      -0.00016479       0.00273097      -0.00601155
H        9.43956312      12.50937024      12.13810460       0.01123867       0.00359626      -0.01250593
H        3.71350018      12.29939982      10.84041190       0.00311521      -0.00195538       0.00411054
H        4.88704141      13.57312972      11.19925875       0.00270617       0.00061779      -0.00218782
H        5.06668981      12.59161513       9.73683609       0.00088797      -0.00546531       0.00168017
O        5.78598476       9.76851714       8.55097114      -0.00624523      -0.00062197       0.00044328
C        4.59543701       9.10471963       8.16938687      -0.00464249      -0.00603268       0.00605112
C        6.94317672       9.03371514       8.18456727      -0.00432593      -0.00024833       0.00543422
C        3.41202571       9.92099125       8.62592329      -0.00576967      -0.00507572       0.00068766
C        8.16048578       9.81455517       8.60354888      -0.00683600       0.00603607      -0.00109242
H        4.57423894       8.98997245       7.08057764      -0.00478219      -0.01420776       0.00651729
H        4.57125641       8.09751945       8.61411927      -0.00207309      -0.00277090       0.01327315
H        6.91650553       8.04804719       8.67485239      -0.00149652       0.00328910       0.01264003
H        6.94364387       8.84943213       7.09974688      -0.00448623      -0.00782346       0.00657868
H        2.48417840       9.46438362       8.28107918      -0.00548726      -0.00960009       0.00563551
H        3.38221739       9.99103011       9.71323030      -0.00431801       0.00300127       0.00034843
H        3.46857613      10.92943962       8.21684458      -0.00820829      -0.00830153      -0.00682285
H        9.07212606       9.26265216       8.37255174      -0.00540404       0.00541091       0.00368843
H        8.21165082      10.77863248       8.09836068      -0.00773682       0.00107241      -0.00975418
H        8.12556786      10.00063850       9.67441078      -0.00778294       0.01507313      -0.00277737
O       11.33263723       8.24331544      12.00996942       0.01321357       0.01503049       0.00777930
C       10.18432902       7.76731046      12.68586188       0.00169567       0.00869952       0.00099921
C       11.07111365       8.52899500      10.64357783      -0.02163181       0.01495168       0.00816369
C       10.57784921       7.44347162      14.10648271       0.01788907       0.02225278       0.00994676
C       12.29908848       9.14823660      10.02912637       0.02914509      -0.02716091       0.00369304
H        9.39768939       8.53739447      12.66580208       0.00483814       0.00873077       0.00620539
H        9.79657023       6.87213361      12.18383298       0.01079726       0.01186043       0.01389548
H       10.78680719       7.60366540      10.11900021       0.02194872      -0.01009941       0.00599039
H       10.21958851       9.21555172      10.57079814       0.00853103      -0.01716432      -0.00319523
H        9.70168303       7.16164369      14.69019820       0.00893462       0.02243707       0.01502872
H       11.27945795       6.60972528      14.11878810       0.00914370       0.01892890       0.01159864
H       11.03979170       8.31085536      14.58023843       0.01084264       0.01783170       0.00061884
H       12.08858756       9.47336606       9.01115531      -0.00556251      -0.00491084      -0.01971924
H       12.60485492      10.02523566      10.59923087      -0.00993249       0.02121118      -0.00659712
H       13.12707189       8.43678055      10.01532216      -0.00455837       0.03349325       0.01329693
