199
Lattice="18.209039806089816 0.0 0.0 0.0 18.209039806089816 0.0 0.0 0.0 18.209039806089816" Properties=species:S:1:pos:R:3:forces:R:3 energy=-2472331.75 stress="-7.67770252423361e-05 7.584044578834437e-05 -1.6160050108737778e-05 7.584044578834437e-05 -0.00037696902290917933 0.0002611396776046604 -1.6160050108737778e-05 0.0002611396776046604 -0.00032517415820620954" pbc="T T T"
Cf      21.05397374      16.96494305       1.70432569       0.00411302       0.00578964       0.00253612
F        1.97388659      18.59840728       6.18225668      -0.01969105      -0.00624441       0.00496054
F       10.09655301      17.20997412      18.84808780      -0.01719328       0.00952697       0.00645947
F        2.74746148      15.82033527       0.06743978       0.04874252       0.00616398       0.00074306
Cl       1.59652086       6.30550630      13.97696755      -0.00099109      -0.00058993       0.00545803
Cl       1.31330315       8.08257548      16.27394048       0.00313082       0.00016427       0.00529465
Cl       0.78097112       5.22874996      16.56217991      -0.00146917       0.00127327       0.00596586
C        1.75294695       6.45918717      15.72834695       0.00010853      -0.00071351       0.00550333
H        2.79205793       6.29058755      15.98490066       0.00002494      -0.00230892       0.00489814
Cl      12.74020850      16.79740799       1.10408537      -0.01524508       0.01554962      -0.00360306
Cl      15.02762192      17.97416008       2.50951850      -0.00110167       0.00174260      -0.01148713
Cl      14.99427074      15.10455213       1.98827452      -0.01711302       0.00483871      -0.01295340
C       14.46656320      16.70236996       1.38808969      -0.01417372       0.00659125      -0.01022437
H       14.99173581      16.86434862       0.45536706      -0.01878610       0.00424014      -0.01366037
Cl       8.40037629       3.30901653       4.86901186       0.01488209      -0.01710925       0.00796151
Cl       8.47617929       0.67323727       3.58380151       0.00866947       0.00600383      -0.03282823
Cl       5.97909928       1.68799286       4.74627187       0.00894937      -0.00749956      -0.01432858
C        7.50885094       2.10124305       3.92553477       0.01043557       0.00055592      -0.00998387
H        7.24579743       2.55745133       2.97940090       0.00775437       0.01490384      -0.00250754
Cl      15.55208401       5.35497985       9.63606560      -0.00634648       0.00726278       0.00351933
Cl      14.72265070       7.60295956       7.98283566      -0.01876281      -0.01006411      -0.01365064
Cl      17.54975040       6.93908724       8.21038188      -0.01383224       0.01696774       0.00295674
C       15.90250775       6.29980415       8.18039253      -0.00816625       0.00185073      -0.00026093
H       15.81757013       5.63952105       7.32317509       0.00161873      -0.00442190       0.00356266
Cl       4.89562336       2.96292273      14.52685166      -0.00722131       0.00231794       0.01482821
Cl       5.53756842       0.12021283      14.75676453       0.00380802       0.00431371       0.00578932
Cl       7.51244032       2.13705540      15.51414279       0.00028533       0.00946144       0.00032787
C        5.79994838       1.73164337      15.43991008       0.00160243       0.00352283       0.00761513
H        5.41192292       1.72903651      16.45148867       0.00614940       0.00024924       0.00999129
Cl       2.85690606      12.59103109       3.19549748       0.00629225       0.00251095      -0.00688033
Cl       2.45469199      10.47851993       5.16562662      -0.00538913       0.00759444      -0.00654149
Cl       1.45646925      10.15412565       2.44532022      -0.00049689       0.00910144      -0.01143369
C        2.72450059      10.82953340       3.45503635      -0.00095266       0.00323968      -0.00629481
H        3.67067268      10.38927532       3.16148033       0.00022626       0.00157772      -0.00261876
Cl       2.03956439       6.44559405       2.69689737       0.00378639      -0.00711122      -0.01226062
Cl       3.93854237       4.46595665       3.69304432       0.01468039       0.00960836       0.00056122
Cl       4.06687332       7.21025175       4.66322490      -0.01217076       0.01277374      -0.00373355
C        3.00348483       5.91696508       4.07694180       0.00147557       0.00319729      -0.00657691
H        2.33006303       5.66821528       4.88893961      -0.00072584      -0.00050543      -0.00961538
Cl       3.49837963      11.32829081      13.31530271      -0.00276005      -0.00276342       0.00365638
Cl       2.95662163       8.86797773      11.85401866       0.00245318      -0.00320153       0.00188434
Cl       4.52529218       8.78612357      14.31638758       0.00374043      -0.00137946       0.00073296
C        3.19983684       9.58798858      13.44099954       0.00142774      -0.00374248       0.00231012
H        2.29910567       9.44040863      14.02575124       0.00212038      -0.00600111       0.00240402
Cl      15.98893676       7.30104206      14.27878007      -0.00684679       0.00318070       0.00342244
Cl      14.54951935       8.58891959      12.09386567       0.00361159      -0.00608407      -0.00893413
Cl      17.29297795       9.38971936      12.70126375       0.00210230      -0.00657782      -0.00162862
C       16.12518613       8.04793211      12.68646840       0.00055208      -0.00510355       0.00013852
H       16.50182086       7.30215904      11.99721028       0.00224079      -0.00891057       0.00542650
Cl       5.83395608      10.81676012       5.11024509      -0.00156725       0.00609738      -0.00187172
Cl       7.87354641      12.42852191       6.41208788       0.00357283      -0.01171851       0.01302636
Cl       8.42898396       9.63949016       5.72214066      -0.00522797      -0.00550324      -0.00148553
C        7.58809824      11.12006415       5.26357561      -0.00033155      -0.00120766       0.00261328
H        7.94145853      11.44123429       4.28936177       0.00120264       0.00238366       0.00438383
Cl      -0.25399580       1.81238620       3.56772957      -0.00000777       0.00057107       0.00107786
Cl       0.44007419      -0.93960456       2.86213064      -0.00199209      -0.00068229      -0.00388785
Cl       2.52906209       1.16482162       2.85816609      -0.00218034       0.00286528       0.00613349
C        0.96335522       0.62163721       3.85463779      -0.00230730      -0.00169572      -0.00046527
H        1.52076544       0.42712245       5.26692977      -0.01080608      -0.00569002      -0.00019473
Cl      14.26271573       1.58750655      14.24578789       0.01059538       0.00212041       0.00857162
Cl      14.19575229       3.86030525      12.42568588      -0.00397643      -0.00530836      -0.00179087
Cl      16.40452844       3.57913682      14.31975245       0.00302774       0.01056273      -0.00943053
C       15.23287346       2.72526528      13.29879956       0.00242266       0.00153219      -0.00089109
H       15.79419625       2.15854477      12.56651480       0.00049192      -0.00083856      -0.00032263
Cl       9.40593335      15.65832245       1.95835179      -0.01250488       0.00166607       0.00290716
Cl       7.74893122      13.23309202       2.46194298      -0.01793757       0.00526699       0.00800076
Cl      10.35525177      13.52313848       3.75875809      -0.01217136      -0.00266844      -0.00215567
C        8.94332662      14.44052020       3.12109430      -0.01176397       0.00183505       0.00395225
H        8.45936590      14.86516852       3.99553153      -0.00698140       0.00290711       0.00474936
Cl       7.78513971       6.54680075      10.85353573       0.00630009      -0.02349267       0.00028709
Cl       5.16881612       5.68411901      11.82166530       0.00094679      -0.00592157      -0.00012277
Cl       7.37789564       6.03634255      13.69442381      -0.00356457       0.00260000       0.00439799
C        6.62824399       6.61042016      12.19106016       0.00328246      -0.00857273      -0.00319935
H        6.33751472       7.64369472      12.33637075       0.00691674      -0.00617790      -0.01322829
Cl      11.60805915      13.99859458      13.77861533      -0.01722480       0.00488621       0.01464981
Cl      10.36536878      15.94235488      15.59373135       0.00493592       0.01251012       0.02374436
Cl      11.78616833      13.64884429      16.68290553       0.00857188       0.01238513       0.01464182
C       11.68899799      14.83356006      15.35153729      -0.00103241       0.00866631       0.01196137
H       12.61786876      15.38956776      15.36100497       0.00065467       0.00595599       0.00089231
Cl      14.52725512      12.30806294      11.40674877      -0.01119834       0.00007504       0.00988299
Cl      11.87885531      11.11574050      11.10147798      -0.00666824      -0.00221446      -0.01350018
Cl      12.69929497      13.34097804       9.40117701       0.00310341       0.00554463      -0.00014527
C       13.24047325      11.89621842      10.28357366      -0.00229066       0.00295518      -0.00112353
H       13.63143090      11.19240101       9.55943283       0.00320673       0.00608459      -0.00144859
Cl      16.11966833      11.15658450       1.42005586      -0.01178037       0.00001091      -0.00467034
Cl      17.25739002       8.53849495       0.75055899      -0.00466913       0.00250354      -0.00100778
Cl      14.95668029       8.72121342       2.53969461      -0.00970677      -0.00238770      -0.00750443
C       15.78535646       9.44417183       1.15332494      -0.00769942      -0.00065547      -0.00520311
H       15.12349142       9.36259157       0.30047593      -0.00518972      -0.00187422      -0.00703317
Cl      13.13536216       4.98372014      16.01663474      -0.00239182       0.00124048      -0.00214259
Cl      11.89241350       6.53476683      13.87633063      -0.00128300       0.00003147      -0.00351804
Cl      10.73935173       3.97683138      14.67997363       0.00108974      -0.00168812      -0.00604583
C       11.61311057       5.41712761      15.21836417      -0.00190429      -0.00066726      -0.00415176
H       10.99815274       5.92889788      15.94762203      -0.00345615      -0.00177021      -0.00510433
Cl      12.04473005      10.30297060      14.68470100       0.00182155       0.00383641      -0.00853315
Cl      13.30646728       8.72706524      16.78267177      -0.01336365       0.00195694      -0.00064255
Cl      14.81600508      10.83191190      15.43144845      -0.00175130      -0.00097946       0.00818464
C       13.21913310      10.32249517      15.98980143      -0.00604841       0.00182781      -0.00151199
H       12.89117675      11.03773479      16.73260967      -0.00926194       0.00264069      -0.00362611
Cl      17.77347386       1.26214624       7.49924515      -0.00377157       0.00685060       0.00337321
Cl      15.25222916       2.59295474       6.86326464      -0.00142229       0.01009622       0.00851843
Cl      15.52171836       1.12558213       9.37400038      -0.00286858       0.00051823       0.00365379
C       16.37427352       2.09606101       8.15181171      -0.00229770       0.00515524       0.00752498
H       16.71564492       2.99699830       8.64591671      -0.00240763       0.00309354       0.01140206
Cl      17.54005123       5.13682719       4.98774304       0.00140798       0.00257421      -0.00337380
Cl      16.32326803       4.77957193       2.35279859       0.00190111      -0.00695263      -0.00247127
Cl      14.73151412       5.78821088       4.58136601       0.00121804      -0.00120493      -0.00588899
C       16.33942461       5.74081768       3.83079761       0.00096481      -0.00185652      -0.00553931
H       16.60992540       6.75555956       3.56409803       0.00036595      -0.00284690      -0.00886117
Cl      -0.48905646      13.62056723      15.81746677      -0.00564381       0.00442123      -0.00031522
Cl       2.25220626      14.40436954      15.15656482      -0.00479408       0.00612596       0.00753774
Cl       1.74850088      11.91606094      16.59057179      -0.00749712       0.00950448       0.01664844
C        1.12811889      13.05110681      15.38114301      -0.00298297       0.00487662       0.00929421
H        1.06187088      12.52980903      14.43382912       0.00205697       0.00141487       0.01062676
Cl       7.80563195      12.05630536       9.84904820       0.02451510      -0.01010834       0.01372132
Cl       6.38341865      13.71702190      11.78546111       0.00573555      -0.00150812      -0.00748003
Cl       7.27913752      11.03619860      12.53320916      -0.00051382       0.00085494       0.01222965
C        7.62872885      12.47373145      11.55718293       0.00841690      -0.00231394       0.01026692
H        8.57040552      12.88469342      11.89969966       0.00395826      -0.00062861       0.01729435
Cl       1.00436148      -1.06735534      12.37655027      -0.00340549      -0.00369948      -0.00842831
Cl       1.91027435       1.13815881      14.03853759       0.01390027      -0.01155673      -0.00656545
Cl      -0.74923493       0.00281312      14.45656747       0.00355169       0.00984817      -0.01065299
C        0.91769859      -0.33845770      13.97823396       0.00164705      -0.00302820      -0.00843413
H        1.33371135      -1.03739201      14.69469862      -0.00493950      -0.00606261      -0.00776845
Cl       3.69562385      -0.80556125       9.05111816       0.00905851      -0.00968367      -0.00911166
Cl       5.38141418       0.49404849      11.05794168      -0.00388715      -0.00914811       0.00170732
Cl       6.51577226      -0.28425432       8.48718724       0.00966355      -0.00058100       0.00496161
C        5.05331016       0.27902801       9.33244846       0.00463715      -0.00635570      -0.00017394
H        4.80119483       1.24571094       8.91539383       0.00400288      -0.00627860       0.00061215
Cl      14.98937100      17.21850489       6.33227070      -0.00753239       0.00242472      -0.00113948
Cl      13.12090615      15.13852994       5.49513785      -0.00539872       0.00106084      -0.00240198
Cl      15.93357537      14.49660870       5.86980097      -0.00296560       0.00574937      -0.01415987
C       14.58427296      15.50594314       6.42018554      -0.00309340       0.00103665      -0.00601205
H       14.39442796      15.25896953       7.45782747       0.00106344      -0.00275032      -0.00610617
Cl       8.62723093      -0.47366353      12.68733167       0.00570127       0.00851083       0.00280836
Cl       8.87945789       2.32516563      11.87240583       0.00025642       0.00352937      -0.00972341
Cl      11.22362390       0.58479199      11.90298252       0.00588548       0.01167105       0.00940368
C        9.47102389       0.67041379      11.64105497       0.00679008       0.00560229       0.00039987
H        9.27349864       0.39083125      10.61354398       0.01207400       0.00219466       0.00062716
Cl       3.09138187      13.87013016       7.14822542       0.00146192      -0.01853272      -0.00310260
Cl       0.90209832      13.64315681       9.05214537       0.02364377       0.00221531       0.02500540
Cl       1.00791104      15.91147200       7.22581202       0.00762177      -0.01278567       0.00471909
C        1.36177366      14.19940325       7.44276047       0.00594736      -0.01162075       0.01495434
H        0.79864686      13.63265075       6.71017720      -0.00440019      -0.01622622       0.02644373
Cl       3.42134259       3.10346903      18.27393358       0.00075179      -0.00567711      -0.00584163
Cl       2.76294134       0.36728361      17.43022047      -0.01460688      -0.00697991       0.00205013
Cl       0.64115484       2.19376755      18.24997780      -0.00648703       0.00474098       0.00997726
C        2.21430980       2.09803085      17.49202455      -0.00912835      -0.00087470      -0.01640713
H        2.13352377       2.38383465      16.44765096      -0.01129904      -0.00921129       0.01110284
Cl      16.92386814      11.10032225       4.98618959      -0.00642270      -0.01097649      -0.00655428
Cl      17.92371381      10.53704710       7.66527075       0.00227526       0.02340724      -0.00246486
Cl      15.10930214      11.19057902       7.26832968      -0.00285184       0.00052829      -0.00464758
C       16.54224066      10.42061504       6.57205142       0.00093922       0.00254274       0.00079283
H       16.30707080       9.37235517       6.43662167       0.00786380      -0.00021037       0.01229763
Cl       4.16325832      11.36082892       9.58826613       0.01334003      -0.00547740       0.00360385
Cl       5.62906987       8.86655192       9.16879338       0.00639677      -0.00770420      -0.00414866
Cl       2.82242188       9.06851049       8.37408480       0.00708425      -0.00039415      -0.00355087
C        4.36711734       9.94308701       8.56819142       0.00812080      -0.00335883      -0.00042334
H        4.65921194      10.27724326       7.58054746       0.00795067      -0.00050256       0.00065404
Cl       7.72239204       9.56905546       1.86778460       0.00983855      -0.00186278       0.00627199
Cl       5.36159685       8.00326222       1.15927221       0.00416760       0.00641694       0.00988474
Cl       7.55648883       6.74663362       2.62667403       0.00640784      -0.00413272      -0.00288805
C        6.65173864       8.23986454       2.35039076       0.00893398      -0.00095579       0.00613499
H        6.18686082       8.51907227       3.28818813       0.01333614      -0.00339408       0.00908202
Cl      16.08360450      15.09379326      12.95492770      -0.00295986       0.00213283       0.00601977
Cl      16.33055420      15.60802728      10.09107953       0.00153871      -0.00507030       0.00537372
Cl      14.00256024      16.59655802      11.55549458       0.00054646       0.00120920      -0.00013249
C       15.72939191      16.22134234      11.63485977       0.00011802      -0.00049594       0.00303665
H       16.26097818      17.14076753      11.85031412       0.00058618      -0.00089368       0.00123600
Cl       5.37646498      15.89067862       2.64354452       0.00880374       0.00286286      -0.01121524
Cl       5.62016178      16.21590674       5.53978078       0.02174611      -0.00239643      -0.01002368
Cl       3.00842360      15.86207824       4.30759092       0.01680207       0.00680367       0.00182502
C        4.75315041      15.43641422       4.27183701       0.01611884       0.00218645      -0.00924042
H        4.81961592      14.35474617       4.34311167       0.01434068       0.00206415      -0.01254312
Cl       3.69766929       5.62177034       8.01232838      -0.00275147      -0.01314417      -0.00860219
Cl       5.86367238       3.75013275       8.56497038       0.00086567      -0.00817567      -0.00798970
Cl       3.47713695       2.84885963       7.12490123       0.00207353      -0.01457155      -0.00617858
C        4.57687839       4.19989786       7.43173593      -0.00045628      -0.01211414      -0.00807842
H        5.05038577       4.46075967       6.49272845      -0.00189984      -0.01236357      -0.00856847
Cl      10.55688276       5.13972743       7.49207189      -0.00204679       0.00689253       0.00988537
Cl      11.35621095       5.32472581      10.29672185       0.00525887      -0.01575375       0.00946563
Cl      11.61569070       2.78787567       8.87031676      -0.00309807      -0.00555360      -0.01093110
C       11.67100616       4.54850826       8.73605989      -0.00014719      -0.00437696       0.00281914
H       12.67416255       4.82304089       8.43313862      -0.00079256      -0.00446565       0.00262983
Cl      11.65195398      11.40859634       6.57104435      -0.00281076       0.00512619       0.00017986
Cl      13.21665045      11.51918875       4.11138724      -0.00949374       0.00055733      -0.00423047
Cl      12.47131978       8.93778925       5.25495988      -0.00228398       0.00280076       0.00495900
C       11.99448079      10.63467204       5.01563645      -0.00554249       0.00124329       0.00160221
H       11.07642152      10.63619117       4.44077512      -0.00716758      -0.00187886       0.00411603
Cl       2.89169697       3.05479504      11.12358486       0.00238013       0.00712883      -0.00175226
Cl       1.02889704       5.27624111      10.83438209      -0.00612493       0.00011477       0.00147302
Cl       0.02531808       2.54425119      11.03138028       0.00429313      -0.00357516       0.00339347
C        1.29610463       3.67294595      11.53761536       0.00092207       0.00101578       0.00116879
H        1.23421215       3.76762449      12.61502901       0.00268741       0.00076326       0.00116074
Cl       9.57627311      16.88619535       6.58962025      -0.00173971       0.00959367      -0.00396660
Cl      11.77211263      16.78310534       8.50908148      -0.00721473       0.00351942       0.00212030
Cl       9.26590956      15.41735180       9.09329888      -0.00743723      -0.00158851      -0.01097783
C       10.39260781      15.91430400       7.82268564      -0.00457533       0.00547147      -0.00544983
H       10.77295125      15.02160556       7.34046489      -0.00222558       0.00786132      -0.00853524
