197
Lattice="19.295129679416156 0.0 0.0 0.0 19.295129679416156 0.0 0.0 0.0 19.295129679416156" Properties=species:S:1:pos:R:3:forces:R:3 energy=-2909107.5 stress="-0.0007105161203071475 -0.0004238172259647399 -0.0002620523446239531 -0.0004238172259647399 -0.0009903301252052188 3.973241473431699e-05 -0.0002620523446239531 3.973241473431699e-05 -0.00034458775189705193" pbc="T T T"
Cf      19.05914365      17.76024849       0.00048376       0.00741008      -0.00084281       0.02121067
O       11.22486074      17.04938410      11.17368857      -0.00102097      -0.03603858       0.00209290
H       11.45250641      17.51556811      11.98764831      -0.01424369       0.03290129       0.01607943
O       -0.33065516      16.15942396      18.16526405       0.00549488       0.00881199       0.01131199
H        0.12334771      16.20900388      17.30691761      -0.00053588       0.01237756       0.00410339
O        2.83425415      16.88528335       7.11691893      -0.00778478      -0.01033288      -0.04303676
H        3.09769964      16.95591863       8.04391413       0.00828764      -0.01399460       0.02927053
Cl       8.19734701      11.02999487      19.13104974      -0.00405025       0.00302151      -0.00109699
Cl       9.57860372      10.15867176      16.73509223      -0.00956695      -0.00839043       0.00042748
Cl      10.94451234      11.82853977      18.67782770      -0.00552267       0.00149497      -0.01160052
Cl       8.82776350      12.94493849      17.04268458      -0.00925693      -0.00721872      -0.01191545
C        9.38444084      11.49024668      17.89795913      -0.00703076      -0.00290465      -0.00583786
Cl       1.93652354       6.29028526      15.27201458       0.00429022      -0.00297865       0.01071849
Cl       0.13214463       8.45504794      15.95835423       0.00522352      -0.00072283       0.00445122
Cl      -0.31790898       5.79629613      17.03044167       0.00314648       0.00246783       0.01027572
Cl      -0.76317386       6.33037418      14.20926674       0.00535785      -0.00435923       0.00916582
C        0.24838739       6.72407263      15.61239656       0.00441705      -0.00122753       0.00869999
Cl      13.88690983      18.57526662       2.13689574       0.00083554       0.00687273      -0.00109869
Cl      14.33145208      16.08335246       0.73038123       0.00248845       0.02254580      -0.02684651
Cl      15.82263991      16.68287436       3.13839965      -0.00955644      -0.01155841      -0.01399346
Cl      16.39179297      18.22085382       0.64394344       0.00751099       0.01736039       0.01149571
C       15.01734842      17.31488157       1.73158152       0.00074959       0.00913769      -0.00971350
Cl      -0.17737452      18.32904161       2.94015528       0.00568503      -0.02227697       0.01665284
Cl       0.94839316      15.94358413       1.81040767       0.02842045      -0.00484705       0.00216906
Cl       0.93282643      16.33289967       4.72990089       0.04671982      -0.01006980       0.00281967
Cl       2.71113025      17.88668073       3.08425715       0.01173617       0.01449840      -0.00717421
C        1.14891696      17.12227087       3.22989975       0.02285899      -0.00682875       0.00336236
Cl       6.55746412      -0.17571696       3.02315245       0.00484352       0.00236517       0.00177362
Cl       7.61617451       2.27140227       4.16076696       0.00050002       0.00779137      -0.00697419
Cl       5.98956425       2.37479709       1.75208150      -0.00641453      -0.00261787      -0.00229792
Cl       8.66770797       1.26787308       1.65437733      -0.00378156       0.00543876      -0.00749546
C        7.20693149       1.43082256       2.64929479      -0.00120958       0.00322663      -0.00385278
Cl      16.46553328       5.33039462       9.25761099       0.00863743       0.00505002       0.00369516
Cl      13.71870275       4.81290289       9.98263135       0.00874662       0.00128177      -0.00025370
Cl      14.69064588       7.53966327       9.88309306       0.00556299       0.00205922       0.00381799
Cl      15.57558561       5.74821853      11.99161420       0.00532764       0.00139269       0.00279468
C       15.10864766       5.85961602      10.27530468       0.00715862       0.00258089       0.00265081
Cl       6.64114842       0.67258363      13.51469022      -0.00188905      -0.00661728      -0.00257048
Cl       5.87756307      -0.59617571      16.01865253      -0.00233249      -0.00433758      -0.00207445
Cl       3.98733004      -0.42554482      13.83210789      -0.00745836       0.00877441       0.00349899
Cl       4.74762643       1.97246657      15.27892316       0.00983214       0.00241995       0.00305058
C        5.32437843       0.40099631      14.65728215      -0.00029028       0.00028738       0.00046370
Cl       2.90885019      10.80567776       4.85545702       0.00742295      -0.00354668      -0.01461571
Cl       2.05331536       9.17647736       2.63529819      -0.00372367      -0.01990715       0.00146687
Cl       1.75056098      12.05540051       2.50087145       0.00359843      -0.02149075      -0.02240923
Cl       0.08047941      10.53321384       4.30048789       0.00575411      -0.00078484      -0.00280075
C        1.69595814      10.63728988       3.58307714       0.00344872      -0.01114862      -0.00894555
Cl       1.51086381       5.33215507       4.93251670      -0.00194014       0.00508189       0.00443649
Cl       0.72593084       5.62934868       7.71745486      -0.00406429       0.00102793       0.00345159
Cl       1.47349959       7.95161419       6.17681793      -0.00077264       0.00295293       0.00828398
Cl       3.49207560       6.02426132       6.92028665      -0.00309592       0.00055205       0.00690044
C        1.80397434       6.23115192       6.42924615      -0.00249780       0.00248904       0.00582445
Cl       4.34840289       8.99598901      16.10089455       0.00440141       0.00587755       0.00265813
Cl       2.75450942      10.84379136      14.53149106       0.00213158       0.00766705       0.00757518
Cl       5.00963737       9.49041224      13.31787089       0.00210369       0.01087683       0.00342810
Cl       5.46309479      11.55040221      15.30867646       0.00247765       0.00772950       0.00644378
C        4.39824818      10.21740821      14.81372770       0.00310962       0.00750551       0.00512852
Cl       9.00768708      16.95162406       8.58830583       0.00342195       0.00494349       0.00171518
Cl       8.21105028      16.93810716       5.79486837      -0.00411645      -0.01612842       0.00522494
Cl      10.20148758      18.80553060       6.71336093       0.00037605      -0.01086625      -0.01575439
Cl       7.42441223      19.12616570       7.51519720       0.00346214      -0.00097179      -0.01109847
C        8.70920766      17.94933126       7.15626831       0.00059443      -0.00546369      -0.00515499
Cl      17.26431804       9.24579900      12.29476445       0.00599524       0.00166648       0.00881356
Cl      17.73543884       9.74797576       9.48512884       0.00336021       0.00231963       0.00904116
Cl      19.17582759       7.62596858      10.82104786       0.00649403       0.00412905       0.00803889
Cl      19.78159021      10.38566075      11.45436112       0.00370052       0.00461504       0.00683993
C       18.48768993       9.24849164      11.01607758       0.00446685       0.00332844       0.00733192
Cl      10.40999941       1.53817314      13.90237244       0.00210326       0.00123554       0.00080156
Cl       8.89238564       1.61259529      16.37404686      -0.00307792       0.00724706      -0.00204557
Cl      11.62434912       0.67193073      16.39370078      -0.00121176       0.01120627       0.00549430
Cl       9.56470522      -0.93544457      15.13523512      -0.00048143       0.00642008       0.01230931
C       10.12238306       0.71693271      15.45331616       0.00018029       0.00681916       0.00351524
Cl       8.11657161      10.42927240       5.34738933       0.00109598      -0.00063760      -0.00010592
Cl       9.42584457      11.45399969       7.71832607       0.00326190      -0.00076145      -0.00160432
Cl      10.93230964       9.88623915       5.78802803      -0.00022349      -0.00530368       0.00010714
Cl       8.93483472       8.60867240       7.45015764      -0.00214392       0.00022429       0.00141904
C        9.34809089      10.09424809       6.57317889       0.00056146      -0.00160800      -0.00008180
Cl       1.13288296       1.69186820       4.80780912       0.00388232      -0.00086861       0.00136659
Cl       2.47377260       2.63821946       7.19716327       0.00085323      -0.00171292       0.00326926
Cl       4.01377932       1.95377285       4.84104772       0.00369811       0.00158709       0.00431123
Cl       2.73543164      -0.15791811       6.42498318       0.00397876      -0.00026762       0.00073338
C        2.59867806       1.52682585       5.83302496       0.00312627      -0.00099301       0.00241382
Cl      16.46457774       3.78723993      15.13503415       0.00582474      -0.00282454       0.01666091
Cl      14.31738497       2.09706464      14.17001114      -0.00715771       0.01431323       0.01781699
Cl      14.48388346       2.76989288      16.98893661       0.00682564       0.00105458       0.01969704
Cl      16.42634933       0.96605965      15.80631928      -0.00872231      -0.00509557       0.00496212
C       15.41245592       2.41168499      15.51779143      -0.00062506       0.00166232       0.01481321
Cl      12.27398602      13.41775403       2.60474021       0.00467208       0.01099941      -0.00829907
Cl       9.47801456      14.12839395       2.28916175       0.00164464      -0.00067212      -0.00457546
Cl      11.32452393      16.01543277       3.49570747      -0.00680518       0.00300574       0.00181399
Cl      10.55203757      13.61624939       4.92906193       0.00461869      -0.00563349      -0.00737095
C       10.89759845      14.29457835       3.33009502       0.00132105       0.00202068      -0.00481162
Cl       5.43412242       5.56019389      13.51491318      -0.00541395       0.00305221      -0.00092159
Cl       8.02813670       4.32769151      13.91464714      -0.00677922       0.00028861      -0.00201298
Cl       7.48349793       6.94595775      15.03470921      -0.00515912      -0.00152606       0.00206453
Cl       7.77142411       6.63052930      12.16781480      -0.00373204       0.00254767       0.00176710
C        7.18256520       5.86467994      13.66168125      -0.00531536       0.00112847       0.00024546
Cl      11.38092321      16.14330640      17.38767368       0.00033385       0.00139773       0.00364348
Cl      11.24607597      15.07206474      14.68578345       0.00017095       0.01228274      -0.00028241
Cl      13.29909891      14.16111901      16.52185745      -0.00031453       0.00445431      -0.00375579
Cl      13.41264870      16.84099529      15.42754490       0.00000566       0.00844342       0.00605476
C       12.33139176      15.55760229      15.99862193      -0.00018123       0.00658941       0.00113578
Cl      14.79812531      13.53902751      13.24453583      -0.01565236      -0.00150132      -0.00081015
Cl      14.29239804      11.31680551      11.43658060       0.00422359      -0.00343794      -0.00268058
Cl      16.50105199      13.13110780      10.94831273      -0.01334751       0.01725826      -0.00211571
Cl      13.75410603      14.02850446      10.58868579      -0.02106601      -0.00791791       0.00055602
C       14.82998167      13.01165891      11.55064631      -0.01157140       0.00117126      -0.00127200
Cl      16.93956398      11.44600274       0.79541860      -0.00346186      -0.00654215      -0.00516972
Cl      18.14202957       8.85300888       1.27619872      -0.00751847      -0.00541538       0.00663878
Cl      15.44469795       9.00947197       0.25065105      -0.00759545      -0.00392684       0.00622112
Cl      15.98355231       9.80336337       2.97260161      -0.00478569       0.00351020       0.00327301
C       16.62493929       9.76995868       1.32393040      -0.00565237      -0.00302870       0.00350627
Cl      10.99078605       5.40969478      16.14317116      -0.00405729      -0.02396923      -0.00985968
Cl      13.67670214       6.07210780      15.29875974      -0.00595021      -0.01118076      -0.00009264
Cl      11.42301455       7.62023993      14.31094276      -0.00950192      -0.00984669       0.00899810
Cl      11.84065735       4.90551447      13.40880005       0.00086702       0.00010049      -0.01317704
C       11.98067627       6.00324973      14.79252023      -0.00477855      -0.01151110      -0.00357568
Cl      15.47375484       9.12551200      15.34153734      -0.00603542      -0.00408798       0.00204679
Cl      13.20639209       9.14960012      17.16141054      -0.00670978      -0.00848651       0.00013748
Cl      13.18124474      10.83414328      14.82888446      -0.00749227      -0.00689478       0.00109407
Cl      15.00079965      11.42767977      17.00951583      -0.01065138      -0.00530714       0.00240219
C       14.20862625      10.13519547      16.08030210      -0.00766960      -0.00610036       0.00145085
Cl      18.34017245      -0.34662510       8.18100890       0.00621784       0.00229645      -0.00536402
Cl      16.84115772       0.73655080       5.94475840       0.00360931       0.00174540      -0.00275341
Cl      18.25069292       2.50832122       7.76159148       0.00013727       0.00233299      -0.00469214
Cl      15.87194535       1.11882638       8.64987074       0.00403249      -0.00287153      -0.00354338
C       17.32466819       1.00148699       7.64637645       0.00369738       0.00046545      -0.00422966
Cl      14.98599275       6.84231268       5.80936685      -0.01436725      -0.00556424       0.00376284
Cl      16.56284489       4.44925604       5.36179748      -0.00512445       0.00210810      -0.00252879
Cl      17.62899495       7.03895608       4.64237717      -0.00614667       0.01009083       0.02700405
Cl      15.44884194       5.89414945       3.10600857       0.01017308       0.01797210       0.00041246
C       16.15477599       6.05479276       4.72627116      -0.00408915       0.00601168       0.00725743
Cl       1.48963118      16.59866200      15.32500000      -0.00481329       0.00941005      -0.03185094
Cl       0.39201168      13.95791081      14.84696451      -0.00706880      -0.02276013      -0.01090009
Cl       2.62652974      14.27902011      16.66830739       0.00786695       0.02258217      -0.02382433
Cl       3.01518964      14.64921154      13.81127521       0.00874384       0.00095119      -0.00409788
C        1.89672679      14.84047128      15.15469064      -0.02770939       0.00767724       0.00158483
Cl       8.28802947      13.94725412      10.65443921       0.00872207       0.00759766       0.00712210
Cl       8.11981960      11.69108327      12.46824264       0.00054349       0.00820407       0.00732334
Cl       5.71505185      13.13830744      11.71673642       0.00469506       0.00945732       0.00057580
Cl       7.67679634      14.37915853      13.45613171       0.00195193       0.00953591       0.00499135
C        7.45298940      13.28973113      12.06687934       0.00540565       0.00871100       0.00505980
Cl       0.74886226       0.51006520      12.94093687      -0.00839029      -0.00372159      -0.01029461
Cl       2.31028499       2.85496481      12.25523353      -0.00177646      -0.00680602      -0.00371814
Cl       0.65873742       2.85378794      14.63457731       0.00420558      -0.01126471      -0.00026906
Cl      -0.57175599       2.92471655      12.00902821      -0.00206986       0.00416103       0.00371249
C        0.79081614       2.28561122      12.95244372      -0.00214329      -0.00466110      -0.00286373
Cl       6.90770289       3.13702875      10.64027926       0.00436103      -0.00079834      -0.00037727
Cl       4.32497779       4.23939280       9.95920833       0.00277090      -0.00353697       0.00258338
Cl       4.79910719       1.38232630       9.70913548       0.00636417      -0.00221086      -0.00094470
Cl       6.05006097       3.23985241       7.86668871       0.00281264       0.00129633       0.00058609
C        5.52617948       2.98949052       9.54664856       0.00403918      -0.00123893       0.00040865
Cl      13.63600081      18.14626714       6.43557712       0.00704888       0.00071180      -0.00807676
Cl      15.41671691      16.55112396       8.06834570       0.00219768      -0.00182103      -0.00617521
Cl      13.09265387      15.32661252       6.83123425       0.00467393       0.00085992      -0.01224405
Cl      12.75077449      17.15795777       9.05625416       0.00074118      -0.00123048      -0.01265478
C       13.71019286      16.79762867       7.61255780       0.00458125      -0.00074018      -0.00966242
Cl      10.56741816       3.38924378      10.89187872       0.00298560      -0.00631770      -0.00483394
Cl       9.59333179       2.69850568       8.26547901       0.00504291      -0.00326446      -0.00621510
Cl      10.06308333       0.60532563      10.24644017       0.00859261      -0.00516188      -0.01122177
Cl      12.28569626       1.96117029       9.01605171       0.00662136       0.00238253      -0.00769499
C       10.61435128       2.14526542       9.59922637       0.00669625      -0.00262430      -0.00763251
Cl       1.78474539      13.66073781       6.68355315       0.02724671       0.00128797       0.03355217
Cl      -0.04005226      12.53724101       8.61094343      -0.00643629      -0.01065850       0.02093855
Cl      -0.33628356      15.30137709       7.79413381       0.01692057       0.01494247       0.01579621
Cl       1.90576916      14.49737858       9.46925896      -0.00503230      -0.00719146       0.01081645
C        0.83814102      14.00308579       8.13595919      -0.01592728      -0.01157393       0.00090873
Cl      -0.46748902       1.50437686      18.73816204      -0.01053751      -0.00561786      -0.00572354
Cl       1.95937457       2.87355905      17.88237168      -0.00904834      -0.00593901      -0.00302584
Cl       1.52529234       0.04647096      17.25077785      -0.00585498      -0.00719273       0.00250125
Cl       2.06674352       0.83751930      19.96162651      -0.01416285      -0.00048131       0.00148389
C        1.31103633       1.38010627      18.44788504      -0.01033610      -0.00512844      -0.00286201
Cl      14.00035030      11.87033987       5.53259867       0.00314641      -0.00274538      -0.00437790
Cl      15.65463265      12.76917197       7.73093699      -0.00255888      -0.00210661      -0.00013530
Cl      16.62784684      12.98113797       5.01055282       0.00468874      -0.00188413       0.00513837
Cl      16.37485902      10.37907244       6.27999538       0.00109689      -0.00223273       0.00284564
C       15.65758636      12.00969221       6.14731928       0.00170352      -0.00240332       0.00077771
Cl       6.29264784       9.96369409       9.81286302       0.00149745       0.00539994       0.00293040
Cl       3.41863307      10.21814121       9.53374600       0.00223684       0.00939050       0.00107819
Cl       5.01279882       9.22623784       7.32372241       0.00136612       0.00349835       0.00389165
Cl       5.17623751      12.01395679       8.08489948       0.00536364       0.00445205      -0.00006801
C        4.97340112      10.35860993       8.69100246       0.00281946       0.00548688       0.00161511
Cl       9.14639263       7.65018532       2.86455681       0.00078750       0.00202085      -0.00158156
Cl       6.82744658       5.91773834       3.01461051       0.00576109      -0.00412482      -0.00368798
Cl       7.72603304       6.92066188       0.44386429       0.00023172       0.00475085      -0.00167531
Cl       6.49685084       8.72477632       2.35434290      -0.00229633      -0.00364372       0.00404930
C        7.55188314       7.29826837       2.17045279       0.00108969      -0.00018471      -0.00075563
Cl      16.98697561      17.08279726      13.95508113      -0.01177377      -0.00322947      -0.00050062
Cl      17.66843605      16.68230581      11.16798135       0.00463450       0.01480883       0.00188541
Cl      16.72819196      19.27446021      12.06043516      -0.02245703       0.00193775       0.00787156
Cl      14.89218607      17.05780664      11.94139828      -0.00115514      -0.01387121      -0.01035130
C       16.55597009      17.52533007      12.26970929      -0.00762185      -0.00050794       0.00021076
Cl       6.77573448      13.83197203       5.36669994      -0.01039350      -0.01204640      -0.02581918
Cl       4.56850563      15.72289129       5.73256523       0.00149143      -0.00722814      -0.00981438
Cl       4.41689915      13.65641359       3.70119065      -0.01108491       0.00903916      -0.02769375
Cl       6.25712525      15.84284899       3.33296185      -0.00235413       0.00353295      -0.01235789
C        5.50384089      14.77179549       4.55674743      -0.00669627      -0.00193208      -0.01974529
