196
Lattice="13.48350559761238 0.0 0.0 0.0 13.48350559761238 0.0 0.0 0.0 13.48350559761238" Properties=species:S:1:pos:R:3:forces:R:3 energy=-1140268.25 stress="-0.0027319369837641716 0.0009449613571632653 -5.106498247187119e-05 0.0009449613571632653 -0.0020273148547858 0.00019464067736407742 -5.106498247187119e-05 0.00019464067736407742 -0.0009217587066814303" pbc="T T T"
Cf      14.56938909      10.95247619      -0.80859881      -0.01094645      -0.00352114      -0.02832919
O        4.15754113      12.26836026       1.36818233       0.00483596       0.00463611      -0.04924974
O        3.29870644      10.92608375      -0.17171305      -0.01763919      -0.00301975      -0.02925262
O        2.06014421      12.59500295       0.58965857      -0.01555356      -0.01692849       0.00548001
C        3.14350153      11.94713779       0.57074023      -0.01106602      -0.00613541      -0.02311781
H        3.94555566      13.05734592       1.89133674       0.00523388       0.00245559      -0.04660308
O       13.29076649      12.17348177      11.68086498      -0.00828452       0.01082647      -0.01295874
O       10.30967987      12.85443974      10.43230941       0.01262957       0.01928028       0.01488139
O       12.00109928      13.83280456       9.18027253      -0.04754474      -0.03444111       0.05225693
C       11.14987498      13.37228258       9.81744216       0.01629926       0.00600111       0.00732518
H       13.25487009      11.86160500      10.75861952      -0.01152087       0.00501372      -0.01048233
O        7.20252338      13.36477225       8.07739843      -0.03049302      -0.00306821      -0.01819789
O        7.65538075      11.84129048       6.51803465      -0.00212598      -0.02838612       0.01716685
O        5.72746253      11.72909266       7.63670424      -0.02585578      -0.00790286      -0.02189797
C        6.82624345      12.24809253       7.34234656      -0.01919530      -0.01388419      -0.00668883
H        6.42473888      13.58073203       8.60514393      -0.04098739       0.00911215      -0.03955950
O        7.82926561       3.75936501       8.40884149      -0.01028324      -0.00473075      -0.00424898
O        7.22650221       4.88212881       6.58584549      -0.01376939      -0.01604170      -0.00987369
O        8.95028364       3.43351479       6.47290177      -0.00843215      -0.01014400      -0.00175965
C        6.62102506       4.42968006       8.77458323      -0.01277726      -0.00728402      -0.00815189
C        6.37926711       5.39153933       7.61704604      -0.01415686      -0.01237202      -0.01174608
C        8.09601009       3.96959575       7.09409819      -0.01060879      -0.01032710      -0.00519162
H        6.77599381       4.93988891       9.72010151      -0.01561259      -0.00345677      -0.00997674
H        5.82772145       3.68393785       8.85434400      -0.01043648      -0.00941926      -0.00632236
H        5.35348666       5.38215457       7.25400662      -0.01367974      -0.01490578      -0.01203071
H        6.69397190       6.40686787       7.85733106      -0.01467308      -0.01138014      -0.01550944
O        2.13024327       5.87116856      10.65756522      -0.00997431      -0.01530346       0.02500999
O        4.23619714       5.17730160      10.81927573      -0.00372154      -0.00233215      -0.01261397
O        3.78238067       7.38485214      10.72405944      -0.02046600      -0.00440806       0.01061184
C        2.01499125       4.44123899      10.79270571       0.00084949      -0.01773730       0.00582033
C        3.46598261       3.96283010      10.73545123       0.00335470      -0.00703835      -0.01138617
C        3.42253534       6.24699109      10.73403675      -0.01193252      -0.00745088       0.00804791
H        1.39604309       4.07012240       9.98186516      -0.00237232      -0.00990157       0.00487205
H        1.52295694       4.23546559      11.74336908       0.00896867      -0.03433990       0.00593716
H        3.74666916       3.32448930      11.57174666       0.01592050      -0.01016556      -0.01830089
H        3.70170327       3.46579870       9.79567227      -0.00377639       0.00054719      -0.01651505
O        2.05542711       4.31314557       4.96347175      -0.00116903      -0.00147642      -0.00564179
O        2.16036013       2.78099379       6.57064578       0.00776881       0.01954159       0.01328841
O        4.06068849       3.72726476       5.82324571       0.00170672       0.02311551       0.00344057
C        0.69573225       4.14963056       5.44704119      -0.00106704      -0.00886142      -0.00820409
C        0.76917127       2.81528392       6.15173355       0.00918904       0.00094092       0.00789915
C        2.86970469       3.60977091       5.79006533       0.00240242       0.01441873       0.00403910
H        0.00625173       4.18530963       4.60881099       0.00181016      -0.02517013      -0.01088592
H        0.47186999       4.96992035       6.12904180      -0.01225339      -0.00315017      -0.01953200
H        0.13119408       2.73262250       7.02571172       0.00652793       0.00549674       0.00586450
H        0.59996613       1.97690520       5.47682302       0.02039105      -0.00867096       0.01770160
O       12.43055953      11.37632751       7.35604403       0.00982574       0.00357519      -0.03341669
O       10.26898496      11.55173825       7.83057686       0.02613835       0.02748883       0.02394015
O       11.62444656      10.45003722       9.24045347       0.05668344       0.03807020       0.00265718
C       11.92547039      12.33137257       6.39455719      -0.00683463       0.01182657      -0.01722293
C       10.41277701      12.28956140       6.59354704      -0.00183249       0.00341286       0.00688832
C       11.45200047      11.07645387       8.22849215       0.03316713       0.02470058      -0.00267792
H       12.24354585      12.00820411       5.40518747      -0.01968771       0.02228993      -0.02457681
H       12.37063003      13.29376176       6.62970478      -0.00681210       0.01002312      -0.01123711
H        9.95445039      13.26507885       6.72699010      -0.00948057       0.00099766      -0.00527656
H        9.85877652      11.75956570       5.82310057      -0.00994858      -0.01890016       0.02900055
O        7.97922914      10.60472045       3.72894417      -0.00712493       0.00284633      -0.00447831
O        6.51032269       9.57736629       2.41401346       0.01929484       0.00189101      -0.03257987
O        5.86150308      10.22818511       4.45950304      -0.01425326      -0.01257779      -0.03906584
C        8.60586002      10.50816514       2.44312591       0.01436627       0.01334527       0.00653262
C        7.75506050       9.47659461       1.71595682       0.02956111       0.01631239      -0.01518002
C        6.70639927      10.15437932       3.62650970      -0.00206208      -0.00415192      -0.02711284
H        9.64029883      10.19977111       2.58488693       0.01216081       0.01424120       0.02331821
H        8.56781076      11.48933202       1.96568492       0.02168927       0.01720047       0.01414792
H        7.58249279       9.70676170       0.66799428       0.04381765       0.02635822      -0.01466647
H        8.12642409       8.45836156       1.84323983       0.03357767       0.01765797      -0.02023933
O        3.73366820       3.43378385       0.84447438      -0.00665227      -0.01012936      -0.00823900
O        4.00886775       5.61813642       0.50929072      -0.01387152      -0.00744465       0.00710182
O        5.74287135       4.21309503       0.19932744      -0.01267505      -0.00050277      -0.01349118
C        2.44654368       3.99487495       1.15155575      -0.00282550      -0.01459983       0.01541571
C        2.65305682       5.50147909       0.96428254      -0.01253790      -0.01405042       0.00985622
C        4.60492925       4.40451540       0.49490245      -0.01165563      -0.00551763      -0.00552323
H        2.19158552       3.73679880       2.17665736       0.01871966      -0.01440392       0.02041906
H        1.71170634       3.57381504       0.46723303      -0.01392722      -0.01918507       0.03092450
H        1.99703878       5.93858934       0.20977192      -0.01555198      -0.02007483       0.00937206
H        2.56383016       6.04211553       1.90480671      -0.01357049      -0.01154591       0.00817659
O        1.19472888      13.12883832       5.47581666       0.01329190      -0.01040186      -0.00518191
O        2.80685917      12.15243920       6.65733979      -0.00575331      -0.02727166       0.00572615
O        1.22731938      13.35745130       7.72307852      -0.01171428      -0.02847815      -0.00353920
C        1.89480741      12.26799967       4.55932840       0.01952609      -0.00678338      -0.00366876
C        3.21686041      12.06417795       5.27146732       0.00892466      -0.02413670       0.01002604
C        1.71462026      12.92368459       6.72573578      -0.00309020      -0.02270621      -0.00077540
H        1.96040407      12.77782692       3.59924526       0.03688983       0.00020787       0.00170568
H        1.32026959      11.34220655       4.44668961       0.01456711      -0.00129795      -0.01863392
H        3.70149243      11.10615421       5.10985516      -0.00224608      -0.02946770       0.00998287
H        3.92983817      12.86863279       5.09139218       0.02067837      -0.03255373       0.02099085
O        9.69032995       6.85267447       6.02054542      -0.00651738      -0.00966978      -0.00396975
O       11.74895730       7.69312845       5.88425658      -0.01344163       0.01066563       0.02313906
O       11.45864619       5.47723998       5.67691544       0.00732294       0.01138461      -0.01218688
C        9.51295636       8.28025870       5.89976858      -0.02012193      -0.01024859       0.01767211
C       10.90323769       8.81009855       6.19434522      -0.02561578       0.00075057       0.02533920
C       10.98591584       6.55357852       5.84952270      -0.00311831       0.00442708       0.00089455
H        8.76771701       8.61724815       6.61439508      -0.02242544      -0.02836683       0.02314460
H        9.18312421       8.49226592       4.88336753      -0.02346861       0.00209646       0.02177346
H       11.20093707       9.65182327       5.57096973      -0.03205747       0.00571322       0.02960199
H       11.03782512       9.04894058       7.24556441      -0.03236321       0.00057014       0.02634877
O       13.05438386       4.93763315       8.89882518      -0.00886267      -0.01206484       0.01037382
O       10.87221891       5.28949472       8.63388366      -0.00511050      -0.00750324      -0.01132946
O       11.76864031       3.32332414       7.99502761      -0.00097790      -0.00500357      -0.01161778
C       12.77946669       6.11247414       9.67887690      -0.01484025      -0.01541919       0.01280233
C       11.36476145       6.47922618       9.26463520      -0.01079917      -0.01248224       0.00152732
C       11.87034190       4.41017311       8.46910063      -0.00441936      -0.00870794      -0.00492117
H       13.50983594       6.87510362       9.43634798      -0.01228487      -0.01495057       0.02270912
H       12.83893177       5.85267357      10.73487992      -0.02481527      -0.02061360       0.01173198
H       10.72429076       6.70625737      10.10641996      -0.01934481      -0.01815434      -0.00362372
H       11.33159067       7.30050438       8.54889088      -0.00297669      -0.00804156       0.00649166
O        8.02622824       6.73226621       3.58782670       0.00162382       0.01546532      -0.01314912
O        7.35173423       4.61232824       3.62533227       0.02223656       0.00933576      -0.02395648
O        9.50200001       5.09417190       3.11745168       0.01792979       0.03231895      -0.01812485
C        6.73949398       6.75406934       4.24632454       0.00148325      -0.00123000      -0.01283753
C        6.16623760       5.40214064       3.87499202       0.01401505      -0.00282937      -0.02415334
C        8.39899150       5.42684160       3.42350684       0.01424086       0.02039686      -0.01853667
H        6.16178167       7.58570992       3.86622074      -0.00500509      -0.00289801      -0.00562319
H        6.90961088       6.85966913       5.31598076       0.00065690      -0.00990508      -0.01201785
H        5.58356135       4.92614931       4.65737697       0.01526007      -0.01210007      -0.02906799
H        5.58950779       5.45192170       2.94996565       0.01811734      -0.00172855      -0.02644461
O        2.70939398       9.57989080       8.78341856       0.02306259       0.03343536       0.03220524
O        0.63292789       8.88069176       8.51191992       0.03836638      -0.01560587       0.05353202
O        1.23486420       9.83426649      10.44956416       0.02881291       0.00568709       0.03941458
C        2.72983272       8.94278440       7.48039327       0.02667797       0.02131525       0.03755224
C        1.26882877       8.55318339       7.25088508       0.02668417       0.02486473       0.03843457
C        1.51448472       9.46002256       9.32074674       0.03142313       0.00760415       0.03897318
H        3.39241039       8.08303598       7.53427512       0.02325159       0.01938701       0.04996396
H        3.11773260       9.66465352       6.77095093       0.03079227       0.01642814       0.03593004
H        0.77425058       9.12331849       6.46639648       0.01642762       0.05222240       0.06637388
H        1.12243001       7.49008589       7.07115654       0.02531773       0.03163165       0.00741162
O        7.45228062       0.87714225       4.22386485      -0.00691861       0.03532295      -0.00356025
O        5.49537351       0.93581597       3.16066628       0.00541961      -0.00364888      -0.02605009
O        5.54290852       0.66009611       5.39621520      -0.01601988       0.01338340      -0.02429819
C        7.79325796       1.24465495       2.87529838       0.00588500       0.01798862      -0.00434738
C        6.47759513       1.08915539       2.11281157       0.01269731       0.01205147      -0.01603317
C        6.12580850       0.81234105       4.36832877      -0.00698954       0.01502636      -0.01886624
H        8.56637426       0.56549192       2.51959069       0.00766724       0.01158503       0.01235011
H        8.16957374       2.26579071       2.88724330       0.00885287       0.01665646      -0.01345802
H        6.21649453       1.96754275       1.52563290       0.00999607       0.01442188      -0.01107460
H        6.45150636       0.20345962       1.47980354       0.02463983       0.01715291      -0.02331278
O        9.37403872      13.33405215      13.44953325      -0.00468475      -0.00610387       0.00830955
O        9.04813420      11.27757064      12.66984528       0.00239411      -0.00091754      -0.00792379
O        7.29243135      12.64801575      12.95545271       0.00014925      -0.00427434      -0.01336988
C       10.70650147      12.79471795      13.33484687      -0.00478971      -0.00800127       0.02246927
C       10.47349280      11.35245817      12.87236474      -0.00114903      -0.00399703       0.00932710
C        8.46948344      12.44210134      13.00969736      -0.00077683      -0.00345303      -0.00568786
H       11.18596457      12.85643751      14.30996077      -0.01814984      -0.01564194       0.02915543
H       11.25724812      13.38744154      12.61397647       0.00727046      -0.00489640       0.03431568
H       10.96041625      11.12070116      11.93112466       0.01135424       0.00206620       0.01463354
H       10.73645423      10.61973989      13.62806661      -0.01167314      -0.01018238       0.00689647
O       13.06444472       9.13416257       2.97823107       0.01465696       0.01113829      -0.05523962
O       11.75196953       8.82335075       1.22879286       0.01734138      -0.06344587      -0.04266775
O       13.04755822      10.65655059       1.31663210      -0.02046393      -0.03802583      -0.08952864
C       12.73565384       7.70884776       2.97467239       0.00782442       0.01874202       0.00900891
C       11.49676823       7.68903592       2.12496853       0.00822359      -0.01547939       0.01031865
C       12.64459834       9.61789552       1.81201214       0.00427263      -0.03597654      -0.06680174
H       12.61767611       7.37003921       3.99367513       0.00587603       0.08197515       0.02649724
H       13.56082599       7.18737413       2.48572415       0.00668409      -0.00832051       0.03816089
H       11.41189517       6.79976682       1.51966797      -0.00280437      -0.04442468       0.05715661
H       10.57460362       7.87851874       2.67552787       0.00958163       0.02594142      -0.00346859
O        9.15152391       5.42668408      13.65306897       0.01012957      -0.00458592      -0.00727305
O       10.74018033       6.68987723      12.73878273      -0.00183976       0.00873578      -0.00723642
O       11.32093745       4.84544132      13.89379554       0.01413202       0.01075280      -0.01333320
C        8.44950848       6.43250419      12.89485506       0.00019735      -0.00576842       0.00095780
C        9.53597529       7.46609105      12.64768629      -0.00694832       0.00043648      -0.00408034
C       10.46914676       5.55568786      13.45331740       0.00855231       0.00631464      -0.00979459
H        7.61625187       6.79032745      13.49473962       0.00280219      -0.01246877       0.00845435
H        8.08940364       5.98503693      11.97329199      -0.00428675      -0.00443149       0.00235319
H        9.49734457       7.93013822      11.66606825      -0.01325137      -0.00188430      -0.00474557
H        9.57022428       8.24122451      13.41677421      -0.00980253       0.00251338      -0.00655153
O        4.14274900       7.81734164       2.84019989       0.00523175      -0.00130707      -0.00197196
O        2.15309187       8.58274668       3.45904517       0.01706688       0.01672303       0.01346391
O        3.36358351       7.35428262       4.90746402       0.02500441       0.01964298       0.00972050
C        3.77836684       8.77393488       1.82165990       0.00218421      -0.00602767      -0.00478616
C        2.29919958       8.98228793       2.08638197       0.00790274       0.00889917       0.01014748
C        3.24671992       7.87069739       3.83874118       0.01640090       0.01236725       0.00734127
H        4.01528508       8.34917431       0.85108666      -0.01617003      -0.01670161      -0.00419089
H        4.35015030       9.68012274       1.98259637       0.01301944      -0.01028717      -0.02067079
H        1.97369327      10.01625131       2.00927865       0.01618258       0.01124510       0.00851310
H        1.66268400       8.34703028       1.45787406      -0.00202517       0.01001263       0.02015287
O        9.92758632       2.00289871      10.72855785      -0.02075532       0.00591928      -0.00497945
O        8.79962237       3.79243079      11.38061318      -0.01229665       0.00833867      -0.00084864
O       11.03140238       3.92920910      11.10702265      -0.01404369       0.00194281      -0.01087939
C        8.52948258       1.65349560      10.58098550      -0.02161015       0.00564504       0.01072732
C        7.86423074       2.69986828      11.44641140      -0.01284519       0.01025423       0.01220769
C       10.01519400       3.30234171      11.06570780      -0.01521587       0.00445873      -0.00641830
H        8.38492999       0.63909659      10.93101434      -0.01881274       0.00790146       0.01814580
H        8.27867357       1.73168097       9.52561573      -0.03284810       0.00036246       0.01330370
H        6.90369617       3.04624309      11.07768470      -0.01592588       0.01035939       0.02101082
H        7.76599755       2.38993743      12.48717597      -0.00273922       0.01554908       0.01459807
O        6.73592185       7.90682099      10.44805017      -0.00820717       0.00948623      -0.00329114
O        8.26996817       8.87395005       9.16486731      -0.00166380       0.00177276      -0.00075878
O        8.44337936       6.68810029       9.65121062      -0.01865345      -0.00082171      -0.00903253
C        6.20358600       9.22016267      10.13979288       0.00198340       0.01492088       0.00405557
C        7.42742415       9.95922861       9.63809631       0.00545046       0.00684869      -0.00055234
C        7.86633293       7.73579757       9.74263672      -0.01063171       0.00285256      -0.00462990
H        5.75875389       9.63145615      11.04069488       0.01159605       0.01573229       0.00822923
H        5.43888684       9.10603941       9.37284777      -0.00320691       0.02408168       0.00831363
H        7.20480824      10.60499167       8.79984883       0.01001757       0.00593060      -0.00202757
H        7.97069041      10.48679555      10.42159923       0.01013532       0.00514895      -0.00315073
