193
Lattice="13.995033346727443 0.0 0.0 0.0 13.995033346727443 0.0 0.0 0.0 13.995033346727443" Properties=species:S:1:pos:R:3:forces:R:3 energy=-1278848.375 stress="0.000229863595450297 -0.00044581749534700066 0.0005625938647426665 -0.00044581749534700066 1.774528755049687e-05 0.0003055293345823884 0.0005625938647426665 0.0003055293345823884 -0.0005086612072773278" pbc="T T T"
Cf      11.14899011      14.66783311      -1.58697253       0.00002843       0.00546026      -0.00417233
Cl       2.09393283      11.80308884       3.97099220       0.01117138       0.00193882      -0.00029230
O        2.19402897      12.69575919       2.77536461       0.00756046      -0.00019515      -0.00362682
O        3.25276647      10.86162852       3.91992725       0.01015389       0.00435781       0.00444627
O        0.85222456      10.99910399       3.84664607       0.01249528      -0.00138533       0.00043678
Cl      13.47096443      13.62976380      10.66145258       0.00355053       0.00099915      -0.00657231
O       11.77449719      13.95697750      13.94474563      -0.00621176       0.00745940      -0.00143194
O       12.06930764      12.92233723      10.91083985       0.00327408       0.00189334      -0.00619671
O       13.26906684      15.09705268      11.22125481       0.01031274      -0.00088108       0.00027394
Cl       6.51878240      13.17623866       8.50760058      -0.00393414      -0.00494266      -0.00071394
O        6.88979481      14.14450931       7.42269161       0.00557563      -0.00581455       0.00161052
O        5.99687637      13.98334558       9.65235293       0.00525808      -0.00300443       0.00206363
O        5.42653090      12.32366894       7.99470660      -0.01338935       0.00922275      -0.00212216
S        5.04923906       6.23076091      11.71316931       0.00687242      -0.00353682      -0.00013113
O        4.33803249       6.95691908      10.61072204       0.00371420      -0.01174498      -0.00339496
C        3.81337568       5.82168158      12.95786424       0.00817150      -0.00236341       0.00076318
C        5.96718636       7.46979886      12.63968978       0.00229089       0.00388265      -0.00460368
H        3.04176527       5.27594019      12.42200127       0.01173270      -0.00851056       0.00250204
H        3.43638964       6.71999784      13.44666030       0.00228726      -0.00121090      -0.00556706
H        4.26188275       5.13767810      13.67655179       0.01063434       0.00566287       0.00671171
H        6.53271311       7.00014117      13.44644880       0.00518911       0.00912029      -0.00335997
H        5.28702053       8.21915647      13.03776839      -0.00011316       0.00193295      -0.00606004
H        6.66566627       7.92031242      11.93684977      -0.00246788       0.00681010      -0.00726235
S        7.48581198       8.01806187       7.92377255       0.00297189       0.00347829      -0.00394148
O        6.56962963       7.32655098       6.95899997       0.00552475       0.00456476      -0.00613511
C        7.83339121       6.78604987       9.19463680       0.00200663       0.00236237      -0.00425565
C        6.47566550       9.11481363       8.92608306       0.00101310       0.00184226      -0.00318855
H        8.45773430       6.02263059       8.73020616      -0.00018260       0.00095066      -0.00504753
H        6.88387257       6.35937715       9.52040057       0.00141010       0.00530741      -0.00213758
H        8.36012201       7.25228499      10.02688000       0.00437915       0.00176690      -0.00555392
H        7.12705116       9.57823803       9.66825090       0.00044298       0.00199509      -0.00290167
H        5.66104103       8.54963387       9.38299362       0.00193731      -0.00027478      -0.00402709
H        6.09925671       9.89837353       8.26777098      -0.00127544       0.00104919      -0.00305215
S        3.95444755       2.94893877      10.03372026      -0.00405192      -0.00366059      -0.00471544
O        3.98431165       3.07500354      11.52750900      -0.00705208      -0.00008138      -0.00565004
C        2.72398615       4.13244441       9.44938044      -0.00250584      -0.00528088      -0.00643976
C        3.05305923       1.44662156       9.66122451      -0.00147289      -0.00441676      -0.00196445
H        3.08594948       5.12801350       9.70911752      -0.00358903      -0.00474791      -0.00781774
H        1.76779368       3.93423414       9.93473894      -0.00271715      -0.00191790      -0.00546288
H        2.63686293       4.04196345       8.36640605       0.00182628      -0.00559708      -0.00603830
H        2.81388450       1.42239187       8.59883902       0.01524242      -0.01169216      -0.00446147
H        2.14735604       1.42597814      10.26836719      -0.00921927      -0.00092693      -0.01393677
H        3.70208065       0.60391022       9.88610451      -0.00382453      -0.00254095       0.00971340
S        9.91926501      11.17562472       8.13138627      -0.00313302      -0.00336246       0.00008965
O        9.48239117      10.81214949       9.52111684      -0.00489929      -0.00612712      -0.00165796
C       11.70405477      10.91586723       8.12155656      -0.00389224      -0.00560915       0.00046586
C       10.03120511      12.97432702       8.03496341       0.00154853      -0.00384593       0.00596106
H       11.88545740       9.85159351       8.25990239      -0.00277715      -0.00608259      -0.00795229
H       12.12132813      11.49514307       8.94657192      -0.00329970      -0.00918935       0.00250225
H       12.11220266      11.22948424       7.16249097      -0.00485565      -0.00125784       0.00193331
H       10.60733005      13.22447266       7.14410048      -0.00321112      -0.00507532       0.00300466
H       10.52261204      13.33765764       8.93797591       0.00950970      -0.00779476       0.00330976
H        9.02947807      13.38540266       7.93107147       0.00308728       0.00142508       0.01321303
S        7.54398223      10.42525001       5.36541191       0.00060940      -0.00311697      -0.00206566
O        8.85052612      10.86712760       4.78137832       0.00748706      -0.00792634       0.00502062
C        6.93175865       9.08189383       4.33520377      -0.00242871       0.00384182      -0.00899893
C        6.31672367      11.65244231       4.91470612       0.00968748       0.00482619      -0.00338015
H        7.70031426       8.30943497       4.35865589      -0.00690481      -0.00023992      -0.00827957
H        6.75819357       9.43112390       3.31780213       0.00294128       0.00827631      -0.00830072
H        6.01888930       8.70342531       4.79218023      -0.00569796       0.00646030      -0.01295993
H        5.32211408      11.27668815       5.15377965       0.00774629       0.01070431      -0.00164714
H        6.39967315      11.85122923       3.84510797       0.00878134       0.00314679      -0.00366884
H        6.52321311      12.54011536       5.51130703       0.01615246       0.00439551      -0.00506210
S        7.58514826       5.39656964       1.88630639       0.00806312      -0.00696611      -0.00425124
O        8.11079567       6.54521067       1.08253964       0.00619930      -0.00364542      -0.00327802
C        7.26482015       4.07699977       0.71376554       0.00375977      -0.00361302      -0.00627339
C        5.86748695       5.79326440       2.28338964       0.01076633      -0.00672130       0.00576234
H        8.23596489       3.79194324       0.31080544       0.00281395      -0.01061826      -0.00273397
H        6.62430403       4.45081625      -0.08657820       0.00789420      -0.00138149      -0.00815208
H        6.81884836       3.22856599       1.23656759      -0.00160220      -0.00086099      -0.00717980
H        5.38224235       4.89985213       2.67687544       0.01073735      -0.00959428      -0.00098054
H        5.35799403       6.16197763       1.39448509       0.00673482       0.00365082       0.01262160
H        5.88814236       6.57907335       3.03615180       0.01579646      -0.01519991       0.01394957
S       10.81882237       7.49289053       5.92312634       0.00073379      -0.00008255      -0.00755358
O       10.17042147       6.98337505       4.67182569       0.00494611      -0.00923979      -0.00785792
C       11.99305414       8.75156123       5.40582577      -0.00074089       0.00180551      -0.00863975
C       12.00923326       6.25040287       6.44689065       0.00005734       0.00286937      -0.00478468
H       11.41061682       9.62553580       5.11620753      -0.00070834       0.00155127      -0.00898383
H       12.57361567       8.36610599       4.57008938       0.00013502       0.00309832      -0.00859028
H       12.67832047       8.97592721       6.21909725      -0.00096473       0.00047730      -0.00776510
H       12.62344489       6.65438806       7.25125538      -0.00680535       0.00185861       0.00048847
H       12.64554850       5.99431809       5.60032340       0.00666235       0.00780364      -0.00045300
H       11.42545107       5.38892278       6.76870481      -0.00017451       0.00011846      -0.01324348
S       13.12047547       8.00697560      10.35627886       0.00168231      -0.00372338       0.00544310
O       13.60344974       6.72257979      10.94716356       0.00196421       0.01410842      -0.01069850
C       13.57985365       9.30880358      11.51309442      -0.01181357       0.00113481       0.01049358
C       11.34358061       8.06392135      10.64496666      -0.00296879      -0.00281387      -0.00195765
H       14.66815884       9.34535263      11.51963998      -0.01189315       0.00428301       0.01229287
H       13.19968926       9.05093723      12.50125691      -0.01070743      -0.00785105       0.00842084
H       13.17388751      10.26467301      11.17635611      -0.01603253       0.00166494       0.01972440
H       10.93778779       9.04430507      10.38461943      -0.00868962      -0.00405464       0.00701603
H       11.16074152       7.81956820      11.69112674      -0.00413556      -0.01263166      -0.00473449
H       10.90449527       7.30443860       9.99982782       0.00136586       0.00200069      -0.00940900
S        8.78672587       3.86235822       5.39459042       0.00003719      -0.00151123      -0.00113773
O        9.52693001       4.08021465       6.68331012       0.00098622       0.00478214      -0.00247753
C        7.04583561       4.17615625       5.73287523      -0.00087428       0.00103533      -0.00376815
C        8.63071019       2.08388022       5.16496828      -0.00042893      -0.00271928       0.00566092
H        6.94963312       5.22846569       6.00328864       0.00100509       0.00295532      -0.01026023
H        6.71530790       3.53571772       6.55136841       0.00066354       0.00735547       0.00173405
H        6.48287853       3.94940296       4.82704310      -0.00007252      -0.00415127      -0.00333089
H        7.98956252       1.90911563       4.29830761      -0.00300556      -0.00324895       0.00760821
H        8.20807436       1.62076925       6.05762674      -0.00179884       0.00227566       0.00786713
H        9.63073126       1.69998128       4.97131008      -0.00080976      -0.00482134       0.00571721
S       12.94476761       5.53273871       2.73319604       0.02802598      -0.02490747      -0.02448487
O       13.93007456       4.97534153       1.76230050      -0.01846921       0.00141221       0.02267838
C       11.37931170       4.67275757       2.51104393       0.00341934      -0.00807095      -0.00083326
C       12.38580606       7.10200006       2.04298447       0.00112820      -0.01292592       0.00011358
H       11.54129148       3.63752186       2.80309435       0.00110377      -0.00670597       0.00281480
H       11.08455740       4.72484237       1.46226961       0.00693784      -0.01563660      -0.00216103
H       10.64292335       5.14613500       3.16246138       0.00108610      -0.00867695      -0.00798205
H       11.48676100       7.41498736       2.57654046       0.00468610      -0.00901134      -0.00085700
H       12.19081732       6.92499199       0.98456414      -0.00005223      -0.01151086       0.00019346
H       13.18560087       7.83180064       2.16601847       0.00131626      -0.01381928      -0.00414317
S        2.39037856      11.61501377       8.16645610      -0.00902748       0.00271952       0.00875068
O        2.25891058      12.48014389       9.37540608      -0.01377690      -0.00246239       0.00864577
C        0.99326489      12.05166946       7.11410856      -0.00568241       0.00364769       0.00414741
C        1.77249053       9.99452259       8.63807895      -0.00774661      -0.00033361       0.00116655
H        1.23277150      12.99803467       6.63287217      -0.00281328       0.00238106       0.00337679
H        0.12876787      12.17523901       7.76470327      -0.00717212       0.00556019       0.00181092
H        0.82214470      11.29197535       6.35082690      -0.00482646       0.00348686       0.00471263
H        1.64465355       9.35735089       7.76080066      -0.00279130       0.00181232      -0.00056535
H        0.81731626      10.13574057       9.14354001      -0.01022393      -0.00446423      -0.00262419
H        2.49914588       9.55555058       9.32110692      -0.00983365      -0.00009697       0.00359185
S        5.21035602       0.74485875       2.57639999       0.00263345       0.01605928       0.01800430
O        6.23016730       1.84557852       2.65021029      -0.00610960       0.02495360       0.01118825
C        3.90031319       1.32159462       1.48068737      -0.00086749      -0.00118285       0.01694298
C        4.28273896       0.84211226       4.10959748      -0.00733018       0.00559285       0.01657504
H        4.30243042       1.35627348       0.46907359       0.00051564      -0.00058355       0.01803611
H        3.59486429       2.32068616       1.79182809      -0.01776236      -0.00490637       0.01159048
H        3.07105339       0.61641936       1.54206213       0.00902057      -0.01235086       0.02050325
H        3.36662020       0.26509751       3.99292353       0.00203089      -0.00817220       0.00872616
H        4.08115123       1.89668599       4.29869002      -0.03044844       0.00061131       0.02125190
H        4.90696028       0.42865219       4.90032720      -0.01041366       0.01061799       0.02153747
S        8.50432513      12.97167667      13.55880691      -0.00247449       0.00026524       0.00625849
O        8.92567268      14.41649901      13.30748428      -0.00527741       0.00148404       0.01385151
C        9.45394166      12.03196123      12.35620147      -0.00862661       0.00235593      -0.00556248
C        6.92769990      12.79722861      12.71466285      -0.00656134       0.00547204       0.01307777
H       10.47950511      11.95036881      12.71257415      -0.00592580      -0.00356569      -0.01161495
H        9.40932056      12.54170478      11.39280207      -0.01965813      -0.00073302      -0.00752763
H        9.01060515      11.04794010      12.25146941      -0.01893919       0.00619252      -0.00145954
H        6.64075697      11.75079345      12.78975649      -0.00939871       0.00694697       0.01079098
H        7.02081009      13.11522168      11.67664703      -0.00600650       0.00098123       0.01159877
H        6.20529724      13.42100892      13.23636280      -0.00187515       0.00640316       0.01957546
S        8.82013513       9.53783214       1.25233273       0.00054365       0.00840759      -0.00065553
O        7.78478260      10.26650952       0.44214317      -0.00077975       0.00559390       0.00130153
C       10.00924310      10.74735838       1.85341717       0.00300169       0.00712168       0.00240926
C        9.90597727       8.75196737       0.04588480      -0.00088111       0.00252968       0.00039542
H        9.47556345      11.38601691       2.55268659       0.00437252       0.00375129       0.00640617
H       10.45862876      11.31753054       1.04301249       0.00072799       0.01283694       0.00509463
H       10.77009942      10.19968313       2.41136710       0.00449715       0.00401696      -0.00338064
H       10.86684835       8.55085761       0.50992282      -0.00857466      -0.01641829       0.00688844
H       10.02544857       9.43674690      -0.79120377       0.01821847       0.00422412       0.00467248
H        9.43535764       7.81917841      -0.25334950      -0.01436970       0.01173939      -0.00509535
S       12.15072807       4.17442883      12.27512128      -0.00072646       0.00613618       0.00012593
O       11.42272794       2.95853566      12.83437599      -0.00533628       0.00527442      -0.00386572
C       12.23914764       3.94665947      10.49584291       0.00220678       0.01374680      -0.00219935
C       13.88063438       3.92771744      12.65543366       0.00000060       0.00644077      -0.00330907
H       11.22813330       4.02426804      10.10240707       0.00007375       0.01192565       0.00190294
H       12.65961473       2.96302289      10.29007585      -0.01014829       0.00645211       0.00468612
H       12.85948426       4.75436791      10.11514135       0.00626938       0.01081865      -0.00410789
H       14.42208642       4.75555324      12.19978655      -0.00095910       0.00986668       0.00191499
H       14.19024443       2.96127459      12.26033483      -0.00381030       0.00713542      -0.01099049
H       13.97254647       3.97462535      13.73972502      -0.00187157       0.00931764      -0.00288811
S        1.97384605       6.93286489       5.64841092       0.00267053      -0.00281119      -0.00405514
O        0.91976718       7.79573579       6.27091462      -0.00342190      -0.00553632      -0.00266021
C        3.54272753       7.44235090       6.36292361      -0.00224555       0.00838193      -0.00347030
C        2.26867959       7.56371047       3.99083881       0.00050185       0.00349572      -0.00217962
H        3.51909541       7.19900540       7.42355905      -0.00303793       0.01275924      -0.00270422
H        3.66918377       8.51590502       6.22004657      -0.00499021       0.00821444      -0.01035351
H        4.36286177       6.89758258       5.90094270       0.00036404       0.00649865       0.00194298
H        3.15081016       7.07812558       3.57569370       0.00194574       0.00371405      -0.00275463
H        2.39826237       8.64676378       4.02330628      -0.00062243       0.00435033       0.00108136
H        1.40995900       7.29290707       3.38066498       0.00134748       0.00178792      -0.00363998
S        8.70854857       2.70554917      10.81779737       0.00453600       0.00068510      -0.00249800
O        9.62552446       1.48881932      10.75240025       0.00601572       0.00138712      -0.00035290
C        7.19897488       2.22921706      11.65326528       0.00322074       0.00280678      -0.00180143
C        8.00673048       2.84963703       9.18167256       0.00604135      -0.00202565      -0.00466180
H        7.45690178       1.97003360      12.67465378       0.00585216      -0.00180001      -0.00247435
H        6.76175478       1.38302610      11.12241709       0.00172237       0.00593561      -0.00653683
H        6.52196098       3.08305212      11.62159383       0.00679065       0.00523984      -0.00065254
H        7.26486743       3.64845861       9.22196170       0.00040022      -0.00637830      -0.00601512
H        7.52788708       1.90696332       8.91227754       0.01515862      -0.00720698      -0.00338914
H        8.79443536       3.12020632       8.47915869       0.00738335      -0.00345521      -0.00403321
S        3.27001158       9.73030143       0.07029532       0.00105049      -0.00282514      -0.00122046
O        3.50114289       8.51256135       0.90910390      -0.00652775       0.00121081      -0.00931692
C        4.23703391      11.05941017       0.79320839       0.00759968      -0.00981182       0.00407034
C        1.63140192      10.35431638       0.48094403      -0.00049853      -0.00233835      -0.00037137
H        5.28603760      10.79485448       0.66268601       0.00690220      -0.01105140      -0.00593895
H        3.97750484      11.14741267       1.84851385      -0.00319763      -0.01108296       0.00320473
H        4.00893924      11.98257907       0.26036935       0.00189561      -0.01102353       0.00720140
H        1.41990797      11.22875616      -0.13602158       0.00773427       0.00547573       0.00998865
H        1.56284845      10.60688798       1.53810862       0.00394119      -0.01439130       0.00317433
H        0.94335549       9.55057743       0.22824457      -0.00304938      -0.00011992      -0.00470279
