195
Lattice="13.585510122394318 0.0 0.0 0.0 13.585510122394318 0.0 0.0 0.0 13.585510122394318" Properties=species:S:1:pos:R:3:forces:R:3 energy=-1261913.25 stress="-0.0004840135225094855 -0.0017106374725699425 -0.00032281332823913544 -0.0017106374725699425 -0.0013828903902322054 0.00012013686864520423 -0.00032281332823913544 0.00012013686864520423 0.00045677254092879593" pbc="T T T"
Cf      13.82636053      13.51951691       1.49626089       0.00834816      -0.00128606      -0.01449677
S       12.02067200      12.87001915       3.77788200       0.00003466      -0.00293551      -0.01766598
O       12.38890552      14.23718079       3.28812398       0.01237743      -0.00294822      -0.00535350
O       12.56798573      12.52753428       5.06075101       0.00029886      -0.01722084      -0.01363850
O       12.39546549      11.96254143       2.64831564      -0.00872337       0.00106230      -0.01943925
C       10.26708768      12.79162031       3.92777282       0.00035852       0.01347993      -0.01087910
H        9.80189634      13.03953535       2.97605486       0.00135366       0.02415824      -0.00827247
H       10.02653445      11.77199603       4.23059424      -0.01056625       0.01449713      -0.01555201
H        9.92878812      13.47893456       4.70478248       0.00909819       0.01203515      -0.00652754
S        3.51378390      13.18275231      11.80128988      -0.02503574       0.00501487       0.01601145
O        2.78018533      13.59418927      13.02727110      -0.01904094       0.00837767       0.01780331
O        3.05747265      13.86598121      10.60214993      -0.03932410       0.00176573       0.01365721
O        3.58027381      11.72797684      11.66878096      -0.02136201       0.00714290       0.01906386
C        5.20050583      13.70707216      12.07926949      -0.02576661       0.01342103      -0.00167896
H        5.56414881      13.22656076      12.98658893      -0.01663348       0.01776096      -0.00292097
H        5.79508174      13.38454407      11.22630983      -0.03161620       0.01152336      -0.00502928
H        5.24582149      14.78985043      12.17307372      -0.02757406       0.01377119      -0.00656661
S        2.60434299      13.42123922       3.30688425      -0.00399835      -0.01567235      -0.04343909
O        2.79205767      13.94586138       4.63354975       0.00446586      -0.00245787       0.02958763
O        2.12510304      14.46185409       2.32948387      -0.00837962       0.01453529       0.00643870
O        1.65896624      12.29742720       3.16726571      -0.00590689       0.00293609      -0.01605904
C        4.16776353      12.81336662       2.74446288      -0.00972837       0.00763220      -0.02178974
H        4.47985643      12.06599744       3.47321304      -0.01294227      -0.01548138      -0.04026270
H        4.03846320      12.38007528       1.75637568      -0.01401187       0.03166141      -0.03145358
H        4.88515852      13.62855023       2.71386926      -0.00219266      -0.00073591      -0.00284123
S        8.15687198       3.55322134       2.10345172       0.00951141      -0.00058356       0.00238538
O        8.45152457       2.94011517       0.76268880       0.01136291      -0.00145537       0.00325882
C        7.61623528       5.24066713       1.82231136       0.00932635      -0.00099611       0.00027744
C        9.75245695       3.97271773       2.83200636       0.00817341       0.00067846       0.00430234
H        6.60127726       5.21028785       1.42996127       0.01046503      -0.00160696      -0.00237771
H        8.28858674       5.74273539       1.12749601       0.01067857      -0.00056305       0.00181043
H        7.59499365       5.74356844       2.79173174       0.00625113      -0.00067971      -0.00002928
H        9.58143950       4.59710559       3.71001646       0.00603452       0.00001816       0.00437196
H       10.33776751       4.51054333       2.08410344       0.00869848       0.00178739       0.00564109
H       10.25133386       3.04419067       3.10552940       0.00861637       0.00111832       0.00474316
S       12.06245489       2.50889234       8.64556005       0.01187503      -0.00802958      -0.00128996
O       10.66709207       2.33353635       9.15500066       0.01200283      -0.00577754       0.00005430
C       12.29316820       1.37893758       7.25476871       0.00606582      -0.00406277      -0.00553650
C       13.14558146       1.61850531       9.78307348       0.01101124      -0.01348960      -0.00502557
H       11.49642455       1.58050641       6.54135936       0.00390694      -0.00017614      -0.00207058
H       12.23171921       0.35258676       7.60893507       0.00552353      -0.00540195      -0.00936161
H       13.26093773       1.56466731       6.78953766       0.00468577      -0.00372268      -0.00806441
H       14.14374959       1.51008918       9.36010162       0.01084487      -0.01362746      -0.00550946
H       12.68901932       0.64530999       9.97565964       0.00970550      -0.01322606      -0.00711386
H       13.20440082       2.19908597      10.70135280       0.01253545      -0.01633888      -0.00335519
S       10.97142653       1.42927237      13.78378698       0.00717610       0.00082293      -0.00507271
O       12.37339669       0.79051492      13.55872518       0.00747088       0.00299707      -0.01017433
C        9.82441209       0.18799263      13.19822752       0.00865623      -0.00151441      -0.00215772
C       10.77195718       2.57017879      12.42601365       0.00424255       0.00095463      -0.00405467
H        9.83845816      -0.62821414      13.91596562       0.01388047      -0.00170802      -0.00234002
H       10.15134424      -0.14649092      12.21199845       0.00695361      -0.00058984      -0.00295699
H        8.84115129       0.65670369      13.17685522       0.00700884      -0.00478806       0.00105692
H        9.77286913       2.98912389      12.53565353       0.00390890      -0.00019337      -0.00398201
H       10.88671631       2.05471442      11.47315576       0.00527756       0.00102076      -0.00400892
H       11.51291413       3.35560649      12.55256637       0.00355874       0.00163330      -0.00404764
S       10.42448938       7.08159519       5.44065418      -0.00026586      -0.00004363       0.00335366
O       10.20270438       8.56136054       5.50084047      -0.00010248      -0.00030363       0.00136475
C       10.27004836       6.44987558       7.11429921      -0.00275940       0.00108716       0.00373060
C       12.21549749       6.85755026       5.31729834       0.00000328      -0.00065734       0.00612786
H        9.20722912       6.45287241       7.34188435      -0.00298792       0.00385091       0.00255722
H       10.84239350       7.09524946       7.78245321      -0.00165099       0.00008196       0.00351614
H       10.64781214       5.42791097       7.14970023      -0.00541057       0.00013394       0.00525942
H       12.45421996       5.79401624       5.35135334       0.00044799      -0.00041957       0.00814724
H       12.71098290       7.39478306       6.12645721      -0.00134335       0.00059180       0.00619940
H       12.51403832       7.26154547       4.35257368       0.00150081      -0.00200441       0.00618522
S        2.54809005       7.93321112       3.58072675      -0.00293487       0.00721264       0.00083470
O        2.73359480       7.26781981       4.91105909      -0.00639767       0.00706649       0.00181282
C        1.24909106       9.16210085       3.84289824      -0.00453198       0.00644594      -0.00374316
C        1.60993499       6.82539004       2.51998945       0.00182807       0.00533211      -0.00104052
H        1.69757797      10.04164700       4.29826591      -0.00613515       0.00789377      -0.00513476
H        0.51243303       8.72978099       4.51699907      -0.00567682       0.00748073      -0.00443500
H        0.78648344       9.43847193       2.89661216      -0.00310120       0.00443926      -0.00513413
H        1.21476452       7.39496876       1.67804981       0.00133269       0.00361565      -0.00215857
H        0.80726834       6.37977378       3.11035677       0.00153233       0.00383913      -0.00259024
H        2.30670404       6.07042453       2.15973890       0.00376037       0.00662948       0.00044337
S        7.11631262      10.28438943       8.76102497       0.00064743       0.00294429       0.01329255
O        6.52345737      10.37270744       7.39221169       0.00707155       0.00915143       0.01093912
C        8.23131603       8.86172436       8.71482771      -0.00483790      -0.00101960       0.01495172
C        5.88536030       9.59544963       9.88028610      -0.00655383       0.00353172       0.00600708
H        8.89497075       9.02619332       7.86587677       0.00418762       0.00118668       0.02250768
H        7.66246204       7.94443817       8.56704487      -0.00735381       0.00225344       0.00330534
H        8.80706906       8.81983968       9.63680651      -0.01431872      -0.00953943       0.02075103
H        6.38142606       9.42726385      10.83780963      -0.01119870      -0.00042113       0.00769613
H        5.48534458       8.67068325       9.46730577      -0.00773602       0.00594081       0.00200388
H        5.08566714      10.32501518       9.99626935      -0.00497204       0.00536138       0.00422814
S        1.45393396       9.72305056      -0.63537103      -0.01472706      -0.01817232      -0.00750136
O        0.58543812       8.66643078      -0.01682841      -0.02466774      -0.01183009      -0.00923711
C        2.94605241       9.84725025       0.36715786      -0.02008563      -0.02221759      -0.00030702
C        0.71639054      11.27985745      -0.06712447      -0.01200548      -0.01383156      -0.01859048
H        3.51574091       8.93491609       0.20391171      -0.03011051      -0.03130308       0.01380815
H        2.67576314       9.94197533       1.41871047      -0.02413283      -0.00236343      -0.00320920
H        3.50214617      10.70544580      -0.00781955      -0.00938164      -0.03319357      -0.00934432
H        1.41306036      12.09573309      -0.30763528      -0.00593787      -0.01599379      -0.00791094
H        0.55131988      11.11877482       1.00662931      -0.03060698      -0.01130866      -0.02109092
H       -0.23299540      11.39938398      -0.59234615      -0.00322285      -0.00800897      -0.03232394
S        2.18320425       4.53933536      12.56943328      -0.00457466       0.00638396       0.00428641
O        3.06740581       4.77398535      13.75058902      -0.00502002       0.01325208       0.00333250
C        0.74544601       3.66516895      13.23280414       0.00484604      -0.00754672       0.00599536
C        2.85913724       3.15622361      11.65867115       0.00550675       0.01142812       0.00424480
H        0.22872571       4.35077376      13.90292127      -0.00314255      -0.01200629       0.00433841
H        1.10585409       2.78789082      13.77306239       0.01627231      -0.00210762       0.00741810
H        0.09154134       3.36561242      12.41670439       0.00857540      -0.01798064       0.00683928
H        2.17270617       2.87010220      10.86413099       0.00715987       0.00487698       0.00511096
H        2.98917656       2.32202928      12.34665515       0.01138174       0.01367842       0.00574797
H        3.80664804       3.47534066      11.22295124       0.00332516       0.01706587       0.00375840
S        3.24771046      10.99663216       6.90817356       0.00114496       0.00141335       0.00010300
O        3.31974387       9.92164109       7.94204827       0.00856370      -0.00000060      -0.00135648
C        4.03661706      12.47049153       7.57398343      -0.00300968       0.00203794       0.00306392
C        1.56434287      11.63589051       6.95385549      -0.00140697      -0.00442660       0.00468633
H        5.10800916      12.28455119       7.54834900      -0.00281717       0.00337124       0.00449351
H        3.68200757      12.64332180       8.59145221      -0.00523339      -0.00009572       0.00247648
H        3.77698421      13.30643977       6.92500473      -0.00308029       0.00229709       0.00340798
H        1.47086054      12.46289104       6.25164838      -0.00538830      -0.00463593       0.00478992
H        1.33763134      11.94612792       7.97476506      -0.00106042      -0.00490088       0.00497955
H        0.90472714      10.82757933       6.64600098       0.00038911      -0.00610282       0.00538976
S       11.33229886       7.37565316      10.58525319       0.00287545      -0.00126505      -0.00166667
O       12.17930435       7.97579629       9.50683177       0.00833929      -0.00810659      -0.00126636
C       10.87752299       8.69270427      11.72287992       0.01479200       0.00206041      -0.00127870
C       12.44682985       6.51842826      11.71366205      -0.00485241      -0.01230292      -0.00269032
H       10.34700781       9.44267579      11.13765570       0.02166154       0.00685120      -0.00134251
H       11.77975519       9.11924732      12.16363793       0.01892325      -0.00709078      -0.00076412
H       10.20436347       8.27945987      12.47796141       0.01161051       0.00747271      -0.00126715
H       11.85785904       6.11207323      12.53704433      -0.00845397      -0.00707248      -0.00275501
H       13.19718453       7.21436391      12.09194579       0.00125514      -0.01920554      -0.00229313
H       12.90799617       5.70973669      11.14950907      -0.01285330      -0.01628936      -0.00365940
S        8.78866895       8.74568589       1.57333660       0.00831511      -0.00316834      -0.00352252
O        8.47177610       8.05203523       0.28440634       0.01683749      -0.00447410      -0.00511754
C        9.28340445      10.42718379       1.13956323       0.00147580      -0.00113672      -0.00160879
C       10.42853028       8.19635724       2.08449036       0.00873494       0.00453451       0.00291727
H        8.37889692      10.99762786       0.93800253      -0.00016226      -0.00636264      -0.00895126
H        9.91192635      10.37248162       0.25083412       0.00770293       0.00140654       0.00255500
H        9.83794661      10.86163695       1.96869341      -0.00674058       0.00302918       0.00176850
H       10.69525567       8.72957538       2.99805505       0.00296748       0.00601581       0.00376180
H       11.14815477       8.37340891       1.28482176       0.01121874       0.00690353       0.00561303
H       10.33892712       7.13207817       2.29870059       0.01231094       0.00434075       0.00339881
S        6.21049655       5.47246508      10.59758879       0.01113659      -0.01212311       0.00078666
O        5.94493447       4.01615020      10.77031758       0.00974819      -0.01198864       0.00379324
C        7.71102470       5.81415900      11.53644391       0.00979429      -0.01169708       0.00258130
C        5.07519778       6.36478758      11.68069890       0.00958431      -0.01135632      -0.00190502
H        8.54050585       5.38028073      10.98099775       0.01131702      -0.00848158       0.00232432
H        7.61896547       5.33640368      12.51048434       0.00907647      -0.01568647       0.00057897
H        7.85262692       6.88791625      11.65226055       0.00805743      -0.01186627       0.00684092
H        5.41206541       7.39441139      11.78954049       0.00826774      -0.01099654      -0.00160370
H        5.02403453       5.86346490      12.64739251       0.00874671      -0.01103953      -0.00169967
H        4.10614702       6.33783237      11.18539423       0.01052262      -0.01253496      -0.00343959
S        7.79982333       2.06867945       5.57528958      -0.00585282       0.00288200       0.00823414
O        8.42042073       0.76503669       5.97792851      -0.00522083       0.00148988       0.00230426
C        8.75093580       3.35946128       6.38400459      -0.00231510       0.00017896       0.00848544
C        6.29793376       2.26959104       6.54539263      -0.00215894       0.00172483       0.01433116
H        9.73086754       3.35745835       5.90661344      -0.00403950       0.00107644       0.00500229
H        8.85907900       3.11629566       7.44190411       0.00147337      -0.00293547       0.00738239
H        8.26089322       4.32134292       6.21415737      -0.00231123       0.00094023       0.01316874
H        5.89395852       3.26309314       6.34973266      -0.00364905       0.00080165       0.01294119
H        6.52105594       2.13279241       7.60271649       0.00171870       0.00393180       0.01389745
H        5.59452051       1.51401075       6.20096610      -0.00232521       0.00057536       0.01769865
S        2.57285335       5.72183694       8.02625227       0.00180924       0.00615874       0.00357151
O        3.59181928       5.31493052       9.04390401      -0.00067246       0.00915587       0.00747025
C        1.69090560       7.12370113       8.71857567      -0.00097090       0.00733662      -0.00284040
C        1.23662416       4.52091110       8.17760649       0.00138998       0.00677830       0.00361070
H        2.32295377       8.00493240       8.60696028      -0.00100029       0.00733416      -0.00191158
H        1.49512757       6.90671624       9.76951944      -0.00607980       0.00948429      -0.00329213
H        0.75135176       7.27991811       8.19267444       0.00120030       0.00531050      -0.00716531
H        0.39984989       4.81433786       7.54537637       0.00284749       0.00573275       0.00120266
H        0.92588321       4.46747090       9.22150685      -0.00088608       0.00922681       0.00300600
H        1.63582450       3.56148445       7.85163025       0.00138173       0.00590836       0.00651097
S       10.58026298      11.51507159       9.22242946      -0.00356102      -0.00164890       0.00117826
O       11.33376303      12.47268066      10.10173614      -0.00112593      -0.00581551       0.00387716
C       11.74185943      10.85005786       8.02175638      -0.00450939      -0.00243022       0.00134355
C        9.59969774      12.49295029       8.07648495      -0.00043777       0.00246865       0.00264239
H       12.46214997      10.25578509       8.57977862      -0.00977024      -0.00852241       0.00201260
H       12.21859479      11.66426470       7.47793733       0.00184289      -0.00274628       0.00601713
H       11.20102216      10.20146127       7.32932568      -0.00504218       0.00292165      -0.00318173
H        9.09689889      11.83545770       7.36731878      -0.00324573       0.00405678       0.00313340
H       10.23501932      13.19980862       7.55121363       0.00157620       0.00029220       0.00226630
H        8.85783915      13.03645646       8.65517848       0.00204712       0.00468279       0.00360295
S        6.03083144       6.71494029       5.35683420      -0.00306416       0.00209534       0.01058161
O        7.45825686       6.26925220       5.57071625      -0.00375676       0.00309685       0.01639292
C        6.12080760       8.35525370       4.62488381      -0.00144505      -0.00350010      -0.00221647
C        5.39086222       7.24645594       6.93886678      -0.00535570       0.01646742       0.00446951
H        6.41331088       8.23951304       3.58423706       0.00043906      -0.01193304      -0.00035764
H        6.85101889       8.93918681       5.18582742       0.00109042      -0.00076365      -0.00896601
H        5.13375908       8.80911844       4.69072565      -0.00096934      -0.00217059      -0.00474008
H        4.36360306       7.56921145       6.77181470      -0.00635156       0.01159301       0.00101842
H        5.97851630       8.08831716       7.29429042      -0.00838652       0.02197599      -0.00325444
H        5.41837754       6.39515562       7.61727804      -0.00275718       0.02250880       0.01173553
S        4.47822415       4.29303762       3.61156873       0.01003468       0.00280309      -0.00173283
O        4.53321703       5.52286796       2.77003648       0.00999328       0.00450766       0.00225008
C        4.53850515       2.89491863       2.48797834       0.00731801       0.00507945      -0.00515902
C        2.76904045       4.03117257       4.13655848       0.00997359       0.00334172      -0.00139961
H        5.55118326       2.80667956       2.10170819       0.00628842       0.00617372      -0.00798040
H        3.82904481       3.06363140       1.67856053       0.00480703       0.00616029      -0.00239196
H        4.28208290       2.01584946       3.07011737       0.00993518       0.00298896      -0.00686463
H        2.72605575       3.10496554       4.71065010       0.00855020       0.00291621      -0.00242335
H        2.12629562       3.95777809       3.25909844       0.01009818       0.00510341      -0.00166136
H        2.50535293       4.89564117       4.74523704       0.01070037       0.00285888      -0.00033585
