192
Lattice="13.757769572107728 0.0 0.0 0.0 13.757769572107728 0.0 0.0 0.0 13.757769572107728" Properties=species:S:1:pos:R:3:forces:R:3 energy=-573782.1875 stress="-9.535887511447072e-05 -3.076853863603901e-05 0.00044778548181056976 -3.076853863603901e-05 -0.0006317816441878676 -0.00012749937013722956 0.00044778548181056976 -0.00012749937013722956 -0.0019488391699269414" pbc="T T T"
Cs      13.50238915      14.08278396       0.79967300      -0.02228122      -0.00455449      -0.01711845
Br      11.51849552      12.36658866      -1.42633716      -0.01871452      -0.01479404       0.00854223
S        2.26376526       3.34129949      13.05252700       0.00219741       0.00111818      -0.00619531
O        1.43921458       2.69200049      14.13194036      -0.00883985       0.00051045      -0.01142001
C        3.62362695       2.22358113      12.68745809       0.00842327       0.00297016       0.00107357
C        3.27352990       4.56669994      13.89287997       0.00443161       0.00208759      -0.00812486
H        3.18163553       1.30404072      12.31029415       0.01328567      -0.00037976       0.00287206
H        4.17289383       2.03656683      13.61049758       0.00404828       0.01000015       0.00499901
H        4.26171245       2.70703498      11.95156277       0.01390907       0.00021723       0.00274393
H        3.98937499       4.97295086      13.18428271      -0.00534438       0.00601757      -0.01683959
H        3.77719752       4.05643980      14.71168843       0.00805295       0.00489439      -0.00774111
H        2.61065689       5.34635658      14.26402829       0.00229235       0.00220592      -0.01188581
S        5.26064166       0.75919058       2.83402918       0.00408826       0.01061118       0.00086081
O        5.44085075       2.16836402       2.35263452       0.00183319       0.01010859      -0.00917554
C        6.29664745      -0.28377765       1.79212874      -0.00424647       0.00755861      -0.00298196
C        3.67431264       0.18888470       2.20915798       0.00006402       0.01609100       0.00876895
H        7.33203099      -0.04560125       2.02618049      -0.00289324      -0.00805683       0.00559814
H        6.08896570      -0.04565854       0.74875751      -0.00780340       0.00995035      -0.00350457
H        6.07470969      -1.32763563       2.01690531      -0.00825405       0.00991154       0.00339302
H        3.54888664      -0.85440534       2.50070896      -0.00651851       0.01886865       0.01470470
H        3.63188506       0.29737135       1.12630891      -0.00304440       0.00642170       0.00831896
H        2.91643505       0.82158554       2.66785318       0.00146189       0.02274778       0.00124494
S        9.01639346       5.67888988       2.16462409       0.00194240      -0.00025347      -0.00090033
O        7.64419704       6.25234047       2.37638955      -0.01159823       0.00146401       0.00605160
C        8.79661997       3.90868739       1.89400676      -0.01065812       0.00579810      -0.00780076
C        9.80048852       5.55422106       3.77557263      -0.00391404      -0.00602789      -0.00091898
H        8.34013987       3.77808364       0.91372325      -0.01114229       0.00819025      -0.00511879
H        8.14137599       3.51612243       2.67052653      -0.01127304      -0.00131954      -0.01161356
H        9.77320391       3.42630690       1.94043371      -0.01127119      -0.00009547      -0.01881742
H       10.77353813       5.07096275       3.67167141       0.00272793       0.00363445      -0.00678072
H        9.17653812       4.97562324       4.45605560       0.00525987      -0.02301350      -0.00640826
H        9.89700647       6.57375527       4.14505809      -0.01318919      -0.00954375       0.00591372
S        8.83882121       1.98035593      12.30668095      -0.00019348       0.00344181       0.01738662
O        7.80836777       3.03464129      12.05260510       0.00234461      -0.00346589       0.00994080
C       10.44803001       2.79412584      12.40947667      -0.00129306       0.00438708       0.00710946
C        9.19481448       1.17968557      10.73336184      -0.00019440      -0.01850779       0.02471596
H       10.51030451       3.32267937      13.35630342       0.00182950      -0.01358037       0.01549689
H       10.50953950       3.52496090      11.60435115      -0.00408210      -0.00304791      -0.00351250
H       11.21593726       2.02471772      12.32209140      -0.00079576       0.00455886       0.03680234
H        9.88645296       0.35659122      10.92762035      -0.00222754      -0.02090983       0.02391340
H        9.62466305       1.90705747      10.04435079       0.00173943      -0.02350461       0.02017830
H        8.25496421       0.80116666      10.33558949      -0.00368558      -0.01686958       0.03128329
S       11.13942798       6.98216270       8.54978208       0.01833439      -0.04275393      -0.01225322
O       10.20420942       8.14325284       8.51034083      -0.01204300       0.00006366      -0.01195224
C       12.79390404       7.68592320       8.42258478      -0.01089394      -0.00528908      -0.00673494
C       11.05723495       6.22512980       6.92452875       0.00085102      -0.00281310      -0.01383436
H       12.93802085       8.28207497       9.32237865       0.00193973      -0.02034235      -0.00582097
H       12.84927760       8.34699780       7.55762325      -0.00373229      -0.00195861       0.00300112
H       13.53139988       6.88393434       8.37821762      -0.00704521      -0.01400409      -0.01481322
H       11.79381939       5.42731953       6.83381021       0.01649596      -0.00227331      -0.00679673
H       11.19081002       7.00015725       6.17021274       0.00745136      -0.00789776      -0.00967199
H       10.06872492       5.77923592       6.83114588       0.01244715      -0.01291537      -0.01991628
S        3.96017755       9.53604428       2.53820884       0.01211822       0.00107038      -0.00135761
O        4.41436603      10.93596889       2.84879309       0.00955939      -0.00294971      -0.00793010
C        3.59815860       8.74588120       4.10686540       0.00818515      -0.00176555       0.00127518
C        5.44626302       8.62996145       2.10294778       0.01201034      -0.00839776       0.00737890
H        2.84206717       9.36347665       4.59256019       0.00809216       0.00262614      -0.00118446
H        4.50088095       8.69235591       4.71417832       0.01163644      -0.00678749      -0.00315855
H        3.21379025       7.74586374       3.90731296       0.00775436      -0.00200713       0.00219956
H        5.24015732       7.56162256       2.07932308       0.00374552      -0.00599881      -0.01169588
H        6.21503481       8.83362918       2.84720538       0.00349794      -0.02744271       0.02177976
H        5.77074263       8.96145919       1.11554059       0.02841498       0.00197290       0.01581855
S        7.99744035      11.74350389       9.67766344       0.00025332       0.01991224       0.01845002
O        7.24115891      12.17427627       8.44690108       0.00941515       0.02653509       0.02174962
C        8.06321138       9.95720866       9.68404910      -0.00266723       0.01731187       0.00676212
C        6.85379998      11.89645189      11.05575901      -0.00669974       0.00519741       0.01471829
H        8.72507171       9.64070853       8.88429338       0.00745001       0.02130536       0.01537140
H        7.05573992       9.55364492       9.56664390      -0.00253543       0.01919377      -0.00561677
H        8.50087967       9.64723288      10.63260988      -0.02457867       0.00014795       0.01040496
H        7.32687148      11.47064180      11.93949810      -0.01729747       0.00620616       0.01682715
H        5.95002448      11.33930272      10.80725830      -0.00573188       0.00336255       0.01563966
H        6.64283657      12.95565246      11.19254225      -0.00854247       0.00251155       0.03069671
S        2.56256957      11.77001437      -1.32792772      -0.01288608      -0.00140595      -0.00060290
O        2.16011666      13.10496824      -0.77356104      -0.03085554       0.00365877      -0.00271285
C        1.49473362      10.56649189      -0.53214519      -0.00428674      -0.01554143      -0.00146252
C        4.10945002      11.35039335      -0.51691073      -0.01119852       0.00280970       0.00118107
H        0.48283886      10.78434942      -0.87980753      -0.00500496      -0.01411038       0.00208341
H        1.56986726      10.68045643       0.54944028       0.00151618      -0.00824817      -0.00054440
H        1.79917990       9.56493681      -0.83514248      -0.00003192      -0.01624504      -0.00821094
H        4.45296829      10.36511584      -0.83121993      -0.01095506       0.00145337      -0.00530747
H        3.98858426      11.40809042       0.56451912      -0.01910213       0.00588520       0.00138000
H        4.83290327      12.09175804      -0.84923763      -0.01882288       0.00804666      -0.00121708
S        3.65720651       9.78959782       8.12703933       0.00116503      -0.00060147      -0.00732088
O        4.38083842       9.03794371       9.21262652       0.00426275      -0.00629628      -0.01094735
C        3.87579882      11.53981691       8.47075872       0.00560180      -0.00154066      -0.00170293
C        1.90639761       9.70188257       8.50783229       0.00166363       0.00024425      -0.00427780
H        4.93822660      11.76504527       8.36513477       0.00432789       0.00097470      -0.00610765
H        3.53011258      11.74527037       9.48459987       0.01169260      -0.00378794       0.00141440
H        3.28962282      12.09305343       7.74086982       0.00084244       0.00092211       0.00327072
H        1.34426868      10.32857561       7.81807821      -0.00010388      -0.00769624      -0.01044939
H        1.75371232      10.01392901       9.54214713       0.00053954       0.00936308      -0.00667083
H        1.61058396       8.66343965       8.37703178       0.00492554      -0.00171930       0.00713386
S       10.88541822       7.29511456      12.02346671      -0.00653166      -0.01424384      -0.00426447
O       10.17679671       6.01354715      12.31678920       0.00489855       0.00803697      -0.00876105
C       12.58132811       7.07258726      12.60894067      -0.00174004       0.00453579      -0.00037789
C       10.38185487       8.48985613      13.26756374      -0.00726120      -0.00040278      -0.01283938
H       13.06050339       6.35833515      11.94148426       0.00174756       0.00285916       0.00398047
H       12.54577810       6.67288607      13.62200252      -0.01005752       0.01019149       0.00453851
H       13.10713867       8.02630628      12.58210242      -0.00737935       0.00305086      -0.00273498
H       10.88932560       9.43885169      13.07661107      -0.01040675      -0.00274129      -0.01061302
H       10.61715529       8.09405136      14.25694108      -0.01523746      -0.00192443      -0.01075375
H        9.30400358       8.61732991      13.15547732      -0.00561436       0.00809671      -0.02127816
S       11.38700550      10.79529918       1.99021287       0.00240561      -0.00210321       0.00930589
O       12.05988165      12.05247538       2.47157659       0.00053060      -0.00196636       0.00995570
C        9.66523012      11.22351627       1.68090377       0.00285399      -0.00065877      -0.00454081
C       11.09184112       9.81216795       3.46612845       0.00173804      -0.00422296       0.00884879
H        9.66252657      11.85856460       0.79603503       0.00992706      -0.01012364      -0.01408161
H        9.27935539      11.74143083       2.55959066       0.00412467       0.01021469      -0.01023723
H        9.09907650      10.31175596       1.48940224       0.00546310      -0.00507510       0.00541585
H       10.54112085       8.90965675       3.20492939      -0.00052150      -0.00037579      -0.00072994
H       10.50935378      10.38742598       4.18229379       0.00630544      -0.00045107       0.01102935
H       12.06451276       9.55854426       3.88424652       0.00445202      -0.01299830      -0.00012583
S        6.35390438       7.75733502      11.84859146      -0.00082710      -0.00877988      -0.00022554
O        6.83845548       8.94830280      12.63759730       0.00068831      -0.00470102       0.00334895
C        4.57274641       7.69406110      12.08576363      -0.00035632      -0.00120307      -0.00091997
C        6.79740146       6.29039061      12.78004591      -0.00095583      -0.00909775      -0.00127673
H        4.15380146       8.48836749      11.46962220       0.00382891       0.00614478       0.00735272
H        4.35161893       7.83034885      13.14596993      -0.00118409      -0.00927829      -0.00015739
H        4.21206231       6.73196615      11.72354863      -0.00560488       0.00185283      -0.00748130
H        6.34311383       5.42267696      12.30188146      -0.00490941      -0.00911395       0.00104662
H        6.48218815       6.39959622      13.81815421       0.00396790      -0.00700165       0.00035588
H        7.88261270       6.19297087      12.72541240      -0.00123119      -0.01106378      -0.00702037
S        8.58097554       2.84125896       7.61584465       0.00856167       0.00782120      -0.00873899
O        8.76682466       3.74525875       6.43662771       0.00807653       0.00111949       0.01113689
C        7.21699550       1.72429537       7.22094006       0.00232351       0.00720564       0.00070304
C        7.72259834       3.83520694       8.84333980       0.01345050      -0.00243437       0.00827435
H        7.55040946       1.10039775       6.39417828       0.00441423       0.01434984      -0.00520186
H        6.34022396       2.30388687       6.93033964       0.00529562       0.01670654       0.00495570
H        7.00937574       1.07942419       8.07507583       0.01540035      -0.00293970      -0.00642955
H        7.44879130       3.25119557       9.72254475       0.01149654      -0.00387801       0.00409462
H        6.85002877       4.27976445       8.36561059       0.01405577       0.00090472       0.00817209
H        8.41419376       4.61700935       9.15618915       0.01367512      -0.00192110       0.00842445
S        4.27555085       4.71047506       9.37387206       0.00413454       0.00215747      -0.00667036
O        4.13122309       4.76024111      10.86490743       0.02498078       0.00571296      -0.01685679
C        2.95128284       5.71294812       8.69470951      -0.00513685       0.00012103       0.00743946
C        3.67979229       3.09108194       8.86372599      -0.00307426       0.00331110      -0.00026703
H        3.19872370       6.74339536       8.95253147       0.00010821       0.00226656       0.00304195
H        2.00823445       5.40531896       9.14899202       0.00045356      -0.00249761       0.01731607
H        2.94990782       5.57359458       7.61367881      -0.01617984       0.00220446       0.01019903
H        3.75300698       3.03383833       7.77851349      -0.01528929      -0.00001631       0.00189921
H        2.65858098       2.94607184       9.21798658       0.00230540       0.00434319       0.01647986
H        4.34463237       2.36544364       9.32953232       0.00138360       0.00465578      -0.00450616
S        0.28735894       3.73347387       4.64545848       0.04571688       0.00620222       0.00743352
O       -1.18229859       3.58549985       4.44605437      -0.01757693       0.01336226      -0.00130387
C        0.65419124       3.29807975       6.36192708      -0.00732663       0.00076544      -0.00191814
C        0.61648858       5.50257892       4.84512858       0.00587978      -0.00440592       0.00088823
H        0.38039104       2.25201054       6.48755225      -0.00182385      -0.00392419      -0.00214579
H        0.06107901       3.91971075       7.03384391      -0.00987025      -0.00018521      -0.00475214
H        1.72402990       3.43761728       6.51937291      -0.00959878       0.00680023      -0.00507793
H        1.63567657       5.63891228       5.20467060       0.00188132      -0.00855722       0.00534858
H       -0.10505147       5.90989420       5.55276251       0.00585601       0.00114681      -0.00565289
H        0.48619706       5.97067476       3.87161719       0.00968563       0.00593696       0.00233394
S       11.44983037      11.39929118       8.37646421       0.00079823      -0.00759879       0.00330305
O       12.78317357      10.98085393       7.82703298      -0.00249791      -0.00751138       0.02178425
C       10.31333105      11.41006335       6.97160567       0.00750861      -0.01123212      -0.00676101
C       11.53224311      13.18858357       8.58275914      -0.01092910      -0.00411701      -0.00046340
H       10.19319691      10.37313410       6.65704719      -0.00297263      -0.01382610       0.00157565
H       10.74252355      12.01147211       6.16910994       0.02233617      -0.01895213      -0.00614920
H        9.34777705      11.81539422       7.27928203       0.01390284       0.01207429      -0.01961564
H       10.53438010      13.56121374       8.80437748      -0.01232763      -0.00271020      -0.01422896
H       11.91520125      13.63852457       7.66638722       0.00409542      -0.01205259       0.00004095
H       12.18489090      13.37907010       9.43243454      -0.02149470      -0.00213390       0.00648439
S        7.39828060       8.21036120       5.47402538       0.00915718       0.00640011      -0.00410098
O        8.83783843       8.40095443       5.10389038       0.00386536       0.00996003       0.00177041
C        6.83134364       9.79522925       6.10727064      -0.00328358       0.00584036      -0.00480911
C        7.36013868       7.30936504       7.03596905       0.00654615       0.00611678      -0.00122988
H        6.75026902      10.47256091       5.25857295       0.00642800       0.00803737      -0.00410371
H        7.54499936      10.17782663       6.83346066      -0.00927982       0.00626096       0.00263621
H        5.85203060       9.67241320       6.56793561      -0.00877352       0.00213160      -0.01701910
H        6.35864238       7.36313014       7.46575583       0.00127348       0.00301076      -0.00548820
H        8.10730554       7.73869223       7.70382494       0.00166030       0.01112331      -0.00323816
H        7.61913792       6.27573382       6.80873805       0.00987263       0.00654019      -0.00246238
S        4.61272458       5.19611132       5.05267889      -0.00687027      -0.00050640      -0.00347686
O        3.86071467       4.20277061       5.90604351      -0.01753515      -0.00141788      -0.00255418
C        4.04706108       4.92478539       3.36966576      -0.00455999       0.00596400      -0.00500089
C        6.25371426       4.55958672       4.76767802      -0.01091170      -0.00925207       0.00319661
H        3.01206054       5.24698165       3.28322781      -0.00211480       0.01191369      -0.00875970
H        4.15106957       3.86057794       3.15424508      -0.01117384       0.00616062      -0.00633143
H        4.69054235       5.49450794       2.69924723       0.00293985       0.00295520      -0.00205265
H        6.75817423       5.26258125       4.09689731      -0.01135363      -0.01915249      -0.00677417
H        6.17417693       3.57849962       4.29735255      -0.01351817      -0.01407546       0.01503181
H        6.78524030       4.49546556       5.71307554      -0.00555971       0.00303915       0.00151657
S        1.47324380      12.26884598       4.75788101       0.01083570       0.00815046      -0.00762749
O        1.76316014      11.01216759       5.51849800       0.00987503       0.00068617      -0.00997150
C        2.32242665      13.59367018       5.64634611       0.00535837       0.01233220      -0.00634062
C       -0.19982171      12.75947101       5.19608502       0.00998259       0.00692543      -0.00478706
H        3.38611416      13.36428633       5.61281671       0.00490597       0.01209144      -0.01530133
H        1.96540332      13.61866675       6.67687832       0.00633231       0.00567026      -0.00542113
H        2.13787057      14.54624860       5.14984405       0.00290595       0.01221856      -0.01012097
H       -0.35066309      13.81301867       4.95656269       0.00785363       0.01102422       0.01221262
H       -0.33380110      12.53849839       6.25645634       0.00873762       0.00481192      -0.00696141
H       -0.87602348      12.16507869       4.58482455       0.00396462       0.00548328       0.00290209
