200
Lattice="12.566507363865353 0.0 0.0 0.0 12.566507363865353 0.0 0.0 0.0 12.566507363865353" Properties=species:S:1:pos:R:3:forces:R:3 energy=-369482.5625 stress="0.0017032946925610304 -0.0005151105870027095 0.00038155481161084026 -0.0005151105870027095 0.0041120522655546665 0.0003267350111855194 0.00038155481161084026 0.0003267350111855194 0.0022601643577218056" pbc="T T T"
Cs      12.98870305      13.94340853      -1.96363230      -0.00261295       0.00051889      -0.00102429
Cl      11.46803841      11.27304148       1.30615073      -0.01029301       0.00100750       0.00548780
O       12.34733598      10.05888356       1.43376733      -0.01121289      -0.00084102      -0.00485650
O       12.31281041      12.42905553       0.96672059      -0.00937688       0.00180364       0.00340681
O       10.91288520      11.50849841       2.69662157       0.00021982      -0.00232255       0.00979125
O        1.54483327       9.43945929       5.90500637      -0.00665642       0.00136851       0.00088216
H        2.33138296       9.67212808       6.43591853      -0.00890917      -0.00266130       0.00360580
H        1.20922509      10.26326548       5.50152394      -0.00365256       0.00414807       0.00244151
O        3.55639562      10.31336516       7.80209472      -0.00972989       0.00090088       0.00344648
H        4.26131251      10.68225735       7.22328791      -0.01166945       0.00611963       0.00566623
H        4.07132688       9.84345313       8.48406460      -0.00743998      -0.00252901      -0.00004068
O       11.74988253       5.77503802       5.74311666      -0.00242701      -0.00541514      -0.00897310
H       11.33914294       6.18884401       6.52790789       0.00177293      -0.00640991      -0.01090309
H       11.45565288       6.29668036       4.98277673       0.00726555       0.00384131      -0.00793004
O        2.42490355       0.58471693       2.12115440      -0.00686717      -0.00038384      -0.00520533
H        1.52724410       0.92429743       2.28033214      -0.00464065      -0.00204529      -0.00413908
H        2.33368559      -0.22151836       1.57281431      -0.00706128      -0.00148884      -0.00746773
O        5.14497906       7.90791611       1.25925354       0.00574169       0.01265292      -0.00533383
H        5.46381913       8.82679473       1.35292794       0.00589722       0.00497044      -0.00589674
H        5.67698890       7.32074951       1.83408042       0.00810059       0.00805783      -0.00169523
O        5.54093419      10.64946417       1.40675286      -0.00106984       0.00919187      -0.00412047
H        5.27463433      11.04366187       0.53811131      -0.01113531      -0.00077409       0.00132014
H        6.40346566      11.05335414       1.57448565       0.00183934       0.03308711      -0.01600715
O        6.57145520       1.83734352       4.20079994       0.00721133      -0.00048073      -0.00688294
H        7.06179795       2.52081355       4.69657013       0.00433301       0.00081928      -0.00420340
H        5.87491325       1.55348201       4.84088988       0.00546651      -0.00018569      -0.01034559
O        7.61446588       9.70649875       3.64431345       0.02101670      -0.02776754      -0.01736946
H        8.55050127       9.40854989       3.72926548       0.02154225      -0.02987602      -0.00543297
H        7.67524703      10.65691704       3.86344839       0.01998752      -0.02888506      -0.02671469
O        4.62922574       1.23752309       6.03771779       0.00586313      -0.00220481      -0.00950959
H        5.08682262       0.53880536       6.52564192       0.00824537      -0.01147740      -0.01819812
H        3.89251741       0.76268424       5.58374912       0.00289172       0.00375046      -0.00687921
O        7.48244631       3.55066604      10.52742844      -0.01277626      -0.02799901       0.00120784
H        7.36486278       3.62217002      11.48843116      -0.00126659      -0.01228503       0.01718299
H        7.06357548       2.70641696      10.26857124      -0.00514415      -0.00184363       0.01666492
O        2.34721716      10.80639524       0.54696257      -0.00925898      -0.00727245      -0.00489064
H        3.01072327      10.15048333       0.78321565      -0.01204259      -0.00965466       0.00207494
H        1.49364929      10.42872183       0.82713640      -0.01050524      -0.00268824      -0.00659752
O        7.45510193       9.05382104      11.14640375      -0.00563945      -0.00306404      -0.00856471
H        7.74807803       9.96746319      10.85728100      -0.00281885      -0.00233085      -0.00466136
H        8.08901854       8.42232565      10.78436797      -0.00532023      -0.00240885      -0.00480042
O        2.42952970      11.65100131      10.14875198      -0.00416459      -0.00661106       0.00956061
H        2.27625562      10.90389267      10.73829998      -0.00339106      -0.00506972       0.01077742
H        2.73417477      11.27696223       9.30313023      -0.00385118      -0.00783356       0.00914299
O       10.67639709       3.16066030       4.64506388      -0.01240523       0.00107561      -0.00543445
H       11.06582582       4.04421756       4.75102469      -0.00685544      -0.00213325      -0.00393467
H       10.55712448       2.90021308       5.58490271      -0.01533989      -0.00205289      -0.00697041
O        7.74112109       3.49890109       6.09923493      -0.00230238      -0.00286983       0.00295961
H        8.62712203       3.77553351       6.38525186      -0.00042962      -0.00765770       0.00528426
H        7.63033962       2.69056588       6.64111385      -0.00912067       0.00015312       0.00222439
O        3.80611744       7.34710159       4.96386300      -0.00279817       0.00526693       0.00992820
H        4.69010678       6.94182590       5.01898220      -0.00282108       0.00132428       0.00637953
H        3.92020604       8.22820738       4.56237685      -0.00099633       0.00421111       0.01267063
O        9.33588484       2.11690272       2.13716056       0.00725752       0.01199090       0.01916070
H       10.01660034       2.44793914       1.53973186       0.00798738      -0.01339115       0.01051767
H        9.66649594       2.36322601       3.01730532       0.01635666       0.03013089       0.00952768
O       10.76439895      11.21063477      10.00788767       0.00202006       0.01559150       0.00064622
H       11.19636376      10.88835882       9.20015443      -0.00400909       0.01140996       0.00732394
H       10.75455914      10.43076006      10.59414724      -0.00007234       0.01522672       0.00867911
O        0.49062658       4.96670900       2.34801708       0.00954294      -0.00322096      -0.00696117
H        0.81915799       5.26886692       1.49378108      -0.00100286      -0.02054292       0.01240575
H        1.27320464       5.07064604       2.96054104       0.00951740      -0.00029538       0.00478081
O        4.05493575       4.04874200       6.72098982       0.00372282      -0.00276782      -0.00041455
H        3.19969010       4.37512866       6.40212387       0.00672100      -0.00238105      -0.00360871
H        4.16677843       3.17066756       6.32219819       0.00612499      -0.00397117      -0.00162798
O        6.25765516      13.75512317       9.63521311      -0.00763133      -0.00046328       0.01110221
H        5.31721850      14.02697465       9.48621378      -0.00180144       0.00307307       0.00832950
H        6.23958038      12.95513815      10.18026152      -0.01536198      -0.00495874       0.01250713
O        2.51468333       2.35486645      -0.10247601      -0.00350515       0.00135146       0.00124320
H        2.93705093       3.19785926       0.13941622      -0.00032625       0.00469577      -0.00049024
H        2.65815012       1.78505767       0.67005260      -0.00151483       0.00407043      -0.00263169
O        5.63775558      10.99780297       6.16629270      -0.00620142       0.01221640       0.00377149
H        6.18109865      10.22965028       6.41023071       0.00120512       0.01477256       0.00652495
H        5.24913382      10.71731410       5.31043380      -0.00240391       0.00824673       0.00552639
O       11.55795607       4.18125780       9.47495952      -0.00352572       0.00064562      -0.00253090
H       12.29282146       4.82647288       9.34446877      -0.00430803      -0.00448938       0.00497659
H       10.91824471       4.63699356      10.03344096      -0.00445601      -0.00557799      -0.00221863
O        3.77121958       4.62911548      13.41002991       0.00588170       0.00256170      -0.00153737
H        3.23421355       5.38400014      13.73690804       0.00891653       0.00475930      -0.00324944
H        4.40008568       5.04933146      12.78746331       0.00837848       0.00097990      -0.00237660
O        1.78730793       6.10173619       6.63759053      -0.01108539      -0.00765155       0.00733289
H        0.94960827       6.06682827       6.13484320       0.00270553      -0.00684138       0.00183771
H        2.36926020       6.71305588       6.15864952      -0.00025542      -0.00265628       0.01024262
O        4.97621736      11.56534585      11.48173554      -0.00095502       0.00107846      -0.00969192
H        4.12647821      11.99250396      11.28599686      -0.00435741       0.00392271      -0.01827292
H        4.90101350      10.73179090      10.98428420      -0.00048575       0.00328649      -0.00549574
O        4.74724734       3.71432180       3.14996098       0.00491948       0.00669903       0.00068427
H        5.31269333       2.93664472       3.30592889       0.00730605       0.00681839      -0.00075195
H        4.48287337       3.76481287       2.20595170       0.00609995       0.00706746       0.00095813
O        0.07926017       8.26068760       9.84207025       0.00208473      -0.01410623       0.00291344
H        0.38577831       9.03125794       9.32887241       0.00353368       0.00732220      -0.00092787
H        0.67125759       7.48961536       9.68309812      -0.00436022       0.00668915       0.00843442
O        4.25045485      10.06130567       3.93642435       0.00570755       0.00448712       0.00240266
H        4.64844916      10.27912484       3.07374345       0.00786436       0.00187674       0.00125759
H        3.59568374      10.76778992       4.11200850       0.00521362       0.00372738      -0.00234760
O        5.95472509       5.85965654       5.89211519      -0.00562046       0.00177009       0.00013711
H        5.30492947       5.21476825       6.25827608       0.00431370      -0.00385455      -0.00284665
H        6.73968625       5.31553241       5.73616129       0.00498873       0.00648175      -0.00254900
O        8.09989885      13.83247114       7.67677505      -0.00035197      -0.00170556       0.01052163
H        7.44993089      13.65996085       8.39859434      -0.00072309      -0.00141878       0.01593728
H        8.49168824      12.99109241       7.41201046       0.00083548       0.00436487       0.01491994
O        0.12506132      11.60375167       4.89454247      -0.00508526       0.00922723       0.00450037
H       -0.30989497      11.60413357       4.02286881      -0.00990778       0.00653795       0.00593344
H       -0.60816832      11.77241150       5.51630652      -0.00154343       0.00954394       0.00759595
O        8.15163410      12.14049996       0.79649320      -0.01249985      -0.00246450       0.00441277
H        8.61917916      11.30062847       0.97816031      -0.01296344      -0.00572382      -0.00397874
H        8.62522072      12.85396758       1.24470626      -0.01591460      -0.00809357       0.01696552
O        8.83324492       9.46541552       0.96377868      -0.01868637       0.01095991       0.00759383
H        8.23858233       9.23591610       0.21752826      -0.00771090      -0.00085764       0.00391388
H        8.33183796       9.28312766       1.77182575      -0.03140421       0.02834811       0.00405928
O        9.45987552       6.69691210      10.56953287       0.00327701       0.00128620      -0.00387057
H        9.53014346       6.09637408      11.35009314       0.00554626       0.00697471       0.00319541
H        9.94750354       7.49390668      10.88072372      -0.00198175       0.00620727      -0.00873115
O        2.50246619       4.97800460       4.02882681       0.00591895       0.00812973       0.00843020
H        2.90222730       5.85272535       4.17737324       0.00290433       0.00664080       0.00798991
H        3.25604289       4.40196396       3.78943011       0.00669944       0.00810851       0.00579656
O        1.10545792       5.89085562       9.20055861      -0.00129806       0.00010493       0.01095548
H        1.38327732       6.03109138       8.26280965      -0.00609156      -0.00463046       0.01026693
H        1.89620996       5.47637805       9.61871386       0.00347610       0.00034697       0.00909755
O        4.57161145       6.83054437       8.43597776       0.01769893      -0.00499870       0.00396329
H        4.49406895       7.10945952       7.51756700       0.03455660      -0.01203657      -0.00052117
H        5.50296069       6.56180072       8.56588472       0.01327147      -0.01333643       0.01871501
O       10.23466479       3.01054821       7.34225141      -0.01006315      -0.01427497      -0.00424728
H       10.72529289       3.44746281       8.07012477       0.00119766      -0.00398598      -0.00336768
H        9.61033914       2.38301131       7.74831387      -0.00446004       0.00476976      -0.00360437
O        5.06670844       6.24293707      11.67148397       0.01127147      -0.00403752       0.00314662
H        5.82235510       6.25101724      11.04581955       0.01362345      -0.01059386       0.00391448
H        5.15951028       6.99996246      12.28494185       0.01076806      -0.00128438      -0.00353143
O        0.06050205       0.53909459       7.59512696      -0.00524674       0.00460182      -0.00023636
H        0.48805771       1.22413472       7.03988735      -0.00874912      -0.00468708      -0.00048023
H       -0.84643677       0.47055557       7.26540297      -0.01603945       0.01069027       0.00520697
O        8.58379266       5.46870220       4.15144874       0.00420278       0.00915410      -0.00066715
H        8.75333098       4.54044715       4.35202998       0.00377702       0.00746803      -0.00063493
H        9.40242702       5.78152973       3.71283087      -0.00002308       0.00493257      -0.00957763
O        3.76478607       2.12560295       9.19094130      -0.00930914       0.00146837      -0.00471130
H        3.74172791       2.37784501       8.25904766      -0.00899081      -0.00548374       0.00558655
H        3.70129515       2.98491796       9.65109325      -0.01129113       0.00630236      -0.00164852
O        0.52031047       2.29640239       3.34293550      -0.00464694      -0.00319067      -0.00512567
H       -0.37225951       2.33782795       3.72640431      -0.00663115      -0.00919843      -0.00980249
H        0.58206117       3.13055905       2.84059631      -0.00544579       0.00167341      -0.00013626
O        1.27498641       2.56204840       6.06948210      -0.00021355      -0.01159769      -0.00953830
H        0.95380187       3.44677021       6.27372154       0.01350971      -0.00448678      -0.00811366
H        1.17731455       2.49376055       5.09890265      -0.00502443      -0.00889704      -0.00855978
O        6.41163844       5.81577152       2.54781912       0.00651767       0.00688304      -0.00343515
H        5.76122585       5.18366414       2.92201909       0.00665429       0.00920399      -0.00102334
H        7.17259379       5.78187656       3.17021033       0.00701551       0.00791936      -0.00404910
O       10.82322411       6.41821744       2.92816931      -0.00299163       0.00110276      -0.02966391
H       11.72627366       6.06594806       2.76247096      -0.00129218      -0.00334305      -0.01289178
H       10.86948527       7.37805649       3.09357497       0.00169399      -0.00326035      -0.01185455
O       10.72210771       8.87565073      -1.01120008      -0.00232163       0.00779909      -0.00317627
H       11.64211347       8.63728194      -1.23347272      -0.00575808      -0.00015039      -0.02717604
H       10.60665451       8.93573502      -0.05291880       0.02117576      -0.00405608      -0.00954437
O        2.53137567       7.00821824       1.47593918       0.00610167      -0.00041503      -0.00264467
H        2.04025309       7.36972252       2.23983502       0.00822356      -0.00325943      -0.00416003
H        3.39695762       7.45961439       1.47099173       0.00837746       0.00302014      -0.00371867
O        9.90004777       5.16084815       0.24050741      -0.00581379       0.01535173      -0.01088089
H        9.03394904       4.75422762       0.46932026      -0.00509893       0.00746410      -0.00743221
H       10.16458169       5.65922432       1.02829214      -0.00752524       0.01614740      -0.01599679
O       10.79733012       7.20082366       8.06841750       0.00632804      -0.00647058      -0.00443879
H       10.20475222       6.77572520       8.70966166       0.00907228      -0.00562376      -0.00094417
H       11.48136439       7.60442989       8.65209257       0.00797492      -0.00527516      -0.00748433
O        7.50760208       3.98559407       0.79775221       0.00554357      -0.00213630       0.00801241
H        7.04082805       4.64733923       1.35897459       0.00549971      -0.00286891       0.00308201
H        7.81640142       3.28721061       1.39492815       0.01429416       0.00226339       0.01240459
O       10.22603603       8.98782273       3.83086538       0.02430454      -0.01038733       0.01422017
H       10.59043601       9.82281563       3.48743190       0.01408030      -0.00618123       0.01070356
H       10.22861957       9.04974994       4.81470424       0.01404675      -0.00286444       0.01276831
O        7.04357760       8.52154034       6.04524363       0.00179696       0.00915661       0.00097713
H        7.08428556       8.78423142       5.10050732       0.00974451       0.00226539      -0.00218468
H        6.70794380       7.60861443       6.07764087      -0.00101095       0.01261265       0.00247803
O        8.46515684      12.38154030       4.19095565      -0.00307817      -0.01424766      -0.00872886
H        7.80221266      13.11052701       4.15128694      -0.01272346      -0.02319891      -0.01012345
H        9.05709222      12.49837882       3.43626597       0.00746200       0.00254807       0.00523351
O        2.80892488      12.35269313       4.62922226       0.00091919       0.00086626      -0.00575799
H        2.75469000      12.71553941       3.70663842       0.00000293       0.00002146      -0.00533943
H        1.87397955      12.28342402       4.89560880      -0.00006467       0.00282202      -0.00392008
O        3.44672913       4.80675321       9.96377858       0.00279571       0.00188795      -0.00231067
H        3.84653052       5.30438145      10.70330409       0.00650818      -0.00015838       0.00513089
H        3.83010661       5.25928658       9.18828111       0.00505330      -0.00059210       0.00493940
O       12.66867484      10.35750890       8.09491247      -0.00553902       0.00945583       0.00339927
H       12.94015749      11.28836896       7.98119611      -0.00926629      -0.00113090      -0.00084749
H       13.02855747       9.89800094       7.31151832      -0.00775993       0.00076721      -0.00090837
O       10.19966164      11.93038490       6.33880851      -0.02049622       0.00621691       0.00593908
H       10.04870333      10.98180173       6.52652224      -0.00714140       0.00443000       0.00815353
H        9.59991303      12.13463698       5.59189788      -0.01856602      -0.00662700       0.00135880
O        8.10464283      11.54746108      10.60272947      -0.00438984       0.00219265       0.00396151
H        8.12905277      11.93113027      11.49954275      -0.00556833       0.00195990      -0.00172129
H        9.02767235      11.57258844      10.27632782      -0.00015939       0.00589050       0.00169744
O        6.88515401       5.98825424       9.66243718       0.00880396      -0.01537040       0.00144786
H        7.03377373       5.02380853       9.84692685       0.01263334      -0.01380243       0.00813094
H        7.75713489       6.37783779       9.84328612       0.00573202      -0.00742213      -0.00686668
O        9.69532748       9.15354543       6.48091458       0.00444295       0.00390697       0.00831410
H       10.10267153       8.51353688       7.10354010       0.00191961      -0.00058254       0.00431944
H        8.75122748       8.88689515       6.42561469       0.00324886       0.00687851       0.00519527
O        0.91255814       8.10711509       3.45596151       0.00679374      -0.00226963       0.00052796
H        1.23985342       8.47926863       4.29436580       0.00259232       0.00159502       0.00057694
H        0.49468928       8.84364968       2.98816762      -0.00598523      -0.00701321       0.00299659
O        4.92222108       9.13285315      10.02297173      -0.00235453      -0.00395434      -0.00829493
H        5.84425359       8.99775187      10.32650390      -0.00125670       0.00296146      -0.00385021
H        4.62992574       8.25579448       9.72047880       0.01004842      -0.00431272      -0.01594944
