198
Lattice="14.07846218692556 0.0 0.0 0.0 14.07846218692556 0.0 0.0 0.0 14.07846218692556" Properties=species:S:1:pos:R:3:forces:R:3 energy=-328118.25 stress="-0.0019687097519636154 -0.00039137175190262496 -7.295955219888128e-05 -0.00039137175190262496 -0.0002055733057204634 -0.00032151027699001133 -7.295955219888128e-05 -0.00032151027699001133 -0.0018514308612793684" pbc="T T T"
Cs      12.06121820      14.84446315       1.42483204       0.00197080      -0.00992849       0.01949807
B       13.62311050      11.85385173       2.31562395       0.00685017      -0.01466353       0.01498142
F       13.79889738      11.45790794       3.63729962       0.02055442      -0.00603899       0.01538610
F       14.29089974      13.09131563       2.08867510       0.00538665      -0.01695126       0.00080393
F       14.09498755      10.90121255       1.42858059       0.00167385      -0.01985949       0.01771528
F       12.24323117      12.08346146       2.09237116       0.00499552      -0.01441648       0.02694973
C        9.70737725      10.82634096      -0.12528985       0.00678856       0.00330515       0.00028260
C       11.05311761      11.01178534      -0.41585751       0.00745262       0.00457029       0.00353500
C        8.78493541      11.83106260      -0.39474911       0.00631770       0.00200504      -0.00344722
C       11.47664001      12.20045915      -0.99985462       0.00766256       0.00421287       0.00391500
C        9.20721878      13.02302257      -0.96996148       0.00684074       0.00227764      -0.00134153
C       10.55246150      13.20177570      -1.28549226       0.00745058       0.00366208       0.00216690
H        9.37811577       9.89816508       0.32723597       0.00658385       0.00329888      -0.00102449
H       11.77676102      10.24539025      -0.17088582       0.00701889       0.00458139       0.00433651
H        7.73754451      11.68432708      -0.16633282       0.00544131      -0.00056798      -0.00918241
H       12.52232115      12.32856925      -1.25315918       0.00767596       0.00451768       0.00405962
H        8.48398211      13.79682929      -1.19765792       0.00672960       0.00138740      -0.00373037
H       10.87393778      14.11000253      -1.78783525       0.00799514       0.00358728       0.00294054
C        4.02104559      10.77066154       3.96105805      -0.02741661       0.00378712      -0.00988730
C        4.93019266       9.72648714       4.06104903       0.02537592       0.00402986       0.00780980
C        2.69005136      10.50941038       3.66808413       0.03607129       0.01021400      -0.00098343
C        4.50959199       8.41639985       3.87119291      -0.02855867      -0.00278880      -0.00177086
C        2.26956689       9.19849738       3.49121103      -0.02206390       0.00565903      -0.01031595
C        3.17582606       8.15200397       3.59085910       0.03146629       0.00570539       0.00659793
H        4.34645917      11.78939398       4.13257535       0.00774231       0.00547765      -0.00507717
H        5.96638102       9.93894955       4.28606290      -0.00669073       0.00004207       0.00476265
H        1.97134237      11.31189411       3.58832010       0.00317611       0.00936691      -0.01344761
H        5.22034878       7.60026048       3.92390213       0.00159937       0.00075406       0.00828221
H        1.23273071       9.00703237       3.25572656       0.01154694       0.00988825      -0.00576234
H        2.85496474       7.13127102       3.42981453      -0.00301769       0.00379486       0.00145738
C       12.24139765       3.18629167       4.02743727      -0.00193053       0.00417821       0.00848176
C       13.55483425       2.79703544       3.77598914      -0.00729531       0.00944833       0.00307307
C       11.37824463       2.31630615       4.68756249      -0.00298627       0.00683329       0.00967944
C       14.00392567       1.54016700       4.17243841      -0.00203712       0.00345027      -0.00187394
C       11.82990726       1.06177004       5.09051793       0.00217719       0.00122105       0.00529636
C       13.13806129       0.66570775       4.82390181      -0.00393676       0.00564061      -0.00187819
H       11.90732232       4.17326842       3.73037926      -0.00564701       0.00724927       0.01186576
H       14.22964403       3.48244319       3.28105870      -0.00642820       0.00843315       0.00312279
H       10.36321608       2.62473699       4.90965435       0.00074978       0.00448133       0.01570827
H       15.02310926       1.23703220       3.97154465      -0.00551505       0.00630508      -0.00632171
H       11.15762450       0.38641160       5.60591648       0.00224762       0.00354221       0.00806457
H       13.47849884      -0.32302447       5.10535039      -0.00063186       0.00196785      -0.00657194
C        8.01846409      11.47922500       2.95183034      -0.00979299      -0.00883551      -0.00747566
C        9.34035127      11.83362638       3.17948918      -0.01759206      -0.01694857       0.01196800
C        7.04477424      12.46350229       2.81322511      -0.01013836      -0.00744702      -0.01194773
C        9.68271925      13.17485586       3.28361368      -0.00982235      -0.01625364       0.02844425
C        7.39279133      13.80607099       2.89823946      -0.00294729      -0.00664748       0.00420536
C        8.71629397      14.16319612       3.13910160      -0.01027117      -0.01455290       0.02387072
H        7.74608623      10.43415654       2.86904227      -0.01476834      -0.00840877      -0.02215310
H       10.11704771      11.08567237       3.26130246      -0.01852873      -0.01932877       0.01686838
H        6.01582587      12.18037830       2.63583966      -0.00588359      -0.00170199      -0.02640979
H       10.71173991      13.42702351       3.49704275      -0.01430546      -0.02115489       0.04038601
H        6.63831153      14.57553765       2.78755903      -0.00162034      -0.00544246      -0.00264180
H        8.98036096      15.21071460       3.22595178      -0.00633392      -0.01447746       0.03656651
C        8.39502720       4.51843780       3.28846117       0.00248750       0.00913392      -0.00278634
C        8.53024895       3.56251257       2.28928754       0.00196694       0.01097058      -0.00455848
C        7.14457424       5.06510308       3.55649052       0.00178746       0.00604558       0.00050986
C        7.41976787       3.13919532       1.56684972       0.00209433       0.01150174      -0.00440712
C        6.03589941       4.66006697       2.82188294       0.00183219       0.00518456       0.00184173
C        6.17136804       3.69265765       1.83070764       0.00120799       0.00856130      -0.00136784
H        9.26125718       4.84316542       3.85201255       0.00268641       0.01047540      -0.00435053
H        9.50990642       3.14957404       2.07651788       0.00224314       0.01288000      -0.00681767
H        7.03865452       5.80761029       4.33849054       0.00216133       0.00430150       0.00235674
H        7.52716227       2.37572833       0.80465820       0.00220794       0.01533841      -0.00793322
H        5.06557759       5.09592921       3.02255423       0.00125700       0.00216946       0.00513801
H        5.30466126       3.37512681       1.26250513       0.00118399       0.00896363      -0.00121654
C       12.72197171       5.58040491       7.11492474       0.00087027      -0.00403100       0.00558678
C       12.93627361       6.87188514       6.64699891       0.00231875      -0.00570384       0.00114367
C       11.46592759       4.99980566       6.99770710       0.00140740      -0.00405027       0.00431423
C       11.89755654       7.58002688       6.05406047       0.00410214      -0.00813039      -0.00410336
C       10.42476261       5.70747047       6.40979146       0.00307955      -0.00656107      -0.00097370
C       10.64282364       6.99487942       5.93224233       0.00451164      -0.00800069      -0.00508261
H       13.53098144       5.01826702       7.56312562      -0.00042837      -0.00216457       0.00985185
H       13.91250731       7.33091419       6.74637507       0.00212307      -0.00585039       0.00190935
H       11.29642331       3.99595332       7.36248451       0.00027891      -0.00282237       0.00738939
H       12.06205890       8.59016664       5.69941856       0.00538189      -0.00956686      -0.00775547
H        9.43828547       5.26168316       6.34573198       0.00348943      -0.00654781      -0.00222174
H        9.82693490       7.55456744       5.49263918       0.00570755      -0.00962439      -0.00885911
C        3.58984354       7.01984892      -0.05845116      -0.00182756      -0.00246696      -0.00445959
C        4.93405121       7.25984967       0.21148868      -0.00152705      -0.00237601      -0.00223605
C        2.66962107       8.05982445       0.02047541      -0.00109877      -0.00266206      -0.00630718
C        5.35308061       8.54014742       0.55307833      -0.00307307      -0.00227971      -0.00180270
C        3.08851320       9.33933261       0.37063567      -0.00265141      -0.00283393      -0.00618756
C        4.43229888       9.57776918       0.62975457      -0.00235454      -0.00271644      -0.00359109
H        3.26451817       6.02466418      -0.33758658      -0.00080529      -0.00260562      -0.00437971
H        5.64879144       6.44651675       0.15942235      -0.00196287      -0.00215635      -0.00091853
H        1.62119836       7.87484878      -0.17963226      -0.00119767      -0.00278602      -0.00827436
H        6.40014885       8.73131518       0.75939426      -0.00302361      -0.00229744       0.00023068
H        2.36266424      10.13821982       0.45782679      -0.00239958      -0.00294301      -0.00736481
H        4.76098323      10.57380999       0.89663717      -0.00343568      -0.00266044      -0.00317667
C        7.27610264      10.22571928      10.94212065       0.00246504       0.00636926      -0.00492870
C        6.14563968       9.53653653      11.35939999       0.00341888       0.00639433      -0.00235745
C        7.21262012      11.59825656      10.72600447       0.00086434       0.00648045      -0.00593345
C        4.94988571      10.21546916      11.56080796       0.00380127       0.00535989      -0.00094727
C        6.02302922      12.28137553      10.94807729       0.00100243       0.00537488      -0.00459479
C        4.89087365      11.58896909      11.36595895       0.00220762       0.00528003      -0.00206680
H        8.20427843       9.69447972      10.77877278       0.00213578       0.00705455      -0.00650916
H        6.18991389       8.46674175      11.52701368       0.00468071       0.00644919      -0.00157911
H        8.09378399      12.13325669      10.39560009      -0.00020985       0.00644234      -0.00812595
H        4.06866425       9.67202428      11.87268114       0.00468075       0.00525402       0.00129332
H        5.97447128      13.35165484      10.78786462      -0.00025074       0.00526747      -0.00567940
H        3.95921443      12.11659601      11.52803756       0.00232679       0.00463572      -0.00088188
C        4.45332343       8.92767124       8.38628530      -0.00363575      -0.00426477      -0.00461532
C        3.28784604       8.39305533       7.85523787      -0.00327154      -0.00095066      -0.00439509
C        4.75973976      10.26881131       8.19234023      -0.00164501      -0.00353189      -0.00081760
C        2.42463464       9.20290645       7.12545074      -0.00424932       0.00095134      -0.00211541
C        3.89175749      11.07914054       7.47520795      -0.00265795      -0.00168173       0.00123206
C        2.72620689      10.54550211       6.93962147      -0.00204319       0.00147642       0.00091407
H        5.13918822       8.30553008       8.94515389      -0.00297322      -0.00593342      -0.00660157
H        3.06494896       7.34198200       7.99332367      -0.00455964      -0.00142027      -0.00756370
H        5.67535803      10.67412642       8.60063992      -0.00194550      -0.00564524      -0.00073319
H        1.52697693       8.79020764       6.68263118      -0.00425436       0.00335111      -0.00225767
H        4.13034585      12.12464278       7.32220274      -0.00110845      -0.00137746       0.00412024
H        2.06623337      11.16719662       6.34928609      -0.00232212       0.00282324       0.00215510
C       11.09392855       6.26068297      11.64215955      -0.00559390       0.00215068      -0.00559667
C       11.01027537       4.87480367      11.72483102      -0.00599816       0.00299536      -0.00568488
C       10.04346876       7.04905713      12.09761055      -0.00428302       0.00292034      -0.00308356
C        9.87676785       4.27749989      12.26691531      -0.00523478       0.00281414      -0.00334279
C        8.90636776       6.45178902      12.63235602      -0.00306883       0.00290303       0.00015595
C        8.82279785       5.06589801      12.71980594      -0.00350781       0.00376829      -0.00028123
H       11.98042812       6.72151485      11.22480698      -0.00595310       0.00196100      -0.00760956
H       11.83091262       4.26496395      11.36629351      -0.00745400       0.00211283      -0.00823913
H       10.11102305       8.12953607      12.04810539      -0.00409355       0.00244291      -0.00289897
H        9.80949448       3.19710105      12.33102155      -0.00678869       0.00322664      -0.00419299
H        8.08797347       7.06736663      12.98669255      -0.00175944       0.00331663       0.00340807
H        7.94308594       4.60266452      13.14995756      -0.00272143       0.00331369       0.00121463
C       11.55409462       5.68368205       1.24853378       0.00791088      -0.00862025      -0.00697110
C       10.84570424       6.74923756       1.79319955      -0.00965022       0.00414841      -0.00525534
C       12.94292450       5.66601557       1.31125099      -0.00426826       0.01121041       0.00140677
C       11.52923934       7.80109412       2.39009742      -0.00495028      -0.00501394      -0.01365539
C       13.62669237       6.71715711       1.91604508      -0.00058757       0.00329965      -0.00538163
C       12.91706647       7.78759832       2.44896634      -0.01836760       0.01512609      -0.00250214
H       11.01737754       4.87986734       0.75979457       0.00795873      -0.00594568      -0.00040437
H        9.76391205       6.75664185       1.74478404      -0.00318895      -0.00786162      -0.01141058
H       13.49437121       4.83847635       0.87797438       0.00671703       0.00711564       0.00015835
H       10.98762261       8.63823457       2.81283324      -0.01615356       0.00243928      -0.01386557
H       14.71032834       6.71141834       1.95389522      -0.00781392       0.01585075       0.00008367
H       13.43182846       8.62522162       2.89814679      -0.01422686       0.01028627      -0.00794993
C        9.17493624       2.89568169       8.88119621      -0.00235628      -0.00443848       0.00291164
C        9.21905099       2.01659404       7.80494881       0.00226803      -0.00180834       0.00085137
C        8.07161538       3.72173837       9.06267459      -0.00211146      -0.00289523      -0.00226910
C        8.16487674       1.97253857       6.89924478       0.00817660       0.00238780      -0.00534342
C        7.01257677       3.67160992       8.16261409       0.00361378       0.00137437      -0.00869397
C        7.06498074       2.80487718       7.07615647       0.00843547       0.00388232      -0.01060659
H       10.00524361       2.94946840       9.57425571      -0.00690696      -0.00802913       0.00812714
H       10.08066253       1.37479690       7.66612413       0.00211588      -0.00303189       0.00492992
H        8.04792769       4.40516009       9.90296217      -0.00605620      -0.00513033      -0.00061208
H        8.19524800       1.28939934       6.05812335       0.01188930       0.00406795      -0.00666971
H        6.14358441       4.30284865       8.30894043       0.00394697       0.00253682      -0.01255570
H        6.25045120       2.78386266       6.36471603       0.01278841       0.00699191      -0.01545907
C        3.30741991       3.21794447      12.04323194       0.00205593       0.00332812      -0.00240292
C        2.28554931       4.00478659      11.52120032       0.00126646       0.00228436      -0.00355224
C        4.63209919       3.62120894      11.90936722       0.00092004       0.00471739      -0.00100797
C        2.58855488       5.19428786      10.86743267       0.00134027       0.00210506      -0.00323573
C        4.93443237       4.81183274      11.25677332       0.00087033       0.00438882      -0.00082916
C        3.91275667       5.59874277      10.73697035       0.00020544       0.00315110      -0.00223865
H        3.07201383       2.29033558      12.55084696       0.00226067       0.00327963      -0.00298405
H        1.25359313       3.69185131      11.62523409       0.00204802       0.00135960      -0.00461915
H        5.42922312       3.00580962      12.30898395       0.00109509       0.00544740       0.00028979
H        1.79302845       5.81316183      10.47052857       0.00097384       0.00146119      -0.00388736
H        5.96618848       5.12834558      11.16030588       0.00016399       0.00557969       0.00050280
H        4.14466954       6.53499399      10.24467618       0.00020940       0.00293627      -0.00219677
C        3.31721954       3.21250468       4.72221349       0.00231450      -0.00248459       0.00402199
C        2.53949440       4.26156951       4.24484976       0.00658786       0.00075111       0.00485319
C        3.48283955       3.03919878       6.09181527      -0.00209140      -0.00693500       0.00400217
C        1.92050068       5.13211121       5.13438695       0.00640076       0.00002547       0.00539497
C        2.89264053       3.92874475       6.98295228      -0.00327412      -0.00851107       0.00466757
C        2.11074964       4.97186614       6.50120066       0.00122930      -0.00521731       0.00555101
H        3.79534371       2.53191070       4.02805754       0.00287807      -0.00143173       0.00356058
H        2.40718245       4.39459573       3.17647473       0.01037047       0.00448388       0.00493848
H        4.07180824       2.21242429       6.46729877      -0.00441675      -0.00869866       0.00318601
H        1.28558607       5.92954232       4.76788519       0.01095905       0.00335756       0.00600433
H        3.03760649       3.80723138       8.04992050      -0.00709951      -0.01214478       0.00475611
H        1.64224120       5.66047157       7.19254572       0.00087953      -0.00609664       0.00603276
C       12.17327836      10.03337163      10.03935402       0.00337679       0.00716048       0.00250319
C       13.30371895      10.00329993       9.23326050       0.00335075       0.01130794       0.00224602
C       11.36143564      11.16209016      10.05983282      -0.00293256       0.00240402      -0.00079429
C       13.63024439      11.11079240       8.45930455      -0.00324354       0.01050343      -0.00099731
C       11.68922025      12.26983106       9.28771901      -0.00988504       0.00156994      -0.00447893
C       12.82837391      12.24531239       8.49037304      -0.00968526       0.00576447      -0.00471599
H       11.92044419       9.17665966      10.65257545       0.00877760       0.00777123       0.00544850
H       13.93243041       9.12168705       9.20552707       0.00849146       0.01485519       0.00493553
H       10.48069342      11.18141119      10.68820129      -0.00267497      -0.00041201      -0.00011721
H       14.51716671      11.08772813       7.84404180      -0.00311455       0.01379841      -0.00112954
H       11.06121817      13.15256538       9.31599930      -0.01495852      -0.00212641      -0.00755005
H       13.09651249      13.11031554       7.89553879      -0.01499965       0.00536892      -0.00740782
C        7.21219539       8.47774095       6.43885418       0.00336176      -0.00613460       0.00317365
C        7.94997590       9.65124173       6.32872166       0.00363299      -0.00801449       0.00761162
C        7.47996744       7.57766320       7.46326703       0.00340290      -0.01157171       0.00041732
C        8.96227975       9.92070737       7.24244305       0.00484248      -0.01082063       0.00702932
C        8.48648420       7.84942335       8.37955908       0.00508656      -0.01437135      -0.00028089
C        9.22876016       9.01756034       8.26349031       0.00504546      -0.01620754       0.00406088
H        6.40523172       8.27605224       5.74892818       0.00280984      -0.00404560       0.00329977
H        7.73728054      10.36244030       5.53991902       0.00393564      -0.00470686       0.00943973
H        6.90001773       6.66652225       7.54593238       0.00364213      -0.01059777      -0.00305162
H        9.54519952      10.83043658       7.15924938       0.00504678      -0.01178864       0.01022399
H        8.70450255       7.14915094       9.17734213       0.00518197      -0.01855108      -0.00306499
H       10.02751687       9.22399055       8.96058567       0.00619675      -0.01846783       0.00369012
