200
Lattice="13.757574131970747 0.0 0.0 0.0 13.757574131970747 0.0 0.0 0.0 13.757574131970747" Properties=species:S:1:pos:R:3:forces:R:3 energy=-316823.5625 stress="-0.0011646513594314456 -7.26467915228568e-05 -0.00010382010805187747 -7.26467915228568e-05 -0.0021447378676384687 -3.0273847187345382e-05 -0.00010382010805187747 -3.0273847187345382e-05 -0.0018197053577750921" pbc="T T T"
Cs      14.00381124      15.17404576      -1.31709974      -0.01494054       0.00776460      -0.00516821
Cl      13.17817331      12.72552230       0.95771017       0.03801119      -0.00771070      -0.02110648
O       13.03811664      12.88790856       2.40641249       0.02179457       0.00278521       0.01093316
O       14.55931482      13.18933936       0.55909054       0.02055323       0.02167541       0.00538453
O       12.22490919      13.68249419       0.27814999       0.01872343      -0.03956950      -0.00952935
O       11.02441958       8.67294057       9.43895938       0.00081834       0.00939557      -0.00458121
C       12.36818798       8.77136570       9.00760215       0.00276506       0.00633842       0.00156330
C       10.57448999       7.32723357       9.45266740       0.00019312       0.00988369       0.00069466
C       12.77531407      10.22268166       9.03403352       0.00295390       0.00609595      -0.00166439
C        9.14147454       7.29438504       9.91617784      -0.00244337       0.01218353      -0.00772835
H       13.01635660       8.17196194       9.66676442      -0.00040323       0.00752464       0.00587222
H       12.46422546       8.35166384       7.99715626       0.00623825       0.00430170       0.00286853
H       10.68175104       6.88491445       8.45378243       0.00586301       0.00370160       0.00403726
H       11.21095302       6.74287253      10.13316449      -0.00420475       0.01471743       0.00838980
H       13.79689331      10.33872523       8.67119784       0.00432284       0.00443113       0.00200555
H       12.11196055      10.81036561       8.39892388       0.00529060       0.00384790      -0.00608990
H       12.71744560      10.61677588      10.04923816       0.00011586       0.00923850      -0.00328287
H        8.80201858       6.26176970       9.96702663      -0.00294663       0.01248549      -0.00685332
H        9.03419251       7.74285302      10.90387564      -0.00818793       0.01487508      -0.00974655
H        8.49678365       7.84696085       9.23030254       0.00196946       0.01014489      -0.01331441
O        2.50478698       8.09263839       5.10492509      -0.00445080      -0.00585660       0.00323885
C        3.30117151       9.22441912       4.76991891      -0.00690532      -0.00506967       0.00314285
C        3.27876147       6.91221015       5.16731640      -0.00173120      -0.00402224      -0.00015491
C        2.47057820      10.47446623       4.88542018      -0.00603676      -0.00528955       0.00680330
C        2.41804888       5.75190895       5.59972367       0.00225788      -0.00652701      -0.00003965
H        4.16358652       9.27755579       5.45131474      -0.00517365      -0.00541231       0.00117096
H        3.69528297       9.11700605       3.74913395      -0.00851697      -0.00321343       0.00247651
H        3.73322647       6.71004375       4.18641015      -0.00319575      -0.00155872      -0.00109750
H        4.10371893       7.05432465       5.87938580      -0.00060955      -0.00304976      -0.00186956
H        3.08515820      11.33572839       4.62871662      -0.00125656      -0.00908066       0.00649832
H        1.62737862      10.45086104       4.19682514      -0.00831604      -0.00249300       0.00856088
H        2.09906734      10.59538963       5.90329970      -0.00430674      -0.00493883       0.00731181
H        3.02614191       4.85009669       5.68691875       0.00388406      -0.00547093      -0.00320463
H        1.96600101       5.95567119       6.57049919       0.00482256      -0.00989526       0.00154412
H        1.62033713       5.55973119       4.88366124       0.00105330      -0.00770751       0.00194561
O        7.70534170       1.83700056      10.73327816      -0.00266939       0.00291973      -0.00074050
C        6.42789121       1.55766021      10.18541035      -0.00062621       0.00232923      -0.00345287
C        8.44131939       0.65807417      10.99500338      -0.00306600       0.00350898       0.00269037
C        5.66921551       2.84718759       9.99158855      -0.00194366       0.00154132      -0.00157804
C        9.83741408       1.03893775      11.42613683      -0.00358120       0.00650568       0.00024638
H        6.55228498       1.04157922       9.22540376       0.00114690       0.00418542      -0.00444049
H        5.87623561       0.87872026      10.85442013      -0.00047222       0.00050139      -0.00538781
H        7.93728072       0.07081191      11.77631078      -0.00505570       0.00468154       0.00281027
H        8.47668449       0.03285935      10.08975052      -0.00302860       0.00151619       0.00431263
H        4.71177370       2.64378182       9.51053617      -0.00058104       0.00202419      -0.00401753
H        5.47889853       3.33999071      10.94400325      -0.00451302      -0.00150194      -0.00065041
H        6.23804966       3.53009947       9.35965587      -0.00178126       0.00425529       0.00171390
H       10.41522361       0.14562566      11.67170969      -0.00274747       0.00871138       0.00411502
H       10.32856396       1.58660043      10.62123959      -0.00486455       0.00395836      -0.00318909
H        9.80630456       1.68317779      12.30502384      -0.00527840       0.00878182      -0.00136118
O       10.79510747       9.00870845       2.21058815      -0.00080690       0.00775264       0.00404042
C       11.07644533      10.40011444       2.13351792      -0.00025192       0.00646934       0.00447279
C       11.71408275       8.27450178       1.42363897      -0.00027497       0.00570375       0.00547080
C       10.03963570      11.18854426       2.89290211      -0.00019878       0.00562042       0.00471014
C       11.33707032       6.81782279       1.44777304       0.00009826       0.00584966       0.00953953
H       12.07659062      10.59271993       2.53723939       0.00037181       0.00543773       0.00775799
H       11.08499097      10.70487481       1.07542012       0.00302254       0.00805277       0.00606763
H       11.70178882       8.66114224       0.39223810      -0.00033451       0.00340660       0.00505984
H       12.73265562       8.42127784       1.81034180      -0.00077879       0.00734567       0.00568792
H       10.28159714      12.24814113       2.81457091      -0.00310093       0.00633098       0.00256237
H        9.04116077      11.02660868       2.48456294      -0.00004917       0.00277283       0.00472394
H       10.03341520      10.91253211       3.94547574       0.00020475       0.00745191       0.00458996
H       12.03949129       6.24375535       0.84341068      -0.00203861       0.00442661       0.00857746
H       11.36196183       6.42977872       2.46490188       0.00303480       0.00800864       0.01013085
H       10.33409140       6.67188879       1.04644691      -0.00110132       0.00517981       0.01292514
O       12.97840507       2.70803406       4.10310960       0.00022878      -0.00019383       0.00775711
C       12.96301811       2.30705550       2.74423649       0.00443469       0.00230020       0.00916600
C       13.02678946       1.58647015       4.97386970       0.00957819      -0.00114348       0.00275028
C       12.91081017       3.54865897       1.88962512      -0.00059089       0.00083178       0.00781265
C       13.05976082       2.07361016       6.40210960       0.01711420       0.00136420      -0.00097263
H       13.84956478       1.69834542       2.52272620       0.01017812       0.00887591       0.01592762
H       12.09913932       1.66129394       2.54722244       0.00825489      -0.00226787       0.00667019
H       12.15747798       0.94116823       4.78649749       0.00725073      -0.00325465       0.01914809
H       13.91617663       0.98648704       4.74570212       0.00360471      -0.00364426      -0.01265646
H       12.84310531       3.28123521       0.83270247       0.00298254      -0.00465682       0.01001859
H       12.02795016       4.14022194       2.13096067      -0.00355066      -0.00027036       0.00134970
H       13.79190306       4.17551014       2.04178727      -0.00333302       0.00563814       0.00449047
H       13.08071948       1.22246560       7.08397833       0.01805802       0.00170249      -0.00257148
H       13.94980686       2.67839812       6.57774718       0.01171249       0.01121677      -0.00331732
H       12.18630464       2.68287484       6.63798841       0.01011573      -0.00497249      -0.01176753
O        8.17903608       1.99553481       3.60522744      -0.00225765      -0.00570572      -0.00220835
C        8.35081479       2.45021260       2.27667816      -0.00182950      -0.00234769      -0.00124067
C        9.38635662       1.49477725       4.15395210      -0.00207815      -0.00274044      -0.00156707
C        7.01429294       2.90076284       1.74228386      -0.00200969      -0.00524443      -0.00259063
C        9.10234102       0.97520080       5.54190503      -0.00237095      -0.00662902      -0.00337893
H        9.08010949       3.27646243       2.25741184      -0.00434369      -0.00027302       0.00175323
H        8.76661615       1.64044318       1.65772140       0.00137050       0.00019684      -0.00199679
H        9.77915990       0.69255800       3.51237690       0.00131688      -0.00057960      -0.00267774
H       10.14520705       2.29123012       4.17625058      -0.00428131      -0.00091830       0.00118197
H        7.11163635       3.23662160       0.71096844      -0.00069356      -0.00225297      -0.00144488
H        6.29433837       2.08295555       1.77626278       0.00058945      -0.00759329      -0.00648995
H        6.61897385       3.72419525       2.33687688      -0.00600300      -0.00819714      -0.00138386
H       10.01878385       0.60366258       6.00278552      -0.00238833      -0.00620714      -0.00311444
H        8.69667674       1.76740883       6.17137957      -0.00433421      -0.00876547      -0.00200535
H        8.37652302       0.16207153       5.50251056      -0.00084692      -0.00764461      -0.00634080
O        8.17347171       7.15368714       5.19851722      -0.00011232      -0.00404084       0.00301754
C        6.79650619       6.83860270       5.13871124       0.00038470      -0.00682044       0.00580320
C        8.37665205       8.54340413       5.40807007      -0.00314468      -0.00541064       0.01307258
C        6.62341916       5.34603049       5.00256814       0.00358060      -0.00617939      -0.00308244
C        9.83571228       8.79368031       5.68282806      -0.00263757      -0.00285552       0.00704770
H        6.30634849       7.19541415       6.05435050       0.00280125      -0.01406424       0.00979549
H        6.32730061       7.36853739       4.29811280      -0.00379208      -0.00271404       0.01076195
H        8.03707209       9.10369194       4.52348336      -0.00994629       0.00070155       0.01953354
H        7.76402304       8.86957475       6.25980961       0.00074089      -0.01417405       0.01900107
H        5.57413284       5.10111237       4.83389985       0.00340019      -0.00767314       0.00075501
H        7.20510699       4.96040744       4.16543087       0.00023195       0.00102364      -0.00851998
H        6.95189405       4.83113842       5.90380843       0.00950836      -0.01116096      -0.00828540
H        9.99298878       9.84014184       5.94861447      -0.00435918      -0.00406848       0.01239437
H       10.16854466       8.17493493       6.51576056       0.00309409      -0.00661577       0.00183804
H       10.43626731       8.56669818       4.80242437      -0.00620456       0.00375799       0.00301616
O        9.94446022       4.50341615      11.75310409       0.00022838       0.00834197      -0.00656387
C       11.28441715       4.74462631      12.10984310       0.00125450       0.00316685      -0.00603196
C        9.04435602       5.06916645      12.69956042       0.00307465       0.00743717      -0.00329849
C       12.18702141       4.10860556      11.07738368       0.00142054       0.01596467      -0.01230413
C        7.62841119       4.78348652      12.27903526       0.00088221       0.01218867       0.00029109
H       11.47431581       5.82718027      12.16736486       0.00180839       0.00225806       0.00754822
H       11.48078940       4.33513165      13.11305980       0.00368022      -0.01783185      -0.01525548
H        9.24833399       4.64326788      13.69507339       0.00354417       0.00563450      -0.00417230
H        9.22494181       6.15085134      12.76454172       0.00691555       0.00659734      -0.00212898
H       13.23638333       4.27513539      11.33419496       0.00222144       0.00966585      -0.00759422
H       11.99413375       3.03722493      11.00808379      -0.00949642       0.01940732      -0.02179178
H       12.00925942       4.53581222      10.09106374       0.00462515       0.02276669      -0.00928926
H        6.93915938       5.23920848      12.99100985       0.00250287       0.00968166       0.00374207
H        7.42539837       5.20329649      11.29451098      -0.00148932       0.01729827       0.00295931
H        7.46155009       3.70929387      12.22156020      -0.00125380       0.01258028      -0.00380061
O       10.99117916       5.51598688       6.45642248       0.00283851      -0.00264286       0.00557327
C        9.95038365       4.56848773       6.28741171       0.00501502      -0.00506969       0.00749868
C       11.63815436       5.78626237       5.21937899       0.00017959      -0.00153235       0.00459868
C        9.15485498       4.47813933       7.56535769       0.00373206      -0.00281306       0.00652689
C       12.75802000       6.76811047       5.45165504       0.00015309      -0.00122255       0.00215009
H        9.30847933       4.87973468       5.45584175       0.00551447      -0.00934553       0.00565186
H       10.38289407       3.59457264       6.02206256       0.00694197      -0.00525296       0.01100743
H       12.02507225       4.85036534       4.79529218      -0.00017208      -0.00102574       0.00342566
H       10.89435149       6.19472577       4.52127540      -0.00161266      -0.00175315       0.00652179
H        8.39056313       3.70353939       7.48665366       0.00614880      -0.00523937       0.00860840
H        9.79271901       4.23229035       8.41599740       0.00326985       0.00243062       0.00817069
H        8.66150016       5.42874341       7.76787106       0.00060014      -0.00347026       0.00164354
H       13.31993420       6.93655741       4.53200135      -0.00241847      -0.00071680       0.00081098
H       12.37923847       7.73005476       5.79172157       0.00059752      -0.00148980       0.00323655
H       13.44653850       6.38508270       6.20278095       0.00236437      -0.00095207       0.00008033
O        3.35525509      11.11990459       1.77950878       0.00532646      -0.00618939       0.00467330
C        4.23137450      12.14858341       1.35966198       0.00405705      -0.00523394       0.00376135
C        2.74726233      10.45933071       0.68303851       0.00499159      -0.00514266       0.00420777
C        4.86711280      12.77628803       2.57537643       0.00025064      -0.00347444       0.00441879
C        1.66897172       9.54055537       1.20197877       0.00077143      -0.00138399       0.00240445
H        5.00206190      11.73310505       0.69106963       0.00727132      -0.00543836       0.00752112
H        3.66614288      12.89644607       0.78417714       0.00570631      -0.00780213       0.00100765
H        2.31476914      11.20287480       0.00146929       0.01028466      -0.00630155       0.00068715
H        3.50919393       9.89249756       0.12924130       0.00490782      -0.00881982       0.00838488
H        5.57028288      13.55550645       2.27985418       0.00121263      -0.00397144       0.00658213
H        4.10740626      13.22173199       3.21780321      -0.00076519      -0.00298542       0.00146638
H        5.41082189      12.02695221       3.15244483      -0.00350562      -0.00369261       0.00628654
H        1.18856999       9.01936473       0.37209068       0.00334673      -0.00225554       0.00155202
H        2.08098524       8.79635672       1.88596938      -0.00447927      -0.00018921       0.00614755
H        0.90993806      10.11269787       1.73733252      -0.00033905       0.00182290      -0.00242545
O        6.88830456       9.69793299      11.43798918       0.00160323       0.00122786      -0.00659300
C        5.48414868       9.82472255      11.61311664       0.00151747      -0.00083321      -0.00720242
C        7.55709866      10.93783137      11.57555949      -0.00033236       0.00212590      -0.00657259
C        4.88680338       8.44776913      11.77597830       0.00408271      -0.00148177      -0.00460934
C        9.04715557      10.71003825      11.51159874      -0.00032276       0.00481814      -0.00986934
H        5.28534239      10.42580151      12.51293448       0.00003628       0.00069377      -0.00880677
H        5.04735846      10.35744625      10.75717878       0.00094433      -0.00350001      -0.00849080
H        7.23187568      11.62933020      10.78579101      -0.00332771       0.00245807      -0.00507703
H        7.27846268      11.39852205      12.53706851       0.00078720       0.00031613      -0.00552481
H        3.80170495       8.51962971      11.87066565       0.00417185      -0.00307349      -0.00392270
H        5.10956757       7.82088136      10.91331657       0.00437143      -0.00242104      -0.00366242
H        5.28722410       7.96499759      12.66601825       0.00532638       0.00045072      -0.00420246
H        9.57639367      11.65690245      11.62602482      -0.00128208       0.00444578      -0.00496715
H        9.36587654      10.04901300      12.31810600       0.00154041       0.00055133      -0.01405263
H        9.34675920      10.25607205      10.56774176      -0.00072201       0.01040016      -0.01259884
O        6.12640107       7.21359363       0.89202490      -0.00581709      -0.00649077      -0.00143436
C        7.10461124       7.94744590       1.61472507      -0.00371224      -0.00885251      -0.00228873
C        5.19404141       6.57374578       1.73839813      -0.00837070      -0.00198677      -0.00083482
C        7.91144828       8.75237263       0.63280323      -0.00324744      -0.00938082      -0.00246516
C        4.17643658       5.84548929       0.89543386      -0.00679475      -0.00494055       0.00006109
H        6.60395144       8.61088765       2.33614025      -0.00135216      -0.00873384      -0.00098306
H        7.74047796       7.25918624       2.19138862      -0.00437996      -0.01055881      -0.00378174
H        5.71716861       5.87625131       2.40731655      -0.01066461       0.00051713       0.00337934
H        4.70312355       7.32720644       2.37167244      -0.00916149       0.00121722      -0.00549272
H        8.75902739       9.21344984       1.13502589      -0.00097321      -0.01257113      -0.00319546
H        8.29044508       8.10931074      -0.16223756      -0.00686781      -0.00890145      -0.00440060
H        7.29312452       9.51535518       0.16386137      -0.00162446      -0.00660206       0.00002326
H        3.46631072       5.32171572       1.53694582      -0.01091097       0.00144972       0.00054090
H        3.62580772       6.54558058       0.26675538      -0.00238105      -0.00784071      -0.00684285
H        4.66405228       5.11345421       0.25066924      -0.00633310      -0.01065543       0.00711562
O        4.94789535      10.30142891       8.22485237      -0.00763097       0.00028622      -0.01016790
C        4.97367377       8.88761636       8.19610815      -0.00736266       0.00025192      -0.00325147
C        6.23790037      10.84940599       8.02656318      -0.00733589      -0.00081646      -0.01044396
C        3.57942188       8.36434531       8.43333227      -0.00694454       0.00081530      -0.00035515
C        6.15728111      12.33981957       8.22337670      -0.00644997      -0.00013828      -0.01606330
H        5.35315817       8.55142585       7.22089054      -0.00728925      -0.00465776      -0.00145724
H        5.67756019       8.51817728       8.95525106      -0.00726119       0.00435735      -0.00161144
H        6.94372292      10.39755014       8.73981877      -0.00868151       0.00159734      -0.00772822
H        6.59441173      10.60890189       7.01431090      -0.00603787      -0.00471684      -0.00893581
H        3.58806807       7.27349810       8.46492217      -0.00608204       0.00117168       0.00701507
H        3.19507949       8.73063920       9.38516617      -0.00748825       0.00686971      -0.00297919
H        2.90594335       8.67850026       7.63548088      -0.00702919      -0.00533421      -0.00255130
H        7.14401103      12.78987271       8.10529944      -0.00562926      -0.00184501      -0.01492165
H        5.47775304      12.79234229       7.50071940      -0.00416981      -0.00195147      -0.01920010
H        5.79200791      12.56687500       9.22504131      -0.00868334       0.00367596      -0.01793517
