196
Lattice="13.909627512582372 0.0 0.0 0.0 13.909627512582372 0.0 0.0 0.0 13.909627512582372" Properties=species:S:1:pos:R:3:forces:R:3 energy=-496662.1875 stress="-0.0002903490967582911 -0.0002016582147916779 0.0009839828126132488 -0.0002016582147916779 -0.0010493251029402018 1.53733139995893e-05 0.0009839828126132488 1.53733139995893e-05 -1.3952102563052904e-05" pbc="T T T"
Dy      13.63785695      14.19481143       2.56096300      -0.00195462      -0.01241004       0.01214969
F        8.95321974      13.84987346       2.02767323       0.00509477       0.03009167      -0.01136029
F       13.10778231      14.15415252       4.81970114       0.00351620       0.01321504      -0.02817315
F        8.40293922      13.63224555       8.70841672       0.00674462      -0.00391760       0.00157219
O        7.58536402       4.38351909       7.41014870       0.00257370       0.00680196       0.00092743
O        5.64541787       5.46406314       7.63406723      -0.00151336      -0.00320655       0.01272529
C        7.47541861       6.51293414       6.46247196      -0.01402575       0.00586861       0.00077856
C        6.79807809       5.41297112       7.22131864      -0.00318384       0.00247118       0.00530159
H        8.23907089       6.95888652       7.10482037      -0.01261765       0.01024905      -0.00394943
H        7.98232534       6.09575856       5.59293335      -0.01690669       0.00813206      -0.00199226
H        6.76920900       7.27583898       6.15010202      -0.02009216       0.00175354       0.00430905
H        7.22169865       3.69999810       8.06590567       0.00762913       0.00434293       0.00168100
O        7.28292254       5.40452739      10.23999036       0.00966710       0.00243010       0.00675547
O        6.83922559       6.51813877      12.12399301       0.00419414       0.00786954       0.00120032
C        5.09434567       5.23858763      11.09728497       0.01410639      -0.01629278       0.01521083
C        6.48228788       5.77052221      11.22155255       0.00972709      -0.00001940       0.00781545
H        4.50519860       6.03139370      10.62687355       0.00586991      -0.02636808       0.00834988
H        5.06556460       4.36463628      10.45271676       0.02137299      -0.02332240       0.02412994
H        4.68877607       5.04214490      12.08597378       0.01857153      -0.00927630       0.01845896
H        8.10910459       5.95866394      10.26903778       0.00364155       0.01242986      -0.00006287
O        0.16737339       2.20800782       5.61953573      -0.03706173       0.01351945      -0.01120235
O       -0.04806800       2.51579955       3.42886798       0.01533993       0.01791289      -0.01848969
C        0.88530520       4.29276130       4.74001860      -0.00508370       0.00783592      -0.00485264
C        0.29501810       2.93712602       4.58076710      -0.01485794       0.01531338      -0.01294147
H        0.22402831       4.88317777       5.37420157      -0.00386818       0.01237728      -0.00896478
H        1.83783416       4.23103542       5.26758906      -0.01106426      -0.00187884       0.00634126
H        1.01426894       4.78191849       3.78026396       0.01075164       0.00944249      -0.00445145
H       -0.35648764       1.16988863       5.29370084      -0.00363158       0.04888335      -0.00892213
O       10.48762182      12.49828779       9.49472370       0.00881228       0.00203145       0.00071478
O       10.54026775      11.39083271       7.58398517       0.00890714       0.00141239       0.00053549
C       12.00192164      10.66196376       9.33869729       0.00691682       0.00072867       0.00180712
C       10.94123739      11.58319525       8.79186996       0.00683928       0.00072068       0.00135027
H       12.02700123      10.71055315      10.42368185       0.00749435       0.00204604       0.00185642
H       11.83716732       9.64125504       8.99264634       0.00575551       0.00061469       0.00273281
H       12.96712151      10.98175199       8.93980777       0.00698741       0.00008954       0.00050500
H        9.24586151      13.20218236       8.93264265       0.00854576      -0.00128895       0.00171180
O        7.93350889       8.72115930       3.45251970      -0.00503156       0.02076343      -0.00645745
O        6.64498672      10.54632170       3.28764997      -0.02085721       0.00534040       0.01943207
C        7.85852964      10.17699809       5.31817191       0.00403230       0.01223919       0.00022310
C        7.42372682       9.86399841       3.92654774      -0.01467782       0.01654395      -0.00032264
H        7.00412618       9.96411865       5.96679753       0.00930956       0.01461776       0.00790940
H        8.70686078       9.58387754       5.64902886       0.00564450       0.01100169      -0.00824693
H        8.07781118      11.23764350       5.41642699       0.00637462       0.01223350      -0.00247454
H        7.46516962       8.48292482       2.62773653      -0.01349005       0.01912584      -0.00256363
O        2.47450599       2.32122859       2.53279041       0.00870627      -0.01149106      -0.02615820
O        3.17312201       4.42706321       2.29215377       0.00765136      -0.00019133      -0.00399600
C        4.82110400       2.68518964       2.51146260       0.01015717      -0.01117527      -0.01761057
C        3.45686311       3.26564979       2.41451353       0.01351526      -0.02349144      -0.01313329
H        4.98736158       2.35684253       3.53990227       0.00979928      -0.01841886      -0.01986706
H        4.93018560       1.80903941       1.87452243       0.01269596      -0.00667086      -0.02414741
H        5.55635279       3.44447219       2.27583602       0.01077068      -0.00910786      -0.01011054
H        1.63161983       2.80999150       2.58940157       0.01077694      -0.00948375      -0.02633400
O       10.72023894       9.14340116       6.70412516      -0.00065291       0.00012839       0.00424159
O       12.39528474       9.67645252       5.32005906       0.00483322      -0.00502038       0.00815156
C       10.99721404       7.81552003       4.75968586       0.00266597      -0.00458920       0.00837219
C       11.43452524       8.97626928       5.64043460       0.00153977      -0.00407934       0.00709021
H       11.54587115       6.91603607       5.04418858      -0.00045438      -0.00512210       0.01274500
H        9.93483627       7.61139483       4.86874824       0.00170074      -0.00229947       0.00521711
H       11.22898056       8.02032972       3.71595214       0.00678039      -0.00802325       0.00888319
H       10.77445775      10.38198886       7.17453574       0.00496388      -0.00270392       0.00149041
O       10.30614557       7.61898633      13.34408194      -0.00896180       0.00521475      -0.00240391
O       11.43619804       9.49988458      12.89304723       0.01026887      -0.00035697       0.01906432
C       12.08568219       7.44592487      11.80747212      -0.00518766       0.00245070       0.00273052
C       11.27860857       8.31528413      12.71696246      -0.00043737       0.00072241       0.00684369
H       12.48266033       6.58872695      12.35204798      -0.00558441       0.00045097      -0.00003491
H       11.43576771       7.06004405      11.02024030      -0.00739460       0.00528857       0.00321047
H       12.89169994       8.02648014      11.36955900      -0.00428507       0.00129426       0.00269275
H        9.81088120       8.25707435      13.87836142      -0.00483954       0.00477391       0.00166047
O        9.10608296       2.24235969       4.42320410       0.00634950       0.01361585      -0.00009811
O        7.37903031       3.65490067       4.26882007      -0.00537172      -0.00143635      -0.00496423
C        7.18341344       1.72080162       5.69764351       0.01728022       0.00430071       0.00233161
C        7.86124821       2.65647578       4.75357241       0.00347432       0.00630236      -0.00298521
H        6.88930679       0.83392943       5.13024869       0.02212289      -0.00106899       0.00908343
H        7.84860317       1.38838285       6.49304157       0.02271388       0.01322816       0.00100687
H        6.29986484       2.19288208       6.11634483       0.01549128      -0.00404266       0.00554644
H        9.38184572       2.80538148       3.68619423      -0.00970553       0.01381835      -0.00610691
O        4.31702929       7.53982075       8.50608528      -0.00614035      -0.00708669       0.01091787
O        2.71814760       7.28154053       6.95189133      -0.00017798      -0.00397742       0.00472009
C        2.40335359       8.89511616       8.70284253      -0.00021753       0.00346684      -0.00267637
C        3.13972520       7.82476879       7.95368365      -0.00228631      -0.00353855       0.00432932
H        2.44607990       8.71328133       9.77609232       0.00619471       0.01625405      -0.00088081
H        2.89028826       9.85038046       8.49996419      -0.00302584       0.00214283      -0.01649215
H        1.37374671       8.94719909       8.35976095      -0.00194301      -0.00180774       0.00182132
H        4.77151490       6.79569949       8.01401937      -0.00497550      -0.00762419       0.01225092
O       13.03810332      13.11122652      12.08476808       0.02891034      -0.02070174       0.00878102
O       12.94636870      13.77186634      14.19617347       0.02550657       0.00997467       0.00059155
C       10.95656998      12.87349157      13.14791365       0.02370256       0.00584526       0.00244905
C       12.37203937      13.29527596      13.21436643       0.02260898      -0.00277336       0.00002968
H       10.55276796      13.06215188      12.15354291       0.02536213       0.00454199       0.00070679
H       10.93703698      11.78624839      13.28139980       0.01862797       0.00606260       0.00548000
H       10.36255799      13.34506121      13.92696405       0.02446561       0.01146264      -0.00034326
H       13.96120165      13.36143351      12.23930455       0.02914077      -0.02623740       0.01063594
O        5.05721946       8.41969622       4.19872360       0.00170457      -0.01817983       0.01996207
O        3.37376617       7.66698825       2.93634273       0.00594628      -0.01730856       0.01404905
C        4.47996852       6.16571116       4.46814350       0.00279567      -0.02064383       0.01188397
C        4.21895556       7.45669667       3.77784746       0.00441658      -0.01837736       0.01586527
H        5.48503778       5.81369954       4.22640168       0.00098850      -0.02324472       0.00888190
H        4.42161119       6.31411783       5.54452135       0.00497698      -0.02329288       0.01236451
H        3.75502037       5.43399818       4.14375853       0.00028801      -0.01772185       0.01098736
H        4.82650535       9.24550849       3.73615062      -0.00209495      -0.01730683       0.02178457
O        9.19954454       2.87685543       9.79090223       0.00022024      -0.00203145       0.01337576
O        7.05903459       2.56993826       9.15761964       0.00392556       0.00358172      -0.00083077
C        7.84140652       1.63687999      11.22317690      -0.01036904      -0.00524598       0.00053364
C        7.97926181       2.40447109       9.95152655      -0.00107706      -0.00033581       0.00454873
H        8.27371512       0.65113214      11.03837237      -0.01880917      -0.00798969      -0.00488316
H        8.41777957       2.11445571      12.01446054      -0.00763688      -0.01494484       0.00421087
H        6.79983833       1.53061480      11.50632422      -0.01180348       0.00105204      -0.00176011
H        9.39317663       3.23504929       8.89113233       0.00620030      -0.00264060       0.01380657
O        4.24864907       9.63147978       1.12138198      -0.03059667      -0.00177938      -0.00421424
O        3.00162565      11.38027695       0.54558789      -0.02302492       0.00339395      -0.02441140
C        5.40463107      11.54689379       0.36743279      -0.01501077      -0.00998256      -0.00478508
C        4.10725798      10.88510695       0.67770178      -0.01140004      -0.00661665      -0.01117659
H        6.05153366      11.50697740       1.24475240      -0.02131635      -0.00748887       0.00054705
H        5.90778442      11.00329537      -0.43498557      -0.01028605      -0.01564041       0.00109378
H        5.23860199      12.57746015       0.07102988      -0.00898220      -0.01061776      -0.01113550
H        3.39308751       9.25376051       1.41700992      -0.03448254       0.00482385      -0.01365340
O        2.16545309       3.84277072      13.69916103       0.00187575       0.00199938      -0.00737835
O        0.16381994       4.83563615      13.41396875       0.01083635       0.01168919      -0.01535091
C        0.24550469       2.48865590      13.93643028      -0.00642097       0.01467931      -0.00892266
C        0.81241213       3.85836681      13.66606439      -0.00018466       0.01258719      -0.01247804
H       -0.06078428       2.05103903      12.98528874      -0.01232733       0.01391804      -0.00662470
H        0.99234029       1.83471664      14.39564391      -0.01138693       0.01034348      -0.00869367
H       -0.65344680       2.59520515      14.54776335      -0.00385442       0.02082985      -0.00616729
H        2.50834045       4.75131123      13.74932158       0.00703502       0.00030315      -0.01307266
O        7.96409978       8.67823471      11.26283014      -0.00530852       0.01032752      -0.00259483
O        9.04904696       7.29516993       9.87441426      -0.00851515       0.01322579      -0.00836053
C        8.48119948       9.48966438       9.11495398      -0.00685605       0.01648593      -0.00065434
C        8.54758433       8.39074068      10.11242726      -0.00763786       0.01386905      -0.00387929
H        7.47245929       9.47201184       8.69276448      -0.00830293       0.02162487       0.00254449
H        8.61272346      10.46616038       9.57477974      -0.00152092       0.01463716       0.00175819
H        9.19348035       9.31614618       8.31610809      -0.00983447       0.01605303      -0.00301312
H        7.77696362       7.82731060      11.74846745      -0.00392909       0.00904399      -0.00353274
O        2.64151203       2.49513390      11.23959509       0.00476210      -0.00200999      -0.00236279
O        4.61147130       1.82131148      12.05920870      -0.01482207      -0.03146288       0.01238817
C        3.90729059       1.02052762       9.89453700       0.00887091       0.00510851      -0.00596952
C        3.80079552       1.79845477      11.16491018       0.00142229      -0.01105942       0.00660282
H        3.20117270       0.18844434       9.93882288       0.01209033       0.00154251      -0.01888855
H        3.62342171       1.64135895       9.04605474       0.01129332       0.01381345      -0.00014745
H        4.91685499       0.64405579       9.76754420       0.01094964       0.00976149      -0.00415054
H        2.66152860       2.95937473      12.09711655      -0.00048885      -0.01060989       0.00275517
O        3.82269430      10.94818875       4.16862412       0.00916547      -0.01288030      -0.00503296
O        3.66375548      11.13670126       6.39845503       0.00495070       0.03369233      -0.00087965
C        1.86718837      10.08791990       5.17662807       0.00650239       0.00804490       0.00472216
C        3.18110782      10.76713627       5.35562462      -0.00170654       0.00710571      -0.01280832
H        1.08480279      10.61552369       5.72151513       0.00674121       0.00138827       0.01238807
H        1.59219435       9.99427817       4.12918903      -0.00101036       0.00961687       0.00528654
H        1.93648946       9.09143932       5.62012100       0.01352217       0.00529471      -0.00207160
H        4.66975452      11.40148007       4.32455996       0.01175964      -0.01795444      -0.01440588
O        6.39241877       7.69411931       1.21716433      -0.02181745       0.00671852       0.00843774
O        4.92521828       6.16385769       0.47585140      -0.00963008       0.00059198      -0.00734812
C        7.15755283       5.45934500       1.05094741      -0.00768709       0.01174229       0.00531387
C        6.03232391       6.42630453       0.86185459      -0.00924766       0.00665827       0.00245848
H        8.07321030       5.84697387       0.60642188      -0.00652158       0.01780945       0.01283623
H        7.33464350       5.30018156       2.11781253      -0.01394461       0.00833331       0.00584203
H        6.89962336       4.51048497       0.58978842       0.00054172       0.01195104       0.00004696
H        5.62147083       8.28174252       1.08957795      -0.02581304       0.00178555       0.00827637
O        1.47185257       3.57907277       7.81407374      -0.01620163      -0.01792145       0.00354898
O       -0.47708311       3.54332654       8.92263432      -0.01619971       0.00935441       0.00365506
C        1.15114178       5.22074766       9.48342190       0.00907722      -0.01471114       0.00445819
C        0.61312832       4.03203353       8.74919072      -0.00912833      -0.00612688       0.00482628
H        2.17752096       5.04841827       9.80395075       0.01231912      -0.02308699      -0.01057878
H        1.16666746       6.06963193       8.79623564       0.00506185      -0.01256254       0.00669722
H        0.51206686       5.44402131      10.33304299       0.02152900      -0.01297832       0.01355010
H        0.99674154       2.91016441       7.28513714      -0.02605423      -0.01178107       0.00649916
O       11.33637130      13.42822878       2.67073313      -0.00287956      -0.01935279      -0.02081608
O       12.99950105      11.97229001       2.77328576      -0.00809634      -0.02488720      -0.02780898
C       10.80793616      11.07334302       2.63848579      -0.01751560      -0.01598018       0.00487084
C       11.76090900      12.21105141       2.71087957      -0.00851569      -0.02130008      -0.01685490
H       10.97909554      10.44871577       3.51503845      -0.01610353      -0.00722910       0.01133746
H        9.77404598      11.40376105       2.57483699      -0.01571816      -0.00461138       0.01113865
H       11.07139693      10.47374367       1.76379928      -0.03071947      -0.02814085       0.00922644
H        9.84813075      13.68682500       2.34892490       0.00105059       0.00793423      -0.01253110
O        1.91549714      13.30675433       1.77634839       0.00053006      -0.01761764      -0.00446224
O        3.98837212      13.34204201       2.66515854      -0.01313442      -0.01094755      -0.01213469
C        2.07075186      13.57260441       4.11517977       0.02113871       0.00548954      -0.00983125
C        2.80907790      13.40005132       2.82500505       0.02457696      -0.00537893       0.00442940
H        1.65329859      14.58355844       4.16233541       0.02087156       0.01479392      -0.00629794
H        1.27303736      12.82584408       4.20388424       0.00485876       0.01020485       0.01105400
H        2.73592865      13.48446575       4.96951769       0.02147120       0.00545867      -0.00123501
H        2.35674107      12.71282316       1.08818967      -0.00811026      -0.00660908       0.00216267
O       11.67937773       4.24096790       5.88075373      -0.02490681      -0.00181371       0.00032592
O       10.34148692       3.54672218       7.50922728      -0.00544596      -0.01037151       0.01028468
C       11.41416345       5.69649247       7.73405445      -0.01169236      -0.00810957       0.00727996
C       11.08418913       4.39815139       7.08384916      -0.01485980      -0.00881618       0.00698802
H       12.45051045       5.97468576       7.54958549      -0.01398785      -0.00546439      -0.00083083
H       10.78549637       6.48647571       7.31588083      -0.01723140      -0.00878435       0.01452227
H       11.21751670       5.62865821       8.79863582      -0.00184830      -0.01177320       0.00888568
H       11.37334107       3.38065050       5.55125698      -0.02822468      -0.00059479      -0.00025009
O        0.30427651       6.69053607       1.48825104      -0.00965300      -0.00112280      -0.00035346
O        0.94546173       8.83039375       1.72679039       0.04376769      -0.01627457      -0.01253784
C        0.24925199       7.55771956       3.66071399       0.00396688       0.01405025      -0.00647748
C        0.54219878       7.80401696       2.22012806       0.01522186      -0.00355500      -0.00641561
H       -0.42540436       6.71365179       3.76895603       0.00250898       0.01576790      -0.00134606
H        1.19200157       7.31061654       4.15166956       0.00021000       0.02049353       0.00404428
H       -0.17584346       8.44198790       4.13334065       0.00016305       0.01871541      -0.01787132
H        0.53151311       6.87095373       0.56585124      -0.00185856      -0.01370919      -0.00085467
