196
Lattice="14.025046553322902 0.0 0.0 0.0 14.025046553322902 0.0 0.0 0.0 14.025046553322902" Properties=species:S:1:pos:R:3:forces:R:3 energy=-583415.375 stress="0.0012232441222295165 0.0001690499993856065 0.00010017538443207741 0.0001690499993856065 -0.0005769303534179926 0.0005541607970371842 0.00010017538443207741 0.0005541607970371842 -0.001845514285378158" pbc="T T T"
Dy      13.41897922      10.55626389      -0.70233880      -0.00314131       0.00201416       0.00082302
O        4.02818822      13.79102657      13.84081767      -0.01160908      -0.00172269       0.00942558
O        5.89099210      13.29053240      12.09967036      -0.00961256       0.00599441       0.00959945
O        5.38507500      11.54165678      13.96378750      -0.00890560      -0.00015140       0.00400233
O        6.55567998      13.79075289      14.56184910      -0.01215613      -0.00003803       0.01131737
Mn       5.45673230      13.10608887      13.61739439      -0.01022821       0.00100434       0.00859883
O       12.31266924      12.55216984      13.40654936      -0.01763481      -0.00701520       0.00146919
O       11.42093471      13.19806118      11.02044959       0.01527166       0.02204388      -0.00321990
O       13.65099811      11.72450852      11.40968560       0.01003879       0.02015363       0.01236707
O       13.57315606      14.37818163      11.91282309      -0.00316155       0.01179433       0.04401919
Mn      12.71930098      13.05519913      11.86935976       0.00153959       0.01071894       0.01501369
O       11.61995334      13.45383987       8.26649757       0.00653219      -0.01294303      -0.01157792
O       10.19773430      11.89846237       6.76679978      -0.01422036      -0.00875461       0.00491166
O        9.14396388      12.91676373       8.90274331       0.00773692       0.00572729       0.00800514
O       10.97166119      11.04511086       9.09937477      -0.00288540      -0.00518441       0.00276697
Mn      10.48508124      12.33719608       8.27342621      -0.00066550      -0.00551148       0.00104293
O        4.79398898       9.40315757       6.28839959       0.00356823       0.00039691      -0.00376293
O        2.98369710       8.75122544       7.27078266       0.00466700      -0.00182193      -0.00303596
O        4.38205620       7.17955975       6.44541568       0.00405350       0.00011623      -0.00706948
C        6.07060955       9.12246364       5.63384439       0.00249238       0.00141788      -0.00634951
C        6.71901840      10.43377884       5.29247140       0.00270286       0.00167996      -0.00476752
C        4.10285543       8.33854922       6.64841161       0.00411662      -0.00049561      -0.00494036
C        2.15611743       7.68868622       7.74951557       0.00647938      -0.00303818      -0.00240927
H        6.67782343       8.53120434       6.31728481       0.00337300      -0.00006592      -0.00832891
H        5.86918278       8.52190312       4.75248577       0.00076188       0.00300553      -0.00707078
H        7.63588073      10.22557786       4.73971859       0.00194146       0.00239396      -0.00597563
H        6.06766092      11.04079821       4.66289407       0.00238602       0.00325578      -0.00332034
H        6.99423854      11.00343481       6.17779248       0.00367969       0.00033601      -0.00433546
H        1.86578280       7.01923239       6.94106198       0.00758386      -0.00387792      -0.00207642
H        1.27745766       8.17248314       8.16370456       0.00565514      -0.00449398      -0.00254089
H        2.68091031       7.11874112       8.51634905       0.00763869      -0.00162518      -0.00229236
O       12.03557702      10.20430076       1.37058444      -0.00118768       0.00228366       0.00317699
O       10.16255479      11.21107098       0.92848045      -0.00025079       0.00095440      -0.00213483
O       10.37693089      10.17617444       2.93175644      -0.00353064       0.00593117       0.00049198
C       12.83640641       9.31403359       2.20820108      -0.00121358       0.00478261       0.00552410
C       13.29827883       8.15969745       1.35546842      -0.00265521       0.00212702       0.00832370
C       10.77240594      10.52156528       1.85805016      -0.00215173       0.00263917       0.00169575
C        8.83523725      11.70071587       1.30390983       0.00134128       0.00713304      -0.00637275
H       13.66694841       9.90897244       2.59133384      -0.00046253       0.00552025       0.00261465
H       12.21892831       8.99512629       3.04114310      -0.00025976       0.00771807       0.00736281
H       13.90161018       7.47231941       1.94832957      -0.00025791       0.00457855       0.00880310
H       12.45072219       7.62184075       0.93572442      -0.00331476      -0.00016721       0.01294547
H       13.95512319       8.46693322       0.53072841      -0.00605986       0.00059876       0.00522302
H        8.17434089      10.85684426       1.48624387      -0.00599840       0.01047122      -0.01855184
H        8.49371654      12.29179958       0.46420787       0.01134489       0.01614997      -0.00368133
H        8.91592694      12.30838469       2.20158735      -0.00082318      -0.00121549      -0.00082889
O       11.60706516       3.50398046       2.77692120      -0.00413471       0.00606030      -0.00111090
O       10.04867803       2.41341437       1.73544247      -0.00466838       0.00519177       0.00055379
O        9.71217886       2.98591431       3.90175041       0.00119627      -0.00275926       0.00354981
C       12.10510617       4.10003323       3.99331201      -0.00172424       0.00316793      -0.00080742
C       13.54279713       4.48231962       3.75848376      -0.00273442       0.00494932      -0.00298668
C       10.37758970       2.97123680       2.90261525      -0.00218642       0.00239906       0.00118101
C        8.72709548       1.83457555       1.70961713      -0.00307261       0.00164170       0.00304160
H       11.48245419       4.96296373       4.23977533      -0.00191411       0.00200954       0.00296270
H       12.00010241       3.37895812       4.80525410       0.00058297       0.00091285      -0.00251120
H       13.93303763       5.00464141       4.63243034      -0.00084993       0.00272822      -0.00250848
H       14.15728945       3.60089118       3.57725534      -0.00244837       0.00594971      -0.00686519
H       13.63664169       5.14190713       2.89556389      -0.00504300       0.00739786      -0.00131628
H        8.57257132       1.18860426       2.56973274       0.00005791       0.00193702       0.00369874
H        8.66595768       1.26177396       0.79122821      -0.00295475       0.00120743       0.00337851
H        7.98146105       2.62906376       1.72306780      -0.00505373      -0.00025314       0.00369813
O        7.67032131       5.04239577       4.59948051      -0.00195344      -0.00027734      -0.01175014
O        9.11265791       5.80699593       3.17011533      -0.00078465      -0.00026078      -0.01029883
O        8.13453481       7.25757536       4.59821176       0.00485822      -0.00198126      -0.00496829
C        6.77556727       5.26560198       5.72064512       0.00209108      -0.00172663      -0.00824278
C        6.09868297       3.95809835       6.02752594       0.00454491      -0.00247085      -0.00644474
C        8.28107463       6.13828790       4.17983504       0.00082135      -0.00060987      -0.00863302
C        9.87609489       6.91847871       2.70008808       0.00370619      -0.00167140      -0.00615636
H        7.37604441       5.62693079       6.55777778       0.00493875      -0.00186615      -0.01025420
H        6.06475231       6.04588754       5.45790641       0.00063726      -0.00207970      -0.00521468
H        5.37039981       4.11535533       6.82415186       0.00756960      -0.00362880      -0.00352266
H        5.56789131       3.57769293       5.15451036       0.00138135      -0.00249900      -0.00448786
H        6.81614303       3.20529562       6.34993954       0.00647761      -0.00191851      -0.00967969
H        9.23232388       7.66246963       2.23011878       0.00704488       0.00148225      -0.00568211
H       10.57891566       6.49632558       1.98594093       0.00362746      -0.00241378      -0.00560378
H       10.39760567       7.40071333       3.52684193       0.00362796      -0.00533055      -0.00402993
O        9.55373774       3.40934110      12.39602328       0.00052249      -0.00448024      -0.00985466
O        7.46005977       3.41513684      12.94365473       0.00057980      -0.00289319      -0.00952658
O        8.43770887       1.43899578      12.41193974       0.00348520      -0.00566530       0.00704826
C       10.75283908       2.68596577      12.01824829       0.00192541      -0.00648081      -0.00155845
C       11.84219964       3.70948085      11.84034505       0.00376201      -0.00815809       0.00000039
C        8.47800971       2.62996940      12.56668378       0.00166015      -0.00453305      -0.00319386
C        6.22719196       2.70382991      13.18551009       0.00138189      -0.00244421      -0.00413764
H       10.98832854       1.97522048      12.81140676      -0.00239380      -0.00344950       0.00230289
H       10.55099642       2.12301025      11.10726680       0.00581948      -0.00983265      -0.00017190
H       12.74843775       3.21347998      11.49315362       0.00538021      -0.01039925       0.00804580
H       11.54856387       4.46125191      11.10578212       0.00906388      -0.01132864      -0.00513782
H       12.06174336       4.21007486      12.78474760      -0.00132039      -0.00422340      -0.00091909
H        5.87980228       2.22632854      12.27229339       0.00009833      -0.00681181      -0.00117457
H        5.52446379       3.46385371      13.51531922       0.00162798      -0.00110903      -0.00634949
H        6.36744645       1.93792217      13.94658485       0.00308333       0.00099066      -0.00112405
O       10.18739665       5.98179703       7.48549520       0.00833002      -0.00773272       0.00424138
O       10.22539188       7.98667015       6.71591549       0.00461030      -0.00892970       0.00176784
O       12.20048462       6.93050177       7.05412660       0.00740588       0.00004497       0.01392248
C       10.86388253       4.77315168       7.90133365       0.00895220      -0.00696799       0.00524625
C        9.80279271       3.81853550       8.36579959       0.00936466      -0.00820002       0.00378382
C       10.98823890       6.97204586       7.08455835       0.00623703      -0.00516753       0.00749449
C       10.92900768       9.15703664       6.26025743       0.00219938      -0.00665902       0.00466491
H       11.41836566       4.37797909       7.04892512       0.01027429      -0.00662196       0.00594342
H       11.58105288       5.02959027       8.68302477       0.00782460      -0.00646496       0.00618273
H       10.24215051       2.85468197       8.61864175       0.00961314      -0.00846757       0.00198279
H        9.27713062       4.20883932       9.23872916       0.00914163      -0.01035665       0.00464454
H        9.08237789       3.63720675       7.57169001       0.00920592      -0.00720436       0.00373754
H       11.39706554       9.65943689       7.10515420      -0.00224569      -0.00549109       0.00640148
H       10.17538207       9.80244958       5.82862042       0.00174549      -0.00869390       0.00208407
H       11.68022038       8.87529540       5.52098986       0.00575018      -0.00427666       0.00738621
O        3.46359740       8.73857114       3.65794159      -0.00922935      -0.00822645       0.00609820
O        4.95410846       7.45261662       2.78130221      -0.01114217      -0.00829373       0.00312562
O        2.90963884       6.58037220       3.23408799      -0.01425499      -0.00440490      -0.00529757
C        2.11821706       8.97230538       4.12844777      -0.01002155      -0.00611025       0.00284737
C        2.03273984      10.39071111       4.62710556      -0.00827329      -0.00595134       0.00266816
C        3.69896448       7.49240471       3.23627456      -0.01181501      -0.00721711       0.00064241
C        5.38954825       6.16784710       2.31175282      -0.01347981      -0.00749989      -0.00164657
H        1.44038809       8.78726003       3.29069196      -0.00778323      -0.00433259       0.00095057
H        1.88853622       8.24160174       4.90427431      -0.01395941      -0.00574422       0.00208944
H        1.01432607      10.58775492       4.96757626      -0.00836675      -0.00435511       0.00139403
H        2.70631573      10.54215201       5.46598754      -0.00921127      -0.00693851       0.00365978
H        2.29305170      11.09757109       3.84241127      -0.00623747      -0.00643925       0.00309704
H        5.35908545       5.43819443       3.11775133      -0.01462293      -0.01014075      -0.00420633
H        6.41030908       6.31727578       1.97388419      -0.01326102      -0.00824458      -0.00119772
H        4.76367188       5.82910193       1.48847164      -0.01434290      -0.00330257      -0.00263086
O        6.29647419      10.42056780      11.52300447      -0.00715619       0.00833526      -0.00008756
O        4.14843169      10.34691621      11.47969256      -0.00704165       0.00805491      -0.00240269
O        5.28318316       8.54413190      12.28239951      -0.00761452       0.00765824      -0.00241303
C        7.58760123       9.96182577      11.97880379      -0.00799707       0.01065272       0.00411969
C        8.59246055      11.01892802      11.60839827      -0.00881672       0.01106441       0.00289840
C        5.25885889       9.65880959      11.81084325      -0.00737084       0.00806290      -0.00157166
C        3.00144556       9.57824545      11.12780672      -0.00753681       0.00900838      -0.00177948
H        7.51627415       9.79828317      13.05742013      -0.01063326       0.01387215       0.00423723
H        7.80442379       9.01137424      11.48649883      -0.00593374       0.00934207       0.00734437
H        9.57702945      10.74208158      11.99351291      -0.00968906       0.01560969       0.00852792
H        8.67169146      11.12239203      10.52785434      -0.00461618       0.00600298       0.00298303
H        8.31446448      11.98568210      12.02601535      -0.01304221       0.01215565      -0.00280377
H        3.05430690       9.34275968      10.06422861      -0.01392386       0.01922628      -0.00414842
H        2.13808029      10.21899515      11.31758501      -0.00798504       0.00460549       0.00986534
H        2.94975298       8.66123733      11.70943530      -0.00164922       0.00373623      -0.00991522
O        1.73961225      10.28785200       0.35182570      -0.00428206      -0.00308549      -0.00037009
O        0.81971302      12.21081983       0.60627030      -0.00023723      -0.00073230      -0.00939751
O        2.78278724      11.82577624       1.68520109      -0.01516876      -0.00648537      -0.00107327
C        2.95778237       9.42620416       0.42441633      -0.00715297      -0.00571449       0.00197053
C        2.55475411       8.00228157       0.18538879      -0.00672090      -0.00355706      -0.00747247
C        1.90848491      11.49775465       0.95984479       0.00014579      -0.00075346       0.00287557
C        0.85096593      13.61847742       0.99946678      -0.00465705      -0.00072777      -0.00793713
H        3.63330543       9.82557869      -0.32151355      -0.00183797      -0.00300227       0.00790140
H        3.40025381       9.59219542       1.40076204      -0.01187271      -0.01069956       0.00594002
H        3.45995417       7.43199507      -0.02207076      -0.00762513      -0.00389709      -0.00953890
H        2.05395767       7.56233939       1.04424460      -0.00963485      -0.00920784      -0.01151744
H        1.91006965       7.90099987      -0.69132158      -0.00546066       0.00304753      -0.00977893
H        0.97507359      13.67208513       2.07685788      -0.01796861      -0.00328076      -0.00546128
H       -0.10425235      14.01367807       0.67630099       0.00037131       0.00004983      -0.02037050
H        1.69143335      14.08044496       0.48977361       0.00158739      -0.00143061       0.00179242
O        5.03311339      10.42589704       8.89819519       0.00215924      -0.00119233      -0.00221837
O        5.63721776       8.37774314       9.06291359       0.00381377      -0.00115454      -0.00415653
O        7.23796264       9.94444580       8.66086813       0.00262976       0.00077182       0.00042567
C        5.29599491      11.84241155       8.79433861       0.00243157      -0.00131702      -0.00294924
C        3.94951644      12.51263881       8.69751472       0.00261658      -0.00041029       0.00289985
C        6.09439938       9.63507783       8.85653075       0.00301492      -0.00062579      -0.00185812
C        6.63637254       7.35151263       9.11610297       0.00515057       0.00021158      -0.00365080
H        5.84155285      12.14882012       9.68790969       0.00581837      -0.00171660      -0.00500602
H        5.91410168      12.01655889       7.91433341      -0.00045246      -0.00166222      -0.00498247
H        4.07945972      13.58913400       8.58886642       0.00315484      -0.00025485       0.00421507
H        3.39714450      12.14006379       7.83447233      -0.00126733       0.00169083       0.00452556
H        3.36397582      12.33428643       9.59830087       0.00657880      -0.00120897       0.00515288
H        7.51171856       7.63189505       8.53387024       0.00403178       0.00016159      -0.00533004
H        6.16906067       6.45972939       8.70631612       0.00567165      -0.00099465      -0.00139375
H        6.91413744       7.18142668      10.15653046       0.00704594       0.00236833      -0.00379351
O       10.35692183       7.58125634      11.74647603       0.00447208       0.00434461      -0.00066900
O       11.77127964       8.16417704      10.24821809       0.00542897       0.00663903      -0.00081939
O       12.14212961       8.81332927      12.37960389       0.00295296       0.00447960      -0.00092781
C        9.98704439       7.33614092      13.13373856       0.00472111       0.01252481       0.00114757
C        8.67092426       6.60699095      13.13325442       0.00874034       0.00625071       0.00671297
C       11.46181810       8.23366285      11.50671019       0.00418037       0.00520092      -0.00079009
C       12.94158007       8.88129433       9.79753770       0.00558910       0.00981170       0.00398338
H       10.77806378       6.72084976      13.56836253       0.00802389       0.02043182       0.00605734
H        9.94821965       8.29436483      13.65612923      -0.00017731       0.01638210      -0.00657241
H        8.46866936       6.23953047      14.14007549       0.00753131       0.01968897       0.01112649
H        7.84528761       7.24828596      12.83024183       0.00680223      -0.00137597      -0.00358370
H        8.71764419       5.73638140      12.48375166       0.01423329      -0.00202587       0.01852244
H       12.73718680       9.94936540       9.81749612       0.00444826       0.00948375       0.00849485
H       13.07951366       8.53080013       8.78006616       0.00696449       0.01487359       0.00255933
H       13.79961985       8.61330701      10.41833808       0.00494881       0.00746011       0.00368419
O        7.86773471       1.39348788       7.68478418       0.00561157      -0.00267923      -0.00344402
O        9.50726451       1.10674367       6.31205037       0.00557119      -0.00635025      -0.00261624
O        7.66215735      -0.18982700       6.07424724       0.00400436      -0.00440657      -0.00154853
C        6.65103508       0.90034090       8.27304180       0.00649115      -0.00218645      -0.00151253
C        6.35105572       1.73612615       9.48740817       0.00920981      -0.00254974      -0.00067371
C        8.29246399       0.66942740       6.63491157       0.00508010      -0.00434589      -0.00250989
C       10.12145262       0.40442704       5.22174388       0.00506353      -0.00798680      -0.00180826
H        5.85598474       0.94195802       7.52379640       0.00511175      -0.00154016       0.00004980
H        6.82011366      -0.13843059       8.54520575       0.00650364      -0.00230139      -0.00195907
H        5.43520655       1.37606069       9.95867016       0.00983547      -0.00214364       0.00071096
H        7.15256262       1.63662887      10.21773257       0.01039058      -0.00359325      -0.00215316
H        6.22415962       2.78834922       9.22672105       0.00966293      -0.00233209       0.00025083
H       10.27069464      -0.63774028       5.50273165       0.00337181      -0.00800717      -0.00112912
H       11.07070241       0.90577642       5.06128714       0.00565857      -0.00929202      -0.00195530
H        9.49590729       0.47655372       4.33613807       0.00545287      -0.00793090      -0.00212091
