191
Lattice="13.239837027409472 0.0 0.0 0.0 13.239837027409472 0.0 0.0 0.0 13.239837027409472" Properties=species:S:1:pos:R:3:forces:R:3 energy=-497993.90625 stress="0.0007864758954383433 -0.00019259319378761575 -0.00022294013615464792 -0.00019259319378761575 -0.0012203980004414916 -0.00019686079758685082 -0.00022294013615464792 -0.00019686079758685082 -0.0010797121794894338" pbc="T T T"
Dy      13.65600435      11.53354092      -1.18729588       0.01552302      -0.01525101       0.01400602
P        3.83839182      11.86347897      10.86408937      -0.01332369       0.00477467      -0.00768799
F        3.43201206      11.04496478      12.18965444      -0.03240053       0.00329542      -0.01211198
F        3.37412476      10.61917077      10.00639187      -0.00411665       0.00592047      -0.01329788
F        0.24786430       9.47307989      12.18812331      -0.03376084      -0.00800353       0.03322517
F        4.37719916      13.05765727      11.77357010      -0.01792565      -0.00022058       0.00116763
F        4.25751093      12.65557654       9.55245234       0.00544197       0.00398145      -0.00115162
F        2.33262982      12.51414193      10.82182285      -0.00931108       0.00657895      -0.02251786
P       11.58868337      11.88005615       9.63961728       0.02188546      -0.00364491       0.00825822
F       12.98658948      10.99174796       9.69699655       0.01869234      -0.00855613       0.01055548
F       10.28865721      12.79595422       9.70700883       0.02347623       0.00028329       0.00644735
F       11.95402948      12.36838619       8.18001037       0.02946270      -0.00022946       0.01179078
F       11.31355985      11.36932672      11.18591005       0.01625700      -0.00330109       0.00600138
F       12.49310081      13.09305945      10.30829524       0.02453788      -0.00609891       0.01176079
F       10.78096921      10.62833228       9.09111332       0.01987292       0.00045836       0.00373673
P       11.87902122      11.23405165       4.40171714       0.00026518      -0.00272959       0.00139608
F       10.48767842      11.89956584       4.49498016      -0.02267194      -0.01268563      -0.01376703
F       12.01219933       9.90622045       3.61778334       0.01710057      -0.01865572       0.02453464
F       12.68867186      12.86773175       0.10019075       0.01980144       0.00173497      -0.00157648
F       13.13945739      11.82683786       5.07901222      -0.01985013       0.00879923      -0.02074641
F       11.56833277      10.41874419       5.72758676      -0.01191570       0.01938936       0.00887325
F       12.19722760      12.05084759       3.08956701      -0.02693307      -0.02600393      -0.01624231
O       11.51110555       1.47626248       4.11256156      -0.00288492      -0.01551995      -0.01092541
C       10.23497094       2.72130712       2.55698409      -0.00156754      -0.00312567      -0.00098586
C       11.68043999       3.21532988       2.52814923      -0.00032076      -0.00723344      -0.00271398
C       10.19400949       2.00405740       3.89818066       0.00031358      -0.00559971      -0.00261438
C       12.40265150       2.01620128       3.12133834      -0.00118074      -0.01011765      -0.00707868
H        9.50550758       3.52784972       2.50072275       0.00084166      -0.00078282       0.00290149
H       10.06056380       2.01528630       1.74001037      -0.00579650      -0.00051418      -0.00221455
H       12.03495880       3.47599960       1.53190364      -0.00172728      -0.00612165      -0.00330174
H       11.78047479       4.09285683       3.16988309       0.00324263      -0.00868377      -0.00178385
H        9.95437571       2.71212744       4.69887512       0.00871957      -0.00581154      -0.00033212
H        9.47758730       1.17827481       3.93429089      -0.00524393      -0.00120535      -0.00059958
H       12.59228290       1.25841044       2.35123425       0.00069256      -0.00686586      -0.00954008
H       13.34269704       2.26787374       3.61989775      -0.00211188      -0.01120572      -0.00446007
O        9.08621993      10.77189542       1.17590085      -0.00259891      -0.00354865       0.00164530
C        7.76035033      12.73554089       1.51003605       0.01109546       0.00510520       0.00235371
C        6.91701415      11.46815134       1.66991553       0.00345314       0.01082874       0.00566936
C        9.11171333      12.20366713       0.99523805       0.00738698      -0.00349960       0.00192093
C        7.98989988      10.45379759       2.02147052      -0.00257814       0.00380753       0.00370052
H        7.30963060      13.46383125       0.83470000       0.01506515       0.00711675       0.00187415
H        7.88342024      13.22252794       2.47937474       0.01508842       0.00598430       0.00163054
H        6.14466440      11.55430492       2.43349261       0.00557786       0.01612763       0.00656778
H        6.43643610      11.19555410       0.72555322      -0.00009500       0.01274566       0.00666520
H        9.26892820      12.39077899      -0.06937447       0.00856213      -0.00421463       0.00231308
H        9.96289659      12.62875108       1.53348278       0.00997207      -0.00944814       0.00248241
H        8.26511286      10.55621376       3.08319425       0.00054507       0.00288084       0.00352430
H        7.71263313       9.41372056       1.83480206      -0.00929043       0.00614330       0.00520843
O        1.93173494       4.73419207      11.37990852       0.00967013      -0.00063026      -0.00236094
C        2.97069480       2.68980652      11.83107535      -0.00351924      -0.00463295       0.00694516
C        1.53069580       2.38029661      11.41563428      -0.00259629       0.00107741      -0.00029247
C        2.82426695       4.12552417      12.30177683       0.00066772      -0.00342667       0.00405073
C        1.07513809       3.71822810      10.82401621       0.00347260       0.00332958      -0.00006009
H        3.35912564       2.02371826      12.59908798      -0.01057449      -0.00507653       0.00954452
H        3.63823043       2.64072385      10.96642161       0.00111419      -0.00871012       0.01027834
H        1.45177748       1.57084485      10.69278424      -0.00255040       0.00234629      -0.00085403
H        0.93045434       2.10745704      12.28831143      -0.00717641       0.00140487      -0.00309300
H        2.40387569       4.15027977      13.31926612      -0.00590596      -0.00051759       0.00136453
H        3.75259643       4.70202200      12.30321571       0.00307027      -0.00787723       0.00938327
H        1.18901507       3.74204878       9.73587808       0.00218190       0.00293519      -0.00030887
H        0.03745674       3.95866770      11.06794607       0.00513953       0.00828525       0.00132935
O        4.16461144       0.01765918       4.80947606      -0.00153546      -0.00516868       0.00673339
C        4.76655473       2.27826434       4.72260120      -0.00485209      -0.00392979       0.00518084
C        3.24122885       2.20741224       4.67252951      -0.00458804      -0.00705600       0.00485156
C        5.13523823       0.89087135       4.22909871      -0.00196891      -0.00406760       0.00794073
C        2.97765557       0.77334587       5.12631941      -0.00173668      -0.00597733       0.00912211
H        5.19522297       3.07814278       4.11838150      -0.00607746      -0.00469545       0.00379983
H        5.10471676       2.40478972       5.75239794      -0.00558370      -0.00115112       0.00511357
H        2.73980744       2.93411544       5.31096188      -0.00653893      -0.00604056       0.00228760
H        2.89385296       2.35719759       3.64665124      -0.00454529      -0.01116486       0.00406873
H        5.07715116       0.84491855       3.13090314       0.00009952      -0.00580123       0.00794613
H        6.12584844       0.55303768       4.53935016      -0.00182512      -0.00228809       0.01005167
H        2.81642168       0.71809125       6.20661009       0.00276351      -0.00278952       0.01014936
H        2.11659150       0.32037462       4.62697031      -0.00240973      -0.00853507       0.01404765
O        9.96033632       5.46744267       4.40260365      -0.00172748      -0.00221360       0.01090775
C        8.45184600       7.22260174       4.90964418      -0.00302482       0.00063533      -0.00067242
C        9.69595769       7.80087587       4.23493701      -0.00099112      -0.00310165      -0.00017358
C        8.96528482       5.86167858       5.36360199      -0.00599590       0.00103432       0.00506381
C       10.25387389       6.57194983       3.53524948       0.00056884      -0.00645232       0.00656177
H        8.08453830       7.81863567       5.74415146      -0.00397350       0.00380953      -0.00403059
H        7.64189499       7.11176986       4.18265171      -0.00143138      -0.00073915      -0.00248092
H        9.49112544       8.61641002       3.54323135       0.00114709      -0.00620183      -0.00410192
H       10.39791728       8.15829398       4.98914395      -0.00256699      -0.00048666       0.00040480
H        9.42909808       5.92595573       6.35222571      -0.01062116       0.00286731       0.00695968
H        8.18949757       5.09333173       5.39820075      -0.00703874       0.00217593       0.00317995
H        9.75217062       6.41701110       2.56916500       0.00171861      -0.01020376       0.00628871
H       11.33081789       6.60291089       3.36232333       0.00020975      -0.00760284       0.00843513
O       13.44072095       3.05993442       7.21614029       0.00439507       0.01453380      -0.01281265
C       11.12055256       3.47855098       7.31341923       0.00173110      -0.00297299      -0.00163350
C       11.34235553       1.97764664       7.46741204       0.01516795      -0.00108391      -0.00497639
C       12.42301618       3.91462303       6.66712508      -0.00428426       0.00721028      -0.00711652
C       12.81421967       1.93547575       7.85710391       0.01547307       0.01195158      -0.00586158
H       10.25444441       3.74459255       6.71121101      -0.00269957      -0.01075064      -0.00127390
H       11.00329737       3.95262988       8.28859026      -0.00020876      -0.00394322      -0.00339535
H       10.70337862       1.51767679       8.21752328       0.02025199      -0.00793771      -0.00230026
H       11.19000783       1.46828508       6.51568091       0.01784974      -0.00185396      -0.00343969
H       12.38085094       3.77262110       5.58097882      -0.00702681       0.01046911      -0.00683749
H       12.69265464       4.95170539       6.87374946      -0.01172519       0.00968605      -0.00535375
H       12.92782082       2.03402920       8.94280517       0.01687882       0.01636243      -0.00775248
H       13.32316630       1.02478081       7.54256179       0.02264282       0.01471138      -0.00460316
O       10.70567483       5.07791406      12.63455229       0.00308761      -0.00749242      -0.00016348
C        8.95841630       3.79640435      11.67552214      -0.00165069      -0.00139296      -0.00005156
C        8.36440046       4.93159372      12.50997960       0.00267649      -0.00316282       0.00536698
C       10.38955653       3.74744234      12.19684266       0.00063854      -0.00502349      -0.00601450
C        9.53781193       5.89758925      12.55658011       0.00443029      -0.00549710       0.00548450
H        8.44199824       2.84380131      11.79108700      -0.00259276      -0.00062533      -0.00096969
H        8.95181068       4.06137281      10.61548498      -0.00533740       0.00191718       0.00065419
H        7.46903137       5.37496098      12.07547312       0.00261922      -0.00007270       0.00892791
H        8.12042808       4.57926534      13.51537116       0.00447211      -0.00639634       0.00451207
H       10.48005580       3.06739914      13.04834153       0.00346025      -0.00941011      -0.00993031
H       11.11185756       3.43727017      11.43791617      -0.00288823      -0.00158530      -0.01025143
H        9.57196616       6.50868405      11.64322725       0.00317786      -0.00227183       0.00768816
H        9.53125742       6.57261889      13.41371131       0.00799894      -0.00853944       0.00813323
O       10.96201075       6.46977055       8.34146715      -0.00112963       0.00715905      -0.00039025
C       12.34806915       7.56306941       9.87738230       0.01328245       0.00179422      -0.00843573
C       12.74809169       8.03335825       8.47789869       0.00664395      -0.00005332      -0.01110993
C       11.73161534       6.22579461       9.52778648       0.00222877       0.00498864      -0.00285980
C       11.55720751       7.57641431       7.63941067       0.00006759       0.00407410      -0.00388420
H       13.17108690       7.50651484      10.58551673       0.01562953      -0.00307695      -0.01338525
H       11.59599785       8.23304476      10.30158552       0.01903579       0.00667416      -0.00397533
H       12.91714382       9.10272402       8.40501656       0.01219593      -0.00241154      -0.01403356
H       13.65973572       7.51585832       8.16429996       0.00274330      -0.00574104      -0.01442470
H       12.51728868       5.48598102       9.31660026      -0.00326133      -0.00089517      -0.00535315
H       11.06691349       5.81373140      10.28550625       0.00393304       0.01165651       0.00057411
H       10.80507666       8.36587626       7.55157647       0.00290734       0.00832251       0.00117756
H       11.84123874       7.25161571       6.63249376      -0.00798386       0.00328082      -0.00520819
O        0.68303016       6.16702770       3.27083981      -0.00022018       0.00665453       0.00875823
C        2.88430286       5.41356417       3.02320397      -0.00498807      -0.00188845       0.00051576
C        2.73182461       6.66199410       2.15346616      -0.00211143      -0.00061892       0.00162327
C        1.43665770       4.96793331       3.15038652      -0.00625879       0.00349595       0.00317065
C        1.39197610       7.23973087       2.61737117      -0.00112003       0.00257236       0.00123912
H        3.52928739       4.65508780       2.57870785      -0.00857432      -0.00391954      -0.00103134
H        3.28438589       5.66809000       4.00802777      -0.00250464      -0.00455014       0.00039533
H        3.54542380       7.37626267       2.26472920      -0.00086866      -0.00235906       0.00297432
H        2.68058193       6.38245555       1.10045862      -0.00213695       0.00068379       0.00123075
H        1.12934268       4.40859426       2.25351668      -0.01082882       0.00760837       0.00223643
H        1.22991218       4.35369776       4.02770097      -0.00696716       0.00238931       0.00197181
H        1.52599629       8.04030274       3.35087606       0.00053448       0.00656807      -0.00374675
H        0.79756688       7.62681555       1.78849003      -0.00244340      -0.00192209       0.00006336
O        5.50416302      11.16460652      10.97703817      -0.01424761      -0.00183279       0.01439649
C        7.79840750      10.99308150      10.46857226      -0.01328510      -0.00895904       0.00441170
C        7.31052423       9.69037283      11.10036559      -0.01850235      -0.00886679      -0.00022861
C        6.74017240      11.99462648      10.86840819      -0.01149492      -0.00505722       0.00156993
C        5.82162188       9.71259152      10.83726977      -0.01920456      -0.00204092       0.00431059
H        8.77394946      11.29623393      10.83669948      -0.01373413      -0.01349771      -0.00284255
H        7.86070573      10.90356026       9.38415730      -0.01925010      -0.01079258      -0.00021553
H        7.77202309       8.81344284      10.64897203      -0.02194304      -0.00892438       0.00442326
H        7.53389019       9.68512520      12.16947323      -0.01954144      -0.00751374       0.00393504
H        6.89907165      12.41872328      11.85820287      -0.00421435      -0.00297800       0.00278524
H        6.54288088      12.77721258      10.14238890      -0.01199908      -0.00890341       0.00352982
H        5.54805728       9.43455153       9.82027382      -0.01729531       0.00754295      -0.00243464
H        5.20288661       9.19984020      11.56958111      -0.02030933      -0.00555167      -0.00484127
O        2.39314434       9.78335932       1.27700459      -0.00017092       0.01306045      -0.00615048
C        1.94663313      12.07906444       1.36364108       0.00596608       0.01247084       0.01874846
C        3.37562695      11.87031588       1.89523334       0.01096186       0.00500959       0.00199462
C        1.34006453      10.69106360       1.56609896       0.00504342       0.01237792       0.01456758
C        3.56967738      10.34038832       1.85744926       0.00337836       0.00433725      -0.00478106
H        1.37516794      12.85331434       1.86852745       0.01200420       0.00838678       0.03299205
H        2.02950130      12.38308858       0.30975170      -0.00885063       0.02481271       0.02224036
H        4.10498218      12.38784852       1.27424020       0.00562626       0.00311750      -0.00615607
H        3.47404495      12.24078230       2.91447638       0.02495638       0.00136566       0.00130138
H        1.03396346      10.59893303       2.61762999       0.01825973       0.00419020       0.01696920
H        0.47361274      10.39073989       0.96532790      -0.00443274       0.01894239       0.02478293
H        4.41348978      10.02213229       1.24543643       0.00217187       0.00213148      -0.00542641
H        3.71025676       9.94293374       2.87261290       0.00039205      -0.00086328      -0.00630224
O        6.76765607       5.54310468       7.82355643       0.00011654       0.00489041      -0.00015183
C        6.00351056       4.37409158       9.72357157      -0.00149649       0.00287944      -0.00225002
C        4.98969571       4.18681375       8.59600722       0.00071895       0.00191493      -0.00407197
C        6.74100684       5.61976868       9.25181092      -0.00284670       0.00420552      -0.00019559
C        5.83383274       4.55203894       7.38187939       0.00196439       0.00413649      -0.00241715
H        5.54325858       4.49883366      10.70279142      -0.00322801       0.00127237      -0.00297654
H        6.68271214       3.51914256       9.77051592      -0.00009042       0.00388598      -0.00199331
H        4.57909941       3.17924683       8.53722965       0.00220001       0.00158405      -0.00516328
H        4.15867424       4.88483056       8.72094929      -0.00046678       0.00084910      -0.00489406
H        6.19450192       6.52515842       9.55468436      -0.00511727       0.00314555      -0.00094341
H        7.77044488       5.70030456       9.60530904      -0.00378382       0.00598997       0.00190800
H        6.39506825       3.68202142       7.01951450       0.00368023       0.00518784      -0.00259456
H        5.25316395       4.95964379       6.54943984       0.00277391       0.00419766      -0.00287792
O        4.59961188       9.31016549       7.79806337       0.00313757       0.00544913      -0.01559284
C        4.33998824       8.24206007       5.73664390      -0.00066349       0.00337243      -0.01428437
C        3.14934151       9.18268125       5.91614404       0.00021631       0.00416581      -0.01356846
C        4.74655854       8.03049446       7.18405532       0.00251702       0.00502698      -0.01500088
C        3.60974949      10.07187158       7.07066836       0.00171298       0.00480184      -0.01471531
H        4.09269815       7.31422773       5.22266821      -0.00174531       0.00303836      -0.01268904
H        5.14731348       8.73921031       5.19250763      -0.00145918       0.00269352      -0.01676273
H        2.90781375       9.76449787       5.02737431      -0.00141058       0.00295955      -0.01315780
H        2.26268283       8.60955699       6.19809581       0.00024551       0.00411627      -0.01140697
H        4.07454905       7.30150241       7.66558118       0.00336298       0.00517160      -0.01319402
H        5.77274219       7.69174418       7.32377161       0.00250405       0.00535838      -0.01634667
H        4.09144205      10.98546992       6.71195294       0.00169671       0.00452620      -0.01635452
H        2.79487438      10.34352408       7.74190733       0.00309697       0.00546120      -0.01413041
