199
Lattice="12.514039333330263 0.0 0.0 0.0 12.514039333330263 0.0 0.0 0.0 12.514039333330263" Properties=species:S:1:pos:R:3:forces:R:3 energy=-550484.625 stress="0.0021846299059689045 -0.00041546495049260557 0.000327382716932334 -0.00041546495049260557 0.001315835863351822 -0.00029997386445757 0.000327382716932334 -0.00029997386445757 0.002144538564607501" pbc="T T T"
Er      11.42712084      11.82426333      -0.46704669      -0.00024479      -0.00117528      -0.00103723
Cl       9.73394412      11.97854647       4.89162238      -0.00210333       0.00551105      -0.00183406
O        9.31438930      12.16784492       3.46908144      -0.00226188       0.00179489      -0.00221431
O        8.64751817      12.48409302       5.75435167      -0.00041807       0.01001936      -0.00296819
O        9.78544520      10.48105106       5.11624884      -0.00374216       0.00510645       0.00174184
Cl       1.54430302      10.20283189       0.14159134      -0.00381334       0.00015283      -0.00241818
O        1.09778331      10.78372405      -1.19075436       0.00059795       0.00226265      -0.00019848
O        2.75754178      10.90368514       0.56599577       0.00202131       0.00734401       0.00105739
O        0.39148539      10.60893818       1.03142130       0.00026041      -0.00225401      -0.00191438
Cl      10.55705854      12.15837494       8.67776749      -0.00339460      -0.00174224      -0.00137174
O       11.24266965      12.48174070       7.40735493      -0.00502723      -0.00444277      -0.00005627
O       11.67482719      12.11970258       9.71845687      -0.00297153      -0.00191470      -0.00059730
O       10.00502970      10.78526395       8.58722460      -0.00516799      -0.00279284       0.00200181
O        9.34644276      12.64482358      11.36469794      -0.00105599       0.00275868       0.00345306
H        8.57497312      12.00839797      11.42601213       0.00253133      -0.00161236      -0.00268213
H        9.02031343      13.44320544      10.92286757      -0.00099252       0.00104499      -0.00141345
O        9.84019138       3.17780432       3.79067492       0.00203279       0.00134656      -0.00502023
H        8.94793527       3.04085131       4.15036490      -0.00079778       0.00331854      -0.00643673
H       10.45252066       2.59344639       4.27876989      -0.00277282      -0.00166626      -0.00549915
O        6.30630236       9.42232498       3.54371557      -0.00473440      -0.00567166       0.00519899
H        5.38899592       9.11652798       3.75220697      -0.00334752      -0.01011949       0.00351159
H        6.86864121       8.63001372       3.69233151      -0.00180185      -0.00434669       0.00233811
O        3.24289561       1.84829445       5.90977083      -0.01873237       0.00826947       0.01638010
H        4.19451833       1.70558355       5.84314693       0.00540444      -0.00293565       0.00915116
H        3.13703900       2.63169802       6.47632907      -0.00759920      -0.01270796      -0.00070253
O        9.84603522       4.30816754      11.18172900       0.02704886      -0.00897622      -0.01223318
H        9.27383551       3.54924882      11.00955111       0.02369452      -0.00685781      -0.01097406
H       10.08830768       4.26271106      12.12604347       0.02211611      -0.00585038      -0.00858259
O        7.97984862       7.49900545      12.54867053      -0.01303878       0.00234872       0.00802558
H        7.54733580       6.63688746      12.55171906      -0.01981106       0.00347745       0.01089640
H        7.29673205       8.14513878      12.85176933      -0.00876617       0.00630405       0.00408319
O        3.60937582      10.92654389       9.86474249      -0.00407764      -0.00194411       0.00739242
H        3.71638359      10.91486885       8.89638528      -0.00482631       0.00014388       0.00372220
H        2.65999089      10.88992325      10.03927921      -0.00049518      -0.00244987       0.00758724
O       12.71540552       4.25690511       6.40562345       0.00585891      -0.00705362      -0.00447193
H       12.44199449       4.24243582       7.33884882       0.00393893      -0.00217374      -0.00397658
H       12.46408027       3.38607967       6.01709781       0.00272024      -0.00729539      -0.00148252
O        7.14237786       3.49404701       4.92485841       0.00343692       0.00166930      -0.00234290
H        7.64576924       4.17791570       5.43303583       0.00315653      -0.00130058      -0.00108830
H        6.89032607       2.78290129       5.54969531       0.00117065      -0.00039367      -0.00358685
O        5.47218980       6.21894855       2.37597368      -0.00169899       0.00952058       0.00603187
H        4.93467232       5.95036928       3.13353838      -0.00619100       0.01387587       0.00526825
H        5.51966763       5.42227109       1.75777793      -0.00392335       0.00987083       0.00630654
O       10.99359970       0.57832315       1.47264387       0.01460986      -0.00691950       0.00602484
H       10.43594045       0.26026598       2.21258123       0.00399716      -0.00710230       0.00148204
H       11.66755503       1.14460153       1.86287402       0.02659791      -0.03705832       0.01837866
O       10.78760146       9.70758699      11.02461143       0.00314393      -0.00352123       0.00070307
H       11.41787628       8.96797508      10.91834678       0.00292573      -0.00330132      -0.00066225
H       10.40465910       9.85454428      10.13831278      -0.00085668      -0.00503031       0.00204130
O        0.62073266       3.31536197       0.78427827       0.01601079       0.00877687      -0.01347502
H        1.01558980       3.03043544       1.63651015       0.00808069       0.00586777      -0.01188502
H       -0.18091633       3.82873607       1.00797073       0.01438156       0.00811906      -0.01483097
O        3.39226020       4.18588396       7.49575067      -0.00328891      -0.00243479       0.00397600
H        2.93358640       4.87592408       8.01197222      -0.00200830      -0.00200614       0.00410668
H        3.98369960       4.62779736       6.85985709      -0.00040811      -0.00201633       0.00336190
O        6.14791544      13.47872743       8.84687963       0.00706403       0.00072739      -0.00647654
H        6.32410811      12.51339023       8.92238779       0.00548601       0.00051079      -0.00598514
H        6.94748909      13.94214947       9.19685545       0.00682868       0.00026640      -0.00566876
O        0.35562193       1.03817460      -0.46619584      -0.00116539       0.00062278      -0.00143156
H        0.33832167       1.93079378      -0.02020889       0.00075939       0.00136405      -0.00364833
H        1.32207882       0.93215258      -0.70423716      -0.00299385       0.00208295      -0.00847407
O        4.93438592      11.70288257       4.84514443      -0.01441409       0.00048143      -0.00661238
H        5.55958163      11.48488776       4.13214419      -0.01308516       0.00769112      -0.00419527
H        5.33932586      12.47465797       5.28823868      -0.01899869       0.00124436      -0.00294309
O       11.11991068       4.48608450       8.70978580       0.01339731       0.00325807      -0.00935005
H       10.93759937       5.43183445       8.52465451       0.00667481       0.00230264      -0.00713455
H       10.83500841       4.36740939       9.64020475       0.01799719       0.00045869      -0.00793635
O        3.30203489       4.37188650      11.50650877      -0.00115170      -0.00235179       0.00397782
H        2.50829394       4.16290495      12.02071859      -0.00191483      -0.00990150       0.00285159
H        3.51006619       3.58324175      10.96696141       0.00526813       0.00098789       0.00297209
O        2.71587522       8.16768185       7.51648902      -0.00081670      -0.00389609       0.00378758
H        2.11359175       8.80039184       7.95188868      -0.00262511      -0.00376415       0.00349549
H        2.88096087       7.48062333       8.18770082      -0.00086832      -0.00313129       0.00349812
O        2.92238593      13.45868130      11.62722578      -0.00353155      -0.00189416      -0.01394442
H        3.20142875      13.86651066      10.78606775      -0.00223349       0.01361505      -0.01470734
H        3.27051654      12.56007563      11.61469525      -0.00303020       0.00971776      -0.02551369
O        1.55647411       2.33366165       3.15147923      -0.00632718       0.00658595      -0.00409341
H        2.11041136       1.51971266       3.15085208      -0.00610996       0.00827893      -0.00197054
H        2.03913700       3.02499671       3.64712373      -0.00882995       0.00792416      -0.00389876
O        3.96989256       8.39771206       4.30449140      -0.00188226      -0.02066473      -0.00067840
H        3.04752663       8.66633820       4.43388547       0.00162281      -0.01413630      -0.00049494
H        4.30405771       8.09147069       5.16751207       0.00025660      -0.01058550       0.00395577
O        4.84345237       5.12492181       5.21117478       0.00120886      -0.00218030       0.01199325
H        5.58707297       4.51557376       5.03066071       0.00217872      -0.00127446       0.00563966
H        5.24853579       5.97323126       5.52446665       0.00228143      -0.00202436       0.00883381
O        6.67706203      10.79672179       8.75674434      -0.00312195      -0.00091904      -0.00187461
H        7.39465983      10.55075552       8.15431496      -0.01046557      -0.00156616      -0.01057893
H        5.87899707      10.48810368       8.27336765      -0.00821288       0.00228661       0.00399406
O        0.11290070      11.29034068       3.81784844       0.00460742      -0.00665997       0.00326185
H        0.88281031      11.51214219       3.27501591       0.01406921      -0.00209227       0.01035899
H        0.43690258      11.50455911       4.70795532      -0.00386258      -0.00910667       0.00588381
O        9.86513690      10.64785318       0.87668079      -0.00379407       0.00010917      -0.00350736
H       10.22691495      10.15297469       1.66020585      -0.00408649       0.00010548      -0.00309938
H        9.45448926       9.99240006       0.29795699      -0.00563491       0.00224429      -0.00288490
O        8.40593479       7.47065746       9.72771005       0.00033192       0.00188145       0.00695240
H        8.33958863       7.64818202      10.68344128      -0.00107580       0.00066502       0.00707924
H        7.51756733       7.64033121       9.35727997       0.00036297       0.00019432       0.00675108
O        2.19624528       4.65186451       4.50630834       0.00247902      -0.00084041       0.00030538
H        3.12831884       4.84614386       4.72374263       0.00366312      -0.00213539       0.00259203
H        1.72792118       4.55150498       5.35663310       0.00148112      -0.00310813      -0.00126769
O        0.17668526       7.68981450      10.32445180      -0.00006928      -0.00447482      -0.00229897
H        0.52983127       8.45525405       9.81950427      -0.00004627      -0.00435939      -0.00230030
H       -0.53311449       7.36749013       9.71833408      -0.00122623      -0.00315134      -0.00228153
O        5.64306029       7.42879747       6.23939744       0.00235152       0.00115771       0.00606972
H        5.57994661       7.35417357       7.22374776       0.00272568       0.00085555       0.00546011
H        6.42841946       7.99979162       6.11707182       0.00106044       0.00357003       0.00527491
O        9.72652717       2.56269018       7.35511381       0.00265726       0.00452581       0.00112814
H       10.31996291       1.84714419       7.09170102       0.00125653       0.00009170      -0.00288843
H       10.28882494       3.27240687       7.73958297       0.00613760       0.00146911      -0.00353015
O        3.94551482       7.77391083      13.13736908      -0.00555251       0.00851057       0.00654869
H        4.42937000       7.21631217      13.77942255      -0.00401282       0.00914437       0.00758366
H        3.02759693       7.42997312      13.11726924      -0.00447799       0.00636605       0.00596730
O        1.14971784       0.11359770       6.07530616       0.00636476      -0.00051440      -0.00383285
H        0.88367707      -0.05595914       6.98369324      -0.00884450      -0.00581102       0.01385638
H        1.98892589       0.62232476       6.09203192      -0.00940481      -0.00928544       0.00667717
O       10.84735908       5.53766834       4.85192827       0.00438147      -0.00434829       0.00130500
H       10.48308615       4.73814883       4.41519994       0.00281040      -0.00274057      -0.00151148
H       11.51132245       5.17657575       5.48006194       0.00509045      -0.00712798      -0.00145484
O        3.96532761       2.43289578       9.60930316       0.01049289       0.00923355      -0.00259978
H        3.79056019       2.96841088       8.81451708       0.00950541       0.00703166      -0.00128280
H        4.75033815       1.88578098       9.39594489       0.00936638       0.00462674      -0.00358860
O       -0.43393353       2.04560416       4.95310357      -0.00184401      -0.00755066      -0.00009889
H        0.24056677       2.15482161       4.23634383      -0.00357163      -0.00317832      -0.00003979
H       -0.07730190       1.26251697       5.42767328      -0.00054829      -0.00673975      -0.00079168
O        7.64174923       7.02687157       3.79602285       0.00276668      -0.00016540       0.00369100
H        6.93159304       6.63336813       3.23459203       0.00113904       0.00050260       0.00563916
H        8.46192804       6.95636436       3.26505785       0.00153731      -0.00065492       0.00197337
O       13.01716789       6.42383106       3.22147855       0.00014037      -0.00013743       0.00290890
H       13.64881336       5.74719178       3.54462562       0.00184506       0.00055882       0.00040932
H       12.16130274       6.16467643       3.61749981       0.00093988      -0.00274519       0.00364623
O        1.39447198       6.77121669       0.49305505      -0.00445515       0.00882307       0.00282473
H        0.88794824       6.67629836       1.31768654      -0.00557847       0.00445411       0.00419591
H        0.78537762       7.01395056      -0.21443871      -0.00411672       0.00093268       0.00281896
O        9.83761419       6.95884131       2.04903821      -0.00086359       0.00036296      -0.00122344
H       10.39775737       7.71199322       2.32652862      -0.00191427       0.00151664      -0.00179117
H        9.30291285       7.26212798       1.28779964      -0.00449582       0.00012387       0.00177415
O       10.75669501       7.17963238       8.48710329      -0.00265029       0.00133097      -0.00150269
H       10.94992414       7.78168103       7.73919727      -0.00397075       0.00225651      -0.00091846
H        9.86691288       7.39858799       8.84449973      -0.00154744       0.00150638       0.00169780
O        5.62420193       4.26875271       0.68849052       0.00014228       0.01484927      -0.00180358
H        4.82103037       4.25538234       0.13757709      -0.00209455       0.01120609       0.00316499
H        5.60135419       3.46731685       1.25746187       0.00628664       0.01262410      -0.00334968
O       10.93929948       9.31315138       2.92387186      -0.00369136       0.00367424      -0.00064576
H       10.39374657       9.58992746       3.68448140      -0.00449204       0.00287682      -0.00078017
H       11.76963472       9.80610626       3.09732372      -0.00313248       0.00430017       0.00042997
O        8.34088446       5.59434899       6.10500780       0.00508527      -0.00208789       0.00136343
H        9.28915472       5.60795247       5.85724912       0.00502164      -0.00289939       0.00101892
H        7.95111640       6.21517592       5.45546641       0.00518306      -0.00095643       0.00247101
O        6.65242395      12.29737604       2.49896159      -0.01119554      -0.00909990       0.00576465
H        7.57324490      12.19370825       2.79833751      -0.00499222      -0.00418925       0.00582226
H        6.56961866      11.71622956       1.73466388      -0.01233962      -0.01712574       0.01984489
O        2.73834680      12.38793440       3.11480094      -0.01510331       0.00415336      -0.03184717
H        3.46647945      12.17548867       3.72989494      -0.00048669       0.00217385       0.00365133
H        2.98051872      12.01089094       2.25853510      -0.01459309       0.01828650       0.00944477
O        2.45598816       6.04921266       9.40351485       0.00061648      -0.00352132       0.00299935
H        2.82289697       5.58125775      10.18342611      -0.00099602      -0.00344457       0.00346143
H        1.61874148       6.43061286       9.71894135      -0.00137338      -0.00457185       0.00155786
O       13.23202513       9.79117599       8.60862724      -0.00170795      -0.00292796      -0.00048627
H       12.92466995      10.58901979       9.06310285      -0.00108934      -0.00300578       0.00105008
H       12.58169240       9.62362118       7.87813835      -0.00200620      -0.00089728      -0.00075511
O       11.65428292       9.00456832       6.62283853      -0.00269264       0.00175784      -0.00144279
H       12.32412853       8.76463328       5.93477835      -0.00239212       0.00134812      -0.00073029
H       11.04987081       9.64951554       6.21997133      -0.00247402       0.00275402      -0.00161665
O        7.56377066      10.76186570      11.37620676       0.01486824      -0.01469849      -0.00539749
H        6.99118162      10.37939982      12.06507726       0.00741823      -0.00002633      -0.00639965
H        7.12203493      10.62503780      10.51672741       0.01303688      -0.01104867      -0.00718825
O        7.57992716       4.90254201       8.83095290       0.00607694       0.00198720       0.00111140
H        8.06058448       5.59052743       9.32623974       0.00436103       0.00266008       0.00124893
H        7.81433185       5.08853592       7.90281818       0.00647651       0.00158287       0.00101377
O        7.43057695       9.50383324       6.26209201      -0.00364447       0.00947206      -0.00119552
H        8.33250811       9.70391647       5.95853213      -0.00529698       0.01131327       0.00044821
H        6.88890871       9.93379965       5.58353206      -0.00498590      -0.00120839      -0.01106952
O        1.22053124       8.29420458       5.10099306      -0.00060490      -0.00114493       0.00306532
H        0.99607659       7.60611126       4.43239445      -0.00152764      -0.00116125       0.00280949
H        1.69998349       7.86934945       5.83136197      -0.00215682      -0.00169619       0.00316074
O        4.88037452       8.65127095      10.75555265      -0.00144862      -0.00329965       0.00526978
H        4.45449938       8.26337789      11.54824499      -0.00222567      -0.00056951       0.00681818
H        4.37479200       9.44781367      10.49062792      -0.00095576      -0.00279601       0.00384207
O        6.25348929      13.76216432       6.20764709      -0.00796624      -0.00037013      -0.00658778
H        7.09290108      13.31709509       5.98561395      -0.01138454      -0.00290009      -0.01195359
H        6.19413399      13.68362662       7.19999772      -0.00135905       0.00026932      -0.00714215
O        6.24755454       9.45656248       0.91237526      -0.00754371       0.01538933       0.00460559
H        6.29125814       9.47097737       1.91085426      -0.00640448       0.00387587       0.00606520
H        5.34306911       9.16364049       0.71107044      -0.00594701       0.01663447       0.00294428
O        5.64530714       2.40918506       2.67227905       0.01008067      -0.00103042      -0.01616153
H        5.98147185       1.50284411       2.55106195       0.00535947       0.00439939      -0.00581540
H        6.23125937       2.81109969       3.32816607       0.01267174       0.00472063      -0.00207944
O        5.78375150       7.17949535       8.85105442      -0.00078493       0.00582388       0.00706393
H        5.32223410       7.66064166       9.59954590       0.00197878      -0.00522570       0.00356225
H        5.92510368       6.25377729       9.08727207       0.00389560      -0.00759263       0.00504022
O        8.29706664       2.38164637       9.60796399       0.00676049       0.00147191       0.00089195
H        8.87048388       2.27349493       8.80625865       0.00551890       0.00369056      -0.00028411
H        7.93890858       3.28708810       9.43916071       0.00524636       0.00152308       0.00298123
O        4.42833913      10.33431337       7.28067731      -0.01012503      -0.00093488       0.00405723
H        4.53062975      10.68387753       6.37504325      -0.00950816       0.00142296      -0.00035346
H        3.98190596       9.46789526       7.21532163      -0.00529139       0.00215622       0.00343927
O       10.63266542       4.41215492       1.37316012       0.00962047       0.00157482      -0.00682271
H       10.26987827       3.87258822       2.09861784       0.00975128      -0.00093248      -0.00880257
H       10.45136039       5.33943943       1.63665193       0.00402620       0.00021254      -0.00636864
