199
Lattice="13.664557701532603 0.0 0.0 0.0 13.664557701532603 0.0 0.0 0.0 13.664557701532603" Properties=species:S:1:pos:R:3:forces:R:3 energy=-457444.34375 stress="-0.00040935154538601637 -0.00017483464762335643 0.0006519477174151689 -0.00017483464762335643 -0.0002716129820328206 -0.00014155601093079895 0.0006519477174151689 -0.00014155601093079895 -0.0001370651152683422" pbc="T T T"
Er      11.25434168      14.11580555       1.42080925       0.00524442      -0.00740322       0.00753906
N       11.29136503      12.87566830      -0.42150178       0.00723192       0.00032189       0.00153053
C       10.97674148      13.01234131      -1.54694633       0.00955261      -0.00320300       0.00092846
N       13.44636677      14.38830501       1.83408787       0.00571543      -0.00840976       0.00735261
C       14.41914612      13.95412007       2.33375785       0.00863022      -0.00811861       0.00028902
N       10.53002026      13.72959345       4.87187902       0.00636522      -0.02719191       0.00162071
C       10.74528209      14.14965392       3.80523931       0.00433764      -0.01213180       0.00616062
O        8.82075257      13.85226983       1.68324154       0.00204772       0.00427270       0.00323707
C        7.87025368      12.71911262       1.79093986       0.00142708       0.00439976      -0.00196216
C        8.44693337      11.55427611       1.02954790       0.00310540       0.00700128      -0.00454411
C        7.64253138      12.42001617       3.25682550      -0.00076123      -0.00086468      -0.00352323
H        6.94315562      13.05452027       1.31606371       0.00231320       0.00600940      -0.00252992
H        7.72957902      10.73294770       1.05586443       0.00300695       0.00712505      -0.00963653
H        8.61766887      11.80969378      -0.01454489       0.00628758       0.01074254      -0.00312340
H        9.38246116      11.22297608       1.48353678       0.00159708       0.00559919      -0.00260803
H        6.96094651      11.57825003       3.36661382      -0.00513591       0.00221081      -0.00766165
H        7.19909100      13.27345619       3.77853496       0.00352336      -0.00123802       0.00081267
H        8.58540642      12.18454240       3.74714925      -0.00222376      -0.00804402      -0.00448093
H        8.71458686      14.36022381       2.49965844       0.00006521       0.00316942       0.00350058
O        5.71205922       2.13997218       3.17671069       0.00196394      -0.00305590       0.00823569
C        4.31684556       1.71580209       3.13638867       0.00402893      -0.00749891       0.00432429
C        4.01630925       0.78599649       4.29090467       0.00202595      -0.00444266       0.00624412
C        3.47025138       2.96344840       3.16694836       0.00072888      -0.00950491      -0.00292797
H        4.16321388       1.18775643       2.18791580       0.00908636      -0.01079866       0.00530946
H        2.96296773       0.50608250       4.27122158       0.00528082      -0.01548190      -0.00297579
H        4.60383419      -0.13329809       4.22771245       0.01283760       0.00180823       0.01752135
H        4.23336168       1.28532454       5.23847974      -0.01246079       0.00209638       0.00561155
H        2.41635027       2.70282933       3.06605083       0.00249392      -0.01339845      -0.01014715
H        3.73879941       3.64148973       2.35561312       0.00415102      -0.00957893      -0.00177394
H        3.61862834       3.48948606       4.11070529      -0.00807071      -0.00793273      -0.00246564
H        6.17955764       1.52022415       3.74471260       0.00834340      -0.01716498      -0.01267439
O        6.56609461       4.43642010       4.53232425       0.00065595      -0.00652760       0.00133137
C        7.62365980       5.17667282       3.90815954      -0.00047222      -0.00569075       0.00105906
C        8.51157279       4.25428420       3.08970025       0.00292662      -0.00485405       0.00387642
C        7.05214918       6.31919784       3.08544798      -0.00296396      -0.00926930      -0.00197044
H        8.20663336       5.59412702       4.73700417      -0.00240791      -0.00227340       0.00063917
H        9.34324630       4.80620716       2.64852449       0.00439069      -0.00422046       0.00753191
H        8.92509565       3.46126732       3.71533593       0.00111146      -0.00503066       0.00485779
H        7.93143326       3.80330941       2.27840558       0.00635131      -0.00453366       0.00125429
H        7.85668532       6.92053398       2.65535743      -0.00469129      -0.00523603       0.00064136
H        6.42026885       6.96498376       3.69530219      -0.00843292      -0.01245083      -0.00444305
H        6.44351596       5.92662136       2.26711401       0.00197037      -0.01314361      -0.00374116
H        6.23157155       3.74774027       3.92569012       0.00470312      -0.01204964       0.00521377
O       13.86956873       1.21362710       8.08515686       0.00243783      -0.00055823      -0.00280160
C       12.80595775       1.57956546       8.96904199      -0.00024652      -0.00503194      -0.00410649
C       12.56013226       3.08021884       8.90217905      -0.00721689      -0.00630999      -0.00516422
C       11.54687639       0.78809664       8.67200828       0.00380558      -0.01103204      -0.00478862
H       13.17349993       1.31919968       9.96599691       0.00004336      -0.00281399      -0.00365788
H       11.81378835       3.38889405       9.63883530      -0.00950845      -0.00952928      -0.00618707
H       13.48131503       3.63370686       9.08990393      -0.01004276      -0.00184493      -0.00444599
H       12.18265605       3.35276204       7.91378454      -0.00738875      -0.00850939      -0.00571111
H       10.76359946       1.02674807       9.39306393       0.00216700      -0.01454442      -0.00525972
H       11.73752375      -0.28192821       8.74071658       0.00897036      -0.01006736      -0.00450392
H       11.17939014       1.01245024       7.66634358       0.00347039      -0.01307873      -0.00508532
H       13.49453140       1.13275963       7.20249596       0.00407416      -0.00159976      -0.00341778
O       10.15683452       2.11324280      13.83970027       0.00705558      -0.00088836       0.01215529
C       10.33802441       2.67930593      12.49207193       0.00518906      -0.00003546       0.01229855
C        9.18785818       2.26147816      11.60125732       0.00635970      -0.00294776       0.01210847
C       10.47133236       4.18111157      12.60058126       0.00092873       0.00035781       0.01188774
H       11.26522571       2.23553353      12.12222243       0.00648743       0.00266969       0.01257625
H        9.34343034       2.66330756      10.59893524       0.00642817      -0.00354541       0.01185822
H        9.12342275       1.17596329      11.52142154       0.00817544      -0.00304353       0.01272708
H        8.24257034       2.66395773      11.97160352       0.00548960      -0.00406606       0.01113312
H       10.63883964       4.60440805      11.60904706       0.00171493       0.00008132       0.01198713
H       11.30695558       4.47242988      13.23652854      -0.00108065       0.00288470       0.01338764
H        9.55419849       4.61694240      13.00257634      -0.00100484      -0.00167194       0.00963201
H        9.23312020       1.83710603      13.92492515       0.00643939       0.00199138       0.01452284
O       12.09767883       5.47908442       5.49812139       0.00621128       0.00869548      -0.00307203
C       11.42979045       6.50943749       6.23661034       0.00326741       0.00499868      -0.00068524
C       10.57185194       5.92636605       7.34457534       0.00386438       0.00013372      -0.00283140
C       12.40813583       7.53975457       6.76354981       0.00054622       0.00584972       0.00312936
H       10.77351384       6.97520271       5.49604619       0.00304851       0.00566486       0.00001192
H        9.93565108       6.69710317       7.78023889       0.00349452      -0.00209565       0.00040101
H        9.95232996       5.11704272       6.96001992       0.00465331       0.00074346      -0.00549637
H       11.19595783       5.53589703       8.15078027       0.00454077      -0.00221696      -0.00449412
H       11.88942391       8.30610243       7.33752561      -0.00203714       0.00204499       0.00597094
H       12.96715873       8.00029457       5.95357148      -0.00099003       0.01074255       0.00482650
H       13.11960324       7.06181286       7.44481310       0.00221673       0.00521331       0.00086249
H       12.80543854       5.13841013       6.05473302       0.00430635       0.00625828      -0.00215526
O        3.76600624       8.51431914       3.85589890      -0.00189775       0.01279527      -0.00906776
C        2.67120637       7.62127220       3.66822168       0.00012469       0.00904763      -0.00423276
C        3.16215865       6.22678522       3.98099208       0.00522324       0.01019484      -0.00595659
C        1.49154142       8.00515629       4.54091033       0.00222754       0.00632346      -0.00021815
H        2.35242990       7.65501654       2.61350841      -0.00349274       0.00796157      -0.00297707
H        2.36670625       5.50411813       3.79411781       0.00574410       0.00834165      -0.00114221
H        4.02031346       5.96792857       3.36183994       0.00213391       0.01131387      -0.01071125
H        3.46538046       6.15698522       5.02773859       0.01082265       0.01130544      -0.00755471
H        0.67005378       7.30234063       4.38834447       0.00212871       0.00613199       0.00106679
H        1.14018337       9.00909907       4.29512894       0.00093467       0.00637427       0.00188085
H        1.78984994       7.98775744       5.59078932       0.00530092       0.00533863      -0.00112934
H        3.39806247       9.40945702       3.82887928      -0.00387007       0.01196352      -0.01255884
O        6.10299323      11.39858736      12.24790493       0.00011715       0.00621617       0.00178397
C        6.27555511      12.25541281      11.11653284      -0.00448841       0.00505601       0.00029242
C        7.34967489      11.71098630      10.18338774      -0.00017834       0.00993744       0.00261015
C        4.95323074      12.47663339      10.40403255      -0.00544828      -0.00485212      -0.00099877
H        6.61292917      13.20883141      11.53343124      -0.01098341       0.00806338      -0.00151238
H        7.50218732      12.37724754       9.33173249      -0.00050757       0.01102579       0.00341316
H        8.30382564      11.60220069      10.70139669      -0.00121942       0.01355408       0.00526024
H        7.04507521      10.73468455       9.79308324       0.00495410       0.00877507       0.00153781
H        5.07157161      13.16792579       9.56818825      -0.00960292      -0.00594467      -0.00239809
H        4.22043879      12.90286166      11.08669156      -0.00855026      -0.00846943      -0.00211124
H        4.57009344      11.53000815      10.01466850       0.00076634      -0.00811806       0.00073703
H        5.79794508      10.53349507      11.92548989       0.00244143       0.00480680       0.00329469
O        2.56384704      10.90498660       2.84216794      -0.01068157       0.01158378      -0.01827240
C        3.26866064      10.74920326       1.59556581      -0.00499588       0.00892937      -0.01348343
C        2.75801521      11.71936710       0.55363329      -0.00378719      -0.00003952      -0.02278948
C        4.75823824      10.91263304       1.83227331      -0.00594109       0.01417858      -0.01005614
H        3.07675740       9.72148217       1.26738436      -0.00234729       0.00628251      -0.00551230
H        3.28527572      11.56620182      -0.38807698      -0.00269862      -0.00805989      -0.02092277
H        1.68600362      11.60119621       0.39318061      -0.00363307      -0.00051181      -0.02204080
H        2.93282754      12.74597101       0.88360682      -0.00311258       0.00281957      -0.03206298
H        5.30313868      10.82461502       0.89104908      -0.00309406       0.01215168      -0.00808406
H        5.12102235      10.16048688       2.53449276      -0.00630259       0.01774895      -0.00603707
H        4.94936702      11.90619015       2.24268303      -0.00891970       0.01636018      -0.01335999
H        2.07706081      11.73983423       2.82830684       0.02569532       0.03274372      -0.00609103
O        4.83337207       1.90990748      11.29033076       0.00462295      -0.00157186       0.00870419
C        4.47194774       2.53513636      12.52587189       0.00000118      -0.00719365       0.01014730
C        5.71173032       3.06873527      13.22504285      -0.00295097      -0.00883213       0.01656383
C        3.42972474       3.61485685      12.30216880      -0.00065839      -0.00757384       0.01128900
H        4.03899204       1.72984043      13.12451658      -0.00106923      -0.01022473       0.00529516
H        5.46343884       3.54576005      14.17486228      -0.00662991      -0.01455743       0.01847301
H        6.41089329       2.25515031      13.42417713      -0.00220790      -0.00868355       0.01456047
H        6.20415484       3.80925323      12.58990502      -0.00215708      -0.00451268       0.02230097
H        3.11715386       4.06279540      13.24688169      -0.00463395      -0.01225021       0.01217805
H        2.55223611       3.20465120      11.80243782       0.00168544      -0.00653464       0.00644601
H        3.83816663       4.41185609      11.67509757       0.00042199      -0.00418571       0.01636008
H        4.96725631       2.60761118      10.64078860       0.00661907       0.00147954       0.01242736
O        3.92826156       8.63923541       7.26581897       0.00045705      -0.00343943       0.00152817
C        5.05928277       9.39977240       7.64668516       0.00152111      -0.00142866      -0.00611025
C        6.34778726       8.77837397       7.12874198      -0.00030446      -0.00162283      -0.01017979
C        4.85400661      10.81051834       7.13124381      -0.00211748      -0.00315535      -0.00924954
H        5.11505077       9.44316894       8.75115888       0.00670720       0.00199136      -0.00653315
H        7.21587487       9.35684229       7.45269966       0.00049819       0.00008865      -0.01549777
H        6.45503372       7.75581247       7.49752313       0.00251880      -0.00040291      -0.00764343
H        6.32958190       8.75031308       6.03782621      -0.00505587      -0.00470429      -0.00998011
H        5.65661347      11.46828141       7.46766107      -0.00112453      -0.00153060      -0.01476795
H        3.90464807      11.20867101       7.48887325      -0.00084686      -0.00295803      -0.00623439
H        4.83157164      10.79928296       6.04045017      -0.00688711      -0.00662571      -0.00910808
H        4.17724128       7.69937933       7.23805041       0.00046134      -0.00365865       0.00545649
O       10.99863470       8.38978346       9.57994344      -0.02070582      -0.01066089       0.01076773
C       11.77506562       8.65352804      10.76172524      -0.00028539      -0.00962695      -0.00315112
C       11.34696200       9.95792995      11.38899844       0.01465161      -0.00658858       0.00022534
C       11.66991766       7.47526905      11.71412144       0.01018370      -0.00654554       0.00113803
H       12.81072676       8.73906976      10.41722867      -0.00531322      -0.01445647      -0.01913263
H       11.92327584      10.18656945      12.28425156       0.03085960      -0.00593282      -0.01068285
H       11.46622624      10.78835309      10.69418518       0.00490178      -0.00865069      -0.00384663
H       10.29470601       9.91242093      11.68553903       0.01998317      -0.00290856       0.01889350
H       12.24373080       7.65757419      12.62507941       0.02789617      -0.00752340      -0.01011732
H       12.04558644       6.56784688      11.24094162      -0.00336041      -0.00969724      -0.00313401
H       10.62721832       7.31167808      11.99212577       0.01465625      -0.00004274       0.02041253
H       10.16042112       8.84898061       9.68672300      -0.00650534       0.01505591       0.01019204
O       11.12885200      10.87171387       3.35551067      -0.01778040       0.02264678      -0.00106460
C       10.88336148       9.55940183       3.88039797      -0.00311655       0.02034456      -0.00063428
C        9.39662574       9.34576348       4.13119979       0.00051218       0.00723064       0.00951481
C       11.43585392       8.55662723       2.88690131      -0.00146917       0.02550724      -0.00489137
H       11.42265042       9.45101549       4.82950086       0.00424820       0.02398248      -0.00442803
H        9.20585058       8.34974044       4.53771623       0.01235001       0.00458020       0.00835028
H        9.00840985      10.07777219       4.84055620      -0.00113412       0.00186868       0.01410937
H        8.84326369       9.44455247       3.19541604      -0.00701566       0.00415596       0.01367934
H       11.25871776       7.53664804       3.23432156       0.01097906       0.02394772      -0.00337761
H       12.50868134       8.68985692       2.75362017      -0.00395480       0.03642042      -0.01321276
H       10.94696779       8.68178698       1.91798591      -0.00998688       0.02050162      -0.00114995
H       11.00871219      11.52132634       4.06161078      -0.01585139       0.02160414       0.00056733
O        5.56643174       8.62348317      11.76576042      -0.00111141       0.00820363       0.00026053
C        6.54490859       8.10215340      12.68375043      -0.00435096       0.00145492      -0.00019974
C        6.47029276       6.58969009      12.74576230      -0.01225816       0.00173825      -0.00350495
C        7.93511724       8.59062198      12.32776508      -0.00150436      -0.00455335       0.00212851
H        6.24748722       8.52255627      13.64783278      -0.00308585       0.00076614       0.00048172
H        7.16429884       6.20361373      13.49542810      -0.01390649      -0.00353687      -0.00485566
H        5.46472833       6.25592697      13.00076528      -0.01391712       0.00661885      -0.00354391
H        6.75131522       6.15803856      11.77949067      -0.01525773       0.00247719      -0.00470468
H        8.66000213       8.27037433      13.07904291      -0.00464877      -0.00782198       0.00383474
H        7.95066406       9.67757764      12.26996064       0.00333467      -0.00458169       0.00262830
H        8.24761142       8.17615319      11.36395273      -0.00095462      -0.00571525       0.00295135
H        5.72449862       8.23137150      10.89938740      -0.00306226       0.00864121      -0.00030109
O        5.88996855       3.71200299       7.03765818      -0.00659725       0.00212342      -0.00303292
C        6.96900671       3.50673982       7.95498843      -0.00788897      -0.00105391      -0.00251125
C        8.12263785       2.78470651       7.27918631      -0.00794041      -0.00076964      -0.00284344
C        7.38594425       4.83118714       8.57843154      -0.00604796      -0.00295222       0.00018281
H        6.56389311       2.85818116       8.74131713      -0.00935900      -0.00196090      -0.00395569
H        8.95041101       2.63063951       7.97379677      -0.01095295      -0.00668573      -0.00062352
H        7.80834920       1.81025740       6.90488030      -0.00949468       0.00227194      -0.00933376
H        8.49731875       3.36810683       6.43495720      -0.00357736       0.00291263       0.00175072
H        8.20399541       4.69567951       9.28984297      -0.01002471      -0.00663208       0.00393726
H        6.54019306       5.29173462       9.09261075      -0.00680663      -0.00011204      -0.00379717
H        7.72427591       5.52089240       7.80418300       0.00033711      -0.00386019       0.00213508
H        6.25530919       3.99148352       6.16820392      -0.00513871       0.00075757      -0.00307644
O        4.23004994       5.87980254       7.48688465       0.00022721      -0.00006318       0.00684741
C        3.09212171       5.54782062       8.29008477      -0.00127311      -0.00207134       0.00348866
C        3.01007094       4.05131290       8.51649412      -0.00021966      -0.00217342       0.00217807
C        3.15829520       6.34461866       9.58273754      -0.00441622      -0.00348333       0.00433522
H        2.20417200       5.87270082       7.73121169      -0.00056863      -0.00235400       0.00205475
H        2.15584194       3.79300849       9.14172627      -0.00277023      -0.00340573      -0.00200133
H        2.91914187       3.51025388       7.57469934       0.00473544      -0.00155825       0.00139065
H        3.91501789       3.69594395       9.01643028      -0.00214796      -0.00147724       0.00609687
H        2.29143149       6.14411777      10.21548236      -0.00661917      -0.00349958       0.00116318
H        3.19029796       7.41170567       9.36115405      -0.00264197      -0.00322771       0.00582232
H        4.06037200       6.07943847      10.13994804      -0.00650243      -0.00520218       0.00691621
H        4.78836277       5.08613989       7.34423050      -0.00181367      -0.00058177       0.00060614
