196
Lattice="13.474727835582522 0.0 0.0 0.0 13.474727835582522 0.0 0.0 0.0 13.474727835582522" Properties=species:S:1:pos:R:3:forces:R:3 energy=-705499.3125 stress="-0.0004691655049100518 -0.0006064644258003682 -0.0004988649161532521 -0.0006064644258003682 -0.0006804915028624237 0.00019582025561248884 -0.0004988649161532521 0.00019582025561248884 -0.0008935831137932837" pbc="T T T"
Er      12.29975692      13.50258308       2.12683024       0.00211036       0.00154749       0.00464314
Br       7.48084660      11.87396792      11.73728807      -0.00686187       0.00158370       0.00106345
O        7.02688667      11.66803657      13.28550425      -0.01435027       0.00344922      -0.00080669
O        9.07732883      12.18567586      11.66571983      -0.00663245       0.00172517       0.00841945
O        7.16446004      10.52680660      10.90003570      -0.00282808       0.00059354       0.00159210
O        6.66462862      13.12954464      11.11399096      -0.00330091       0.00104618      -0.00418240
Br      11.05232632      11.60109706       0.03504824      -0.00304146       0.00381769       0.00420642
O       12.55503044      11.56642669       0.81251089      -0.00244403       0.00061396       0.00266510
O       13.35636904      14.83397130       1.44640429       0.00325865       0.00365055       0.00954235
O       10.14550473      10.45847540       0.74513196      -0.00493875       0.00625849       0.00547382
O       10.52637577      13.08569985       0.65804243       0.00136214       0.00550824       0.00371628
Br      12.90956645      12.13181136       4.95187604       0.00644017      -0.00100408       0.00249231
O       13.24289336      10.58871411       5.26276172       0.00199388      -0.00254428       0.00021689
O       11.44612504      12.30415307       4.22718400       0.00516844       0.00355313       0.00633377
O       12.99659457      13.03838808       6.27858262       0.01214911      -0.00291619       0.00295478
O       13.91214533      12.73479159       3.78501673       0.00485295      -0.00341994       0.00020798
O        9.03619469       1.40213427       4.73841823       0.00108111      -0.00558594      -0.00558515
N       10.96652131       1.94988137       3.62827666       0.00621176       0.00107670       0.00407997
C       10.19728182       2.26155869       2.42209453       0.00828636       0.00905046       0.00535426
C       12.15988963       2.77301421       3.88485554       0.00196539       0.00511864       0.01117286
C       10.23579191       1.58650193       4.73795079       0.00575888      -0.00581609       0.00090945
H       10.87196955       2.22906563       1.56462906       0.01296070       0.02878097       0.00994137
H        9.77625814       3.26695840       2.46287764      -0.00344656       0.00264916       0.01848564
H        9.40525284       1.52409801       2.31642997       0.01688130       0.00277244      -0.00940062
H       12.81449889       2.23938749       4.57653133      -0.01780805       0.02215281       0.03874771
H       11.88146017       3.73998808       4.31180772      -0.00599545       0.01480752      -0.02194068
H       12.68849039       2.90442692       2.94131352       0.02329132      -0.01820985       0.02119455
H       10.85754265       1.46277445       5.63858165      -0.00090083      -0.01324216       0.00008994
O        6.82561900       9.10833388       2.58815923      -0.00353014      -0.00246716       0.00633818
N        6.89477390      11.36779249       2.93465099      -0.00303835      -0.00213647       0.00204991
C        5.58925057      11.44245025       3.54709157      -0.00225560      -0.00035689       0.00324276
C        7.61756630      12.60000810       2.71453459      -0.00155305      -0.00340819       0.00088812
C        7.38395631      10.19634673       2.48938525      -0.00416636      -0.00386381       0.00394662
H        4.87113219      11.93456143       2.88476539      -0.00143996       0.00263363       0.00471860
H        5.62591534      11.99520083       4.48595778      -0.00013742      -0.00205433       0.00422499
H        5.23612577      10.43834500       3.75221618      -0.00455349       0.00027695       0.00167696
H        7.10085667      13.22412669       1.97983548      -0.00108132      -0.00324257       0.00072646
H        8.60317290      12.37598374       2.30907033      -0.00198278      -0.00489411       0.00082278
H        7.73256017      13.15208879       3.64871798      -0.00051977      -0.00293316       0.00041771
H        8.36498772      10.31589083       2.00972414      -0.00437462      -0.00418621       0.00276673
O        3.93569358       3.80066021       0.88005736      -0.00763381       0.00296152       0.00231707
N        3.43182455       1.99462216       2.18390489      -0.00016797      -0.00178927      -0.00243724
C        4.51945242       1.17253775       1.70752014       0.00206320       0.00325199      -0.00572997
C        2.55588168       1.39022257       3.16320338       0.00357600      -0.00692058      -0.00247249
C        3.21604779       3.22292568       1.68883233      -0.00424457      -0.00084615       0.00050157
H        4.12542632       0.29843564       1.18215411       0.00438604       0.00338128      -0.00752033
H        5.11928467       0.82275862       2.54892794       0.00398567       0.00300700      -0.00721043
H        5.14125228       1.75076211       1.03061468      -0.00047840       0.00696015      -0.00469966
H        2.16049148       0.45154785       2.78352334       0.01203436      -0.01070797      -0.00144137
H        1.70631147       2.04229223       3.34455015      -0.00223058      -0.01420651      -0.00492374
H        3.09440163       1.19489829       4.09555379       0.00369242      -0.00122571      -0.00146642
H        2.30582712       3.68627893       2.10040860      -0.00600004      -0.00530532       0.00276482
O        7.34565850       6.49216770       5.05210376       0.00386265      -0.01902652      -0.00052810
N        6.33558316       4.74057780       3.99419770       0.00511691      -0.00079512      -0.00284076
C        5.15066482       5.48788165       3.63867900       0.00766130       0.00402826      -0.00551345
C        6.37412925       3.33786920       3.65708780       0.00225054      -0.00030347      -0.00370318
C        7.34291684       5.33570896       4.67445043       0.00269587       0.01313031       0.00760603
H        4.29157650       5.16019723       4.23544989       0.00703365       0.01001082      -0.00377780
H        4.90954554       5.32423466       2.58764472       0.00691373      -0.00067158      -0.00434995
H        5.34120977       6.54164078       3.82351514       0.01248451       0.00325245      -0.01036739
H        5.54648249       2.80596976       4.13769618       0.00090414       0.00156267      -0.00490686
H        7.30997943       2.89559210       3.99596026       0.00108626      -0.00180381      -0.00290892
H        6.27653370       3.20653835       2.57726006       0.00341500       0.00123404      -0.00344095
H        8.18177130       4.64196278       4.85623390       0.00147027      -0.00581342       0.00484000
O        9.89080601       1.36496986       8.48481009       0.00212765       0.00060678       0.00209886
N       12.04266666       2.13654340       8.58063773       0.00278866      -0.00139871      -0.00238433
C       12.58149773       0.97536005       9.25995379       0.00150282       0.00207178       0.00424415
C       12.96369100       3.19768158       8.24362605       0.00410835      -0.00405941      -0.00727544
C       10.73660398       2.21260264       8.24601500       0.00314939      -0.00180286      -0.00304699
H       13.11335096       1.28873306      10.15910416       0.00070465       0.00648788       0.00313440
H       13.27849564       0.44648899       8.60625576       0.00200632      -0.00130630       0.00775915
H       11.75571784       0.31447240       9.51077658       0.00093555       0.00376324       0.00664928
H       13.49837477       3.52719011       9.13616250       0.00225385       0.00132050      -0.00838876
H       12.40697874       4.02973092       7.81257746       0.00542173      -0.00673926      -0.01399054
H       13.70614547       2.85489829       7.51564965       0.00546056      -0.00930239      -0.00313991
H       10.48609625       3.15865439       7.73472462       0.00419310      -0.00489622      -0.00885978
O        7.27330285       3.17036102      10.53930374      -0.00317526       0.00326725       0.00457558
N        9.01178504       2.55972158      11.89187785       0.00027775      -0.00227164      -0.00275308
C        8.18005857       1.94525268      12.90456870       0.00284399      -0.00224265      -0.00074868
C       10.44307251       2.56808070      12.11663334       0.00099923      -0.00543608      -0.00804145
C        8.47143628       3.10634029      10.79015776      -0.00242651       0.00044307       0.00022671
H        8.09415743       2.59389362      13.78363308       0.00618803      -0.00289723       0.00006276
H        8.62822198       0.99908746      13.20911754       0.00315294      -0.00271359      -0.00280615
H        7.19465324       1.76283195      12.48595948       0.00157204      -0.00105295       0.00226924
H       10.70589200       3.19108538      12.97682534       0.00572430      -0.00569364      -0.00950104
H       10.94572712       2.96152405      11.23450552      -0.00142704      -0.00740314      -0.01026225
H       10.79728077       1.55461339      12.31001615      -0.00084668      -0.00608084      -0.00855264
H        9.23018886       3.52277835      10.11101596      -0.00415319      -0.00022763      -0.00210285
O        9.73799213       8.72405335       6.51520327       0.00291038       0.00452799       0.00180028
N       11.48083451       7.29821184       6.12807233      -0.00140096       0.00218940      -0.00282848
C       10.63705348       6.15784786       5.85142939      -0.00384714       0.00352363      -0.00072241
C       12.91041624       7.12581840       6.06666331      -0.00207190      -0.00012245      -0.00658217
C       10.93246576       8.49452924       6.46042339      -0.00024223       0.00298652      -0.00096498
H       10.78665675       5.37231574       6.59741384      -0.00178016       0.00268307      -0.00213253
H       10.86140015       5.75954240       4.85850445      -0.00793879       0.00420365      -0.00190431
H        9.59612683       6.47273593       5.88791649      -0.00337332       0.00452958       0.00305331
H       13.25621766       6.40483102       6.81432554      -0.00144008      -0.00084251      -0.00768799
H       13.39743086       8.07797240       6.26697047       0.00012029      -0.00106508      -0.00768480
H       13.21195753       6.77509290       5.07521455      -0.00535123      -0.00047353      -0.00738323
H       11.70027085       9.25449173       6.67265216       0.00289667       0.00152379      -0.00226948
O        0.76708310       7.57748921       0.75691975       0.00784039      -0.01722872       0.00474651
N        2.74321827       8.63708162       1.20505113       0.00112963      -0.00259006      -0.00414516
C        2.14009454       9.87466397       1.65289835      -0.00614109      -0.00549886      -0.00619409
C        4.18163776       8.53211747       1.28160552       0.00155981       0.00641964      -0.00421612
C        1.98454834       7.59852389       0.79595539       0.00686562      -0.00939409       0.00257944
H        2.58400798      10.71540969       1.11428650      -0.00961731      -0.00368941      -0.00613803
H        2.31088502      10.02861254       2.72229242      -0.00879595      -0.00377498      -0.00609267
H        1.07252522       9.84888610       1.45056283      -0.00556621      -0.01101566      -0.00763655
H        4.66732545       9.30982271       0.68685686      -0.00339267       0.00951412      -0.00409333
H        4.49550930       7.55800048       0.90838563       0.00762442       0.00857207      -0.00446760
H        4.54154511       8.64261448       2.30425585       0.00075150       0.00785637      -0.00418234
H        2.59986008       6.73099771       0.49413612       0.01238850      -0.00604165       0.00331903
O        5.37092549      11.19506095       8.17976120      -0.01076186       0.00701845      -0.00418591
N        4.22329997      11.08652911      10.15340215      -0.00431810       0.00168061      -0.00101426
C        4.24872595       9.64699766      10.23165068      -0.00268610       0.00154350      -0.00404239
C        3.71297253      11.79540388      11.29915462      -0.00176437      -0.00147915       0.00191605
C        4.83742136      11.73120027       9.13080622      -0.00820047       0.00406677      -0.00176823
H        3.23160718       9.24691021      10.26456493      -0.00205937       0.00013652      -0.00458549
H        4.79331574       9.33309825      11.12595652      -0.00204137      -0.00019597      -0.00486663
H        4.76945559       9.27216290       9.35435331      -0.00311591       0.00410333      -0.00518647
H        2.66896005      11.53022498      11.48865971      -0.00047711      -0.00421281       0.00442808
H        3.78220712      12.86522692      11.12134265      -0.00462386      -0.00107217       0.00363795
H        4.30361935      11.56518015      12.19177622       0.00154734      -0.00175609      -0.00041717
H        4.79132015      12.82572294       9.24967023      -0.00906845       0.00382447       0.00083701
O        1.50124975       2.99264147      10.76872309      -0.00199187       0.00027180      -0.00308353
N        3.66836435       3.61397873      11.13609892      -0.00331241       0.00310770      -0.00123051
C        4.14513000       2.26003017      11.33246484      -0.00213953       0.00353703      -0.00132354
C        4.59735959       4.69216909      11.39885371      -0.00542526       0.00436983       0.00065096
C        2.36515495       3.84695511      10.90832937      -0.00349581       0.00139427      -0.00221312
H        4.30195650       2.07451243      12.39696638      -0.00898729       0.00093382      -0.00085568
H        5.09396941       2.11728591      10.81669613       0.00149980       0.00693607       0.00466965
H        3.38568535       1.57928938      10.95941608       0.00198913       0.00287116      -0.00800385
H        4.86193720       4.70284171      12.45689713      -0.00854311       0.00574828       0.00140363
H        4.12652834       5.63991613      11.13900908      -0.00566986       0.00355048      -0.00166720
H        5.50319426       4.54748707      10.81056553      -0.00363922       0.00491588       0.00334057
H        2.14152441       4.92599075      10.83837963      -0.00494342       0.00102329      -0.00211978
O        3.25996322      11.12882257       5.60505936      -0.01040095      -0.01138520      -0.00743055
N        3.54525623       9.10827083       6.64096411      -0.00643438      -0.00688958       0.00018390
C        4.91325768       8.93026338       6.19999195      -0.00639402      -0.00578175      -0.00019518
C        2.89741947       8.00793967       7.31355868      -0.00444797      -0.00625903       0.00316148
C        2.85064607      10.22078715       6.30789106      -0.00870675      -0.01001048      -0.00318229
H        4.98161146       8.29831136       5.30982872      -0.00599960      -0.00445715      -0.00095528
H        5.49540902       8.46658493       6.99564300      -0.00623769      -0.00650100      -0.00082624
H        5.33965440       9.90511639       5.99401503      -0.00696954      -0.00525248       0.00086673
H        2.68919384       7.18296632       6.62108458      -0.00322086      -0.00839993       0.00530618
H        1.95874315       8.33528483       7.76126188      -0.00487459      -0.00676544       0.00246300
H        3.53905485       7.62506896       8.11013281      -0.00370508      -0.00318112       0.00392520
H        1.83795206      10.22455725       6.74438562      -0.00811011      -0.00977581      -0.00287277
O       13.17060795       8.40542477       9.20788817       0.00259495      -0.00277269      -0.00596500
N       10.92606168       7.99255624       9.44593425       0.00230110       0.00341231      -0.00057819
C       10.52916931       9.36574907       9.67927686       0.00684257       0.00430153       0.00133725
C        9.86757459       7.01140804       9.35882805      -0.00083714       0.00677109       0.00102435
C       12.21118397       7.64797107       9.27059337       0.00075018       0.00002849      -0.00464165
H       10.02657834       9.43994666      10.64478045       0.00859283       0.00470289       0.00205928
H        9.84524881       9.69513231       8.89576097       0.00671130       0.00702883       0.00272420
H       11.41904075       9.98906998       9.68219280       0.00869110       0.00152209       0.00046245
H        9.23240869       7.06406880      10.24482953       0.00127830       0.00847194       0.00228807
H       10.29232693       6.01115430       9.29154790      -0.00416946       0.00554249      -0.00043102
H        9.25433428       7.18697659       8.47231508      -0.00191370       0.00931644       0.00222811
H       12.32539200       6.55219909       9.16786354      -0.00295600      -0.00016975      -0.00668810
O       10.80053265       5.19323716       1.85409312       0.00009298       0.00324404       0.00229132
N       11.08911362       7.33146629       2.60197966       0.00063518       0.00436223      -0.00113352
C        9.67408641       7.60177484       2.75783141       0.00085656       0.00344256       0.00122204
C       11.99405210       8.44130144       2.82120923       0.00036549       0.00530848      -0.00557661
C       11.51819390       6.16040555       2.11320606       0.00066274       0.00428998      -0.00025272
H        9.36559405       8.35439379       2.03312875      -0.00156251       0.00089729      -0.00041395
H        9.45701110       7.97119100       3.76105831       0.00266328       0.00629021       0.00050735
H        9.11803322       6.68577349       2.58321959       0.00140084       0.00243986       0.00536346
H       11.82166007       9.22563729       2.08276587      -0.00426003       0.00485432      -0.00492442
H       13.02035158       8.09753806       2.72210696       0.00005761       0.00622976      -0.01024629
H       11.83441792       8.85842743       3.81601914       0.00456379       0.00580370      -0.00507492
H       12.60779856       6.13737219       1.96021236      -0.00001502       0.00417467      -0.00251287
O       10.82828325       7.57823690      12.55613913      -0.00396252       0.00664973      -0.00087264
N        8.67914908       6.89617842      12.93659024       0.00014770      -0.00088978       0.00408982
C        8.10904847       8.22419117      12.89495007      -0.00496747      -0.00319634       0.00178888
C        7.77447404       5.78927591      13.10462780       0.00571927      -0.00416545       0.01198209
C       10.00666195       6.70181629      12.75394863       0.00115013       0.00482416       0.00266342
H        7.49208526       8.39188522      13.78090780      -0.00376791      -0.00323038       0.00253248
H        7.49906286       8.36686268      12.00064674      -0.00725922      -0.00774755       0.00266773
H        8.91677483       8.95120911      12.88646586      -0.00766811      -0.00030267      -0.00192583
H        7.17688471       5.91930433      14.01172469       0.00729860      -0.00181779       0.01255390
H        8.34228615       4.86487157      13.18750488       0.01061819      -0.00064877       0.01621940
H        7.09539235       5.70181540      12.25169175       0.00442600      -0.01268888       0.01408333
H       10.27417793       5.63312370      12.80292759       0.00529709       0.00554401       0.00550209
O        8.53322613       4.46291132       7.71695566       0.00155056      -0.00209558       0.00576854
N        6.35996826       3.80182285       7.51541215       0.00215763      -0.00180128       0.00170865
C        5.82568379       5.14252376       7.58697120       0.00195787      -0.00186359       0.00212784
C        5.41910486       2.71051975       7.60477280       0.00221908      -0.00186158      -0.00000194
C        7.68668318       3.58070972       7.65472376       0.00212824      -0.00133812       0.00392057
H        5.32031839       5.29798951       8.54569805       0.00032248      -0.00304502       0.00135347
H        5.10552524       5.30534878       6.78237547       0.00342137      -0.00115831       0.00104979
H        6.63941792       5.85341984       7.47806054       0.00208074      -0.00187506       0.00415657
H        4.84088465       2.77493713       8.53097854       0.00156540      -0.00281771      -0.00048658
H        5.95349725       1.76275399       7.59284221       0.00217865      -0.00186753      -0.00056326
H        4.72324144       2.73356293       6.76139889       0.00293504      -0.00105423      -0.00056335
H        7.94479195       2.51250376       7.68322686       0.00185376      -0.00168270       0.00387421
