196
Lattice="13.707268000117562 0.0 0.0 0.0 13.707268000117562 0.0 0.0 0.0 13.707268000117562" Properties=species:S:1:pos:R:3:forces:R:3 energy=-687699.625 stress="2.7502219381858595e-05 0.00020250241504982114 -2.2991959667706396e-05 0.00020250241504982114 -0.0006840181304141879 0.0003440833679633215 -2.2991959667706396e-05 0.0003440833679633215 0.00045229087118059397" pbc="T T T"
Er      15.24916157      12.59545523       0.33407351      -0.00853756      -0.00249978       0.00169608
Br      13.43551856      11.89428603      -1.44378945       0.01243240      -0.00901689      -0.01571412
Br      13.46033686      13.62762926       2.01192601      -0.01418945       0.00883701      -0.00996755
Br      10.14129242      16.70384730       4.45152701      -0.00271948       0.01425856      -0.00101587
O        8.60686845      12.54292119       3.69205416      -0.00266147      -0.00489864       0.00110304
N        7.79604000      12.38671104       1.56242966      -0.00553089       0.00448168      -0.00516915
C        9.10024185      12.33583474       0.93044918      -0.00647043       0.01098185      -0.00285234
C        6.65644100      12.07966184       0.73441496      -0.00311647       0.00372791      -0.00122415
C        7.67794978      12.46107143       2.90935812      -0.00898850       0.00491849      -0.00867236
H        9.16249990      13.08845897       0.14141897      -0.00935964       0.01326066      -0.00197938
H        9.26314253      11.35802584       0.47190521      -0.00489678       0.01225853      -0.00545821
H        9.86361770      12.53405594       1.67820515      -0.00419989       0.01084103      -0.00453976
H        6.70832142      12.65942125      -0.18844752      -0.00360558       0.00169809      -0.00149330
H        5.73245141      12.33258517       1.25406969      -0.00447379       0.00260507      -0.00289257
H        6.63735936      11.01910938       0.46337330      -0.00192864       0.00314501       0.00063661
H        6.62682434      12.43074835       3.24877619      -0.00306278      -0.00395462      -0.00025088
O        3.44479048       1.31134301      10.69992453       0.00538027       0.00794458      -0.00460577
N        2.01626508       2.45771243      12.06625309      -0.00424716       0.00239827      -0.00947922
C        1.22484117       1.28949623      12.39007862      -0.00394841       0.00107180      -0.01348110
C        1.57816806       3.74849254      12.55479393      -0.00736880       0.00090501      -0.00827502
C        3.03675047       2.36011496      11.18907227       0.00058126       0.00589627      -0.00438851
H        0.28524816       1.26400306      11.83871164      -0.00679222       0.00696897      -0.00901732
H        0.96841317       1.29390711      13.45812440       0.00027531      -0.00478613      -0.01235944
H        1.78969833       0.40360229      12.08615245      -0.00740737       0.00158902      -0.02002031
H        0.63549585       4.05364780      12.08926121      -0.00753674      -0.00061764      -0.00899845
H        2.34799235       4.48822574      12.34386063      -0.00867999       0.00284210      -0.00636904
H        1.42823231       3.70642312      13.63634408      -0.00838761      -0.00053862      -0.00842682
H        3.49010924       3.33780108      10.97139035      -0.00036985       0.00741321       0.00003088
O        2.98711344       0.39173848       1.33210709      -0.00147861      -0.00258015      -0.01417489
N        3.79657142       2.16244316       2.49874114      -0.00029235      -0.00696446      -0.00907512
C        5.14393650       1.60955399       2.51732212      -0.00124013      -0.00943923      -0.00417854
C        3.57728438       3.51442279       2.99097802      -0.00237656      -0.01227540       0.00363226
C        2.81766358       1.47695260       1.92331587       0.00007200      -0.00244454      -0.01437730
H        5.76672615       2.22428165       3.16052936      -0.00161214      -0.00735062      -0.00580774
H        5.57283194       1.58214722       1.51401173       0.00071114      -0.01365977      -0.00315607
H        5.11448277       0.59413087       2.90784775      -0.00266223      -0.00781474       0.00003548
H        4.13834453       3.67772339       3.90922145      -0.01066792      -0.02537126       0.01099411
H        2.51808341       3.65921694       3.19035636      -0.00414312      -0.01348742      -0.00461194
H        3.90846937       4.25584649       2.25877142       0.00549203      -0.00441198       0.01533622
H        1.81824687       1.91674840       2.01952577       0.00189301       0.00254999      -0.01936806
O        5.60305294       6.33002105       3.97676237       0.00332403      -0.00227079       0.00832006
N        7.70900705       5.91768578       3.18450079       0.00188822       0.00162300       0.00246580
C        7.33498570       4.76847853       2.38918744       0.00242974      -0.00091809       0.00585096
C        9.11153105       6.28116110       3.15187163       0.00096697       0.00513333      -0.00248142
C        6.80268489       6.60094246       3.89425174       0.00273561       0.00017247       0.00460345
H        7.88620754       3.89030619       2.74349251       0.00271863       0.00036290       0.00871596
H        7.59591223       4.95196434       1.34312875       0.00297579      -0.00391740       0.00549942
H        6.26295559       4.62101702       2.48946025       0.00246131      -0.00085790       0.00623859
H        9.70959086       5.41790458       3.46085561       0.00407164       0.00690097      -0.00360881
H        9.28438074       7.11093246       3.83340219       0.00101588       0.00626145      -0.00377192
H        9.39156972       6.59298771       2.14256360      -0.00305310       0.00474782      -0.00367579
H        7.24625186       7.46000481       4.42219020       0.00226450       0.00162733       0.00268066
O       12.49017139       4.01691676       8.69095946      -0.00372845      -0.00281596      -0.00189781
N       12.17253823       1.78262246       8.33750862      -0.00294188      -0.00164163      -0.01113956
C       12.87661954       1.37163617       9.53143559      -0.00247565      -0.00590767      -0.01311436
C       11.60884736       0.74326940       7.50089189      -0.00165611       0.00146876      -0.01598873
C       12.06330575       3.08473990       8.00916756      -0.00385609      -0.00023305      -0.00569564
H       13.71259054       0.71424120       9.27935996      -0.00171876      -0.00390738      -0.01581006
H       12.21734850       0.82272922      10.20986626      -0.00189492      -0.00921714      -0.01525034
H       13.25351970       2.26523881      10.02273865      -0.00334567      -0.00745648      -0.00959341
H       12.38428331       0.02832730       7.21764019      -0.00055754       0.00383753      -0.01908310
H       11.18376764       1.18459211       6.59806225      -0.00216374       0.00478055      -0.01412746
H       10.82990133       0.20204666       8.04580466      -0.00095797      -0.00201689      -0.01851758
H       11.54107891       3.23222330       7.04848660      -0.00434795       0.00334386      -0.00460684
O        8.93846514       4.97198468      13.06446400       0.01111215      -0.00695741       0.01117021
N       10.55376866       3.41365159      12.66296220       0.00587496      -0.01277618       0.01305480
C       10.34639842       3.40300745      11.23036008       0.01189935      -0.00732097       0.01215981
C       11.58174687       2.55225767      13.20620693       0.00047910      -0.01823194       0.01466890
C        9.82197461       4.21855689      13.45605743       0.00608474      -0.01161224       0.01249508
H       10.08925828       2.39417604      10.89279609       0.00975799      -0.00536570       0.00788381
H       11.24564809       3.71682122      10.69470680       0.01510927      -0.00895715       0.01658374
H        9.53179083       4.08636432      10.99976637       0.01547465      -0.00354059       0.01067279
H       11.38144285       1.50272304      12.97645933      -0.00003009      -0.01625890       0.00598481
H       11.62452010       2.66713373      14.28684677      -0.00677289      -0.02624691       0.01582098
H       12.55021059       2.81864093      12.78012800       0.00402981      -0.01735435       0.02354506
H       10.09080924       4.12010485      14.52077726       0.00167251      -0.01596757       0.01328838
O        9.17843950       9.18835135       6.37698044       0.00293371       0.00220335      -0.00010279
N       10.64068515       7.42590066       6.43819333       0.00409788       0.00300901       0.00146564
C       11.84088656       8.22786890       6.36231444       0.00354294       0.00390457       0.00107353
C       10.81544247       5.98709086       6.44621177       0.00511513       0.00296597       0.00212300
C        9.41686733       7.98468782       6.42674838       0.00381684       0.00141168       0.00124704
H       12.36592802       8.02555863       5.42433753       0.00400661       0.00352725       0.00136665
H       12.51266572       7.99082890       7.18782298       0.00355814       0.00556006       0.00159052
H       11.56549267       9.27709728       6.40524085       0.00250754       0.00380617      -0.00007801
H       11.38223164       5.66024904       5.57195075       0.00420317       0.00296918       0.00146976
H        9.84714056       5.49431234       6.39276878       0.00509682       0.00267465       0.00393337
H       11.34719991       5.66675049       7.34585851       0.00630572       0.00380630       0.00170931
H        8.61681829       7.23024103       6.48171366       0.00425613       0.00139779       0.00215507
O        2.00071339      10.71597552       1.34293549       0.00244997      -0.00166237       0.00179061
N        3.74121664       9.37906916       1.92024054       0.00127432      -0.00389227       0.00169051
C        3.95988485      10.01390511       3.20814801       0.00403836      -0.00301906       0.00075230
C        4.66485531       8.32148794       1.55598215      -0.00123155      -0.00688788       0.00313727
C        2.79282707       9.77998443       1.09957914       0.00118381      -0.00302148       0.00222543
H        4.88381448      10.59168324       3.18954905       0.00555122      -0.00546221      -0.00101057
H        4.05694786       9.23825227       3.96659896       0.00294786      -0.00234139       0.00151247
H        3.13052031      10.67180012       3.44187009       0.00593725      -0.00064757       0.00094804
H        5.68539794       8.71164091       1.58038321      -0.00025827      -0.00960700       0.00415328
H        4.42794375       7.96436211       0.55821554      -0.00092220      -0.00712478       0.00309783
H        4.60082458       7.50634847       2.27719064      -0.00428379      -0.00602961       0.00389487
H        2.73493865       9.23060455       0.15470559      -0.00010558      -0.00429231       0.00300679
O        3.35739517      12.05080500      12.71642781      -0.00859755       0.00842077       0.00812532
N        5.07430716      11.94447674      11.20359580      -0.01377267      -0.00091159       0.00556677
C        4.84024279      10.58118779      10.75689892      -0.02326857      -0.00191802       0.01318944
C        6.17873004      12.63151797      10.55763783      -0.01170152      -0.00856905       0.00078194
C        4.32341618      12.55554426      12.10801126      -0.00855166       0.00494832       0.00553811
H        5.75702847      10.00377882      10.87633113      -0.03022805      -0.01070981       0.02320973
H        4.57348955      10.58823866       9.69821508      -0.01770786      -0.00634523       0.01179132
H        4.03785302      10.12780654      11.32532347      -0.03111291       0.00926829       0.01108816
H        7.10939818      12.08746689      10.73701747      -0.01315856      -0.01027200       0.00325697
H        6.25328634      13.64262012      10.94887035      -0.00848526      -0.00621225      -0.00545347
H        5.99820815      12.68810757       9.48200325      -0.01249804      -0.01428036       0.00068566
H        4.62644020      13.58994707      12.29700178      -0.00510518       0.00443420       0.00293398
O        4.72267952       4.72345059      12.34573356      -0.00108516       0.00188380       0.01411098
N        6.28933172       3.07008118      12.12474439       0.00249102       0.00565042       0.00866094
C        6.23677067       3.02713492      10.67584685       0.00466333       0.01192876       0.00841653
C        7.17175598       2.15042599      12.80532868       0.00185686       0.00267193       0.00542338
C        5.52934586       3.93721350      12.82082549      -0.00005382       0.00081593       0.01172849
H        5.63311606       2.18656316      10.32251388       0.00614643       0.01266485       0.00400740
H        7.25118183       2.93338911      10.28794040       0.00542879       0.01465279       0.00985873
H        5.79593294       3.95427532      10.31611486       0.00429474       0.01301605       0.01174732
H        6.76709481       1.13368184      12.81498351       0.00130394       0.00274959       0.00135881
H        7.32053825       2.47749810      13.83257701       0.00225572      -0.00120603       0.00659510
H        8.14453104       2.13188001      12.31491907       0.00179160       0.00406710       0.00521722
H        5.71673222       3.86853813      13.90529537      -0.00158446      -0.00390219       0.01152092
O        5.04644243      11.84699154       5.47588639       0.00165582      -0.00119054      -0.00060433
N        4.96350778       9.88179033       6.64609295       0.00361407      -0.00062948      -0.00008716
C        3.52318779       9.87111448       6.78680205       0.00371009      -0.00134017       0.00095651
C        5.68250086       8.70352166       7.09524895       0.00450411      -0.00004365       0.00025187
C        5.59523093      10.88189255       5.99329808       0.00233799      -0.00013065      -0.00072491
H        3.24546887       9.69543263       7.82768598       0.00476962      -0.00318608       0.00090098
H        3.08054049       9.06821007       6.18944315       0.00344642      -0.00046694       0.00007172
H        3.13185855      10.82796887       6.45129384       0.00315318      -0.00087768       0.00283377
H        5.40050823       8.46156966       8.12100677       0.00528654       0.00088464       0.00061327
H        6.75406414       8.89106432       7.04628342       0.00436214       0.00061917      -0.00063933
H        5.44579235       7.84156318       6.46445083       0.00446138      -0.00061771       0.00118417
H        6.68928389      10.73749846       5.96625971       0.00264388       0.00042240      -0.00102315
O       13.93904789       8.42020340       9.23313015       0.00349367      -0.01195455       0.00484407
N       11.78729012       8.06764104       9.95031925       0.00222191       0.00012186       0.00730517
C       11.25327619       9.34951541       9.53277837       0.00929929       0.00433612       0.01119325
C       10.86438330       7.12579563      10.53897073      -0.00335477       0.00358887       0.00398994
C       13.08254224       7.74264940       9.78058636      -0.00022423      -0.00800180       0.00408018
H       10.83725663       9.87512666      10.39357016       0.00084072      -0.00198400       0.01113409
H       10.45769402       9.20711610       8.79714051       0.01684716       0.01199963       0.00126335
H       12.05792616       9.93410532       9.09594304       0.01542988       0.00668265       0.02563341
H       10.32910006       7.57892314      11.37577817      -0.00305483       0.00575429       0.00296941
H       11.41286851       6.25532092      10.89354886      -0.00835569       0.00093500       0.00517975
H       10.13097561       6.79415407       9.79843144      -0.00306356       0.00759006       0.00194332
H       13.29939243       6.74461193      10.19923495      -0.00628966      -0.01068109       0.00076520
O        8.17756130       9.15151590       2.13190038      -0.00103295       0.00640160      -0.00639069
N       10.27921673       9.78578177       2.78868528      -0.00036067       0.00731485      -0.00982746
C       10.95901715       9.28892828       1.61125635      -0.00219788       0.01422703      -0.01366681
C       11.07884915      10.53874512       3.73753476       0.00075720       0.00184008      -0.00666004
C        8.95276237       9.64743758       2.95074851      -0.00049311       0.00403303      -0.00718236
H       11.72149525       8.56295777       1.90896554      -0.00386015       0.01003440      -0.01959270
H       11.45380538      10.10117146       1.07392905      -0.00025027       0.01718187      -0.00748396
H       10.23473433       8.80353484       0.96256648      -0.00355336       0.02076386      -0.01702331
H       11.95318564       9.95345274       4.02752780       0.00004515      -0.00078523      -0.00963367
H       10.48089233      10.76035739       4.61762154       0.00126383      -0.00165144      -0.00543615
H       11.42427277      11.47310157       3.29041324       0.00169592       0.00338474      -0.00279924
H        8.61830402      10.02147957       3.92743000       0.00219256      -0.00092366      -0.00406885
O        8.56520003      10.06198874      11.67104504      -0.01448786       0.01732218      -0.00465798
N        7.42556675       8.08737412      11.87791186       0.00095494       0.00813279      -0.00428799
C        7.40769173       7.75671562      10.46857679      -0.00416723       0.01252458      -0.00531441
C        6.71329791       7.17628529      12.74723787       0.01247866      -0.00021936      -0.00312357
C        8.01873936       9.19636036      12.35122792      -0.00537318       0.01093763      -0.00381297
H        6.37969338       7.70399478      10.10774170      -0.00562209       0.00945599      -0.00078509
H        7.85820943       6.77374897      10.32027622      -0.00083448       0.01499304      -0.01112721
H        7.97182116       8.50278138       9.91479431      -0.00990659       0.01708344      -0.00523853
H        5.65096842       7.17106585      12.49500835       0.01142359      -0.00898068       0.00141469
H        6.86294772       7.47609736      13.78280851       0.01393746      -0.00079961      -0.00303593
H        7.10263750       6.16916710      12.62139186       0.02082837       0.00318325      -0.00638972
H        7.96558258       9.25323537      13.45223404      -0.00072944       0.00804812      -0.00377709
O        7.19254502       5.98223792       7.78268238       0.00357765      -0.00582838      -0.00165805
N        7.40334974       3.76939349       7.23339181       0.00493929      -0.00400069       0.00365609
C        6.54589527       3.83192689       6.06717275       0.00716974      -0.00985203       0.00164361
C        8.08459263       2.51293878       7.46879642       0.00368215      -0.00328186       0.00998710
C        7.66305568       4.86493028       7.96149614       0.00497276      -0.00356507       0.00215305
H        5.74521922       3.09321396       6.16121938       0.00754626      -0.01059636       0.00352725
H        7.14419556       3.60631809       5.17977794       0.00856709      -0.01140534       0.00257158
H        6.12039407       4.82772928       5.98467775       0.00933785      -0.00974330       0.00049855
H        7.35695486       1.71826665       7.65536450       0.00244096      -0.00674145       0.01087219
H        8.73584913       2.61427435       8.33608520       0.00643055      -0.00584412       0.01271684
H        8.69130114       2.26429551       6.59247864       0.00836235      -0.00800919       0.00566223
H        8.37977926       4.65607313       8.77596798       0.00366637      -0.00481424       0.00393903
O        4.02494267       7.55315894      10.15601137      -0.00182807       0.00462002      -0.00221835
N        2.93133066       5.78588597       9.19014902       0.00044659       0.00341190      -0.00281067
C        3.96248081       5.50163755       8.21805297       0.00293478       0.00216852       0.00020801
C        1.69265299       5.05116069       9.06141781       0.00001445       0.00452617      -0.00576984
C        3.05803306       6.80949568      10.05923396      -0.00210845       0.00452936      -0.00384301
H        3.62672641       5.76266807       7.20924825       0.00633338       0.00229676      -0.00088647
H        4.19965905       4.43480572       8.23564329       0.00189695       0.00195605       0.00125208
H        4.85543578       6.07238581       8.45144342       0.00282389       0.00137007       0.00260973
H        1.14950865       5.32745599       8.15480673       0.00040522       0.00783069      -0.00509024
H        1.04938086       5.25480910       9.91216440      -0.00008383       0.00204620      -0.00531287
H        1.88746942       3.97667753       9.03093746      -0.00032556       0.00461471      -0.00907806
H        2.17378170       6.91395393      10.70755718      -0.00371939       0.00589447      -0.00667903
