193
Lattice="13.453474846862507 0.0 0.0 0.0 13.453474846862507 0.0 0.0 0.0 13.453474846862507" Properties=species:S:1:pos:R:3:forces:R:3 energy=-463124.96875 stress="-0.00036905810702592134 0.0003922408650396392 0.00024021858553169295 0.0003922408650396392 -0.0005406846757978201 0.0004881016648141667 0.00024021858553169295 0.0004881016648141667 -0.002639269921928644" pbc="T T T"
Er      11.45274773      14.63158325       0.31185769      -0.00046676      -0.00632757      -0.00039440
O        1.71914252       9.11376764       9.42257985      -0.00293720       0.00253510       0.00403035
O        1.13994673      10.88188003       8.14069836       0.00055075      -0.00974238      -0.01395631
C        3.32812304      10.78217956       9.00717582      -0.00388122       0.00156915      -0.00177281
C        3.59972741      12.11701836       8.71906126      -0.00603549       0.00108154      -0.00539923
C        4.37612740       9.95210910       9.38879504      -0.00323418       0.00557357       0.00471458
C        4.90209415      12.60196102       8.78022430      -0.00758848       0.00457209      -0.00237223
C        5.68037691      10.42409388       9.42202813      -0.00460120       0.00885057       0.00718279
C        5.95329549      11.75117768       9.11098013      -0.00661731       0.00834118       0.00365755
C        1.92008730      10.20769218       8.84559079      -0.00169158      -0.00222349      -0.00421587
H        2.76961826      12.75231595       8.43717927      -0.00644621      -0.00188167      -0.01051679
H        4.13705195       8.92086990       9.61223260      -0.00124224       0.00595807       0.00799429
H        5.10573567      13.64244324       8.54969947      -0.00958199       0.00425036      -0.00523799
H        6.49890188       9.75665995       9.65651913      -0.00416631       0.01143371       0.01231875
H        6.97929709      12.10233024       9.10705279      -0.00741231       0.01050275       0.00523097
O        4.22296901      10.88387754       2.56382535       0.00326937       0.00876594       0.00221121
O        5.79189857       9.27691557       2.68538067       0.00021863       0.00505763      -0.01019552
C        3.58596122       8.74544114       3.35372830       0.00153488       0.00676233      -0.00536126
C        3.97021737       7.50246111       3.85091270       0.00149736       0.00523994      -0.00956415
C        2.23121955       9.06868400       3.33012725       0.00207259       0.00888541      -0.00003681
C        3.01858623       6.59733902       4.30119401       0.00196770       0.00603922      -0.00721323
C        1.27334503       8.16220242       3.76560438       0.00252974       0.00952321       0.00215116
C        1.66797889       6.91995626       4.25164670       0.00238128       0.00839484      -0.00112188
C        4.63124799       9.72962192       2.82497290       0.00157142       0.00686383      -0.00450569
H        5.02744416       7.26921844       3.87054365       0.00121668       0.00408832      -0.01328036
H        1.94382788      10.04735695       2.96897502       0.00219524       0.00985104       0.00266499
H        3.32917951       5.63973929       4.70417899       0.00207867       0.00497366      -0.01004096
H        0.22334841       8.41881338       3.72060509       0.00281408       0.01082201       0.00637037
H        0.92313292       6.21586581       4.60640277       0.00268579       0.00937993       0.00114365
O        8.79672819       9.40698864       7.83039231      -0.00880635       0.00135469      -0.00053716
O        9.68414822      11.37463031       8.50524382      -0.02609825       0.00755811      -0.00095457
C        9.17622583       9.74734819      10.12331084      -0.01174769      -0.00774166      -0.00496972
C        9.44079769      10.64184339      11.15517431      -0.00645582       0.00441107      -0.00613137
C        8.72384350       8.46674386      10.42186048      -0.00494066      -0.00240032       0.00048122
C        9.19116011      10.28001820      12.46844644      -0.00260954      -0.00265075       0.00311159
C        8.47923839       8.09823642      11.73733312       0.00247484       0.00033197       0.00032859
C        8.69393398       9.01441332      12.75967776       0.00349018       0.00033056       0.00099391
C        9.24434322      10.21526869       8.67112589      -0.01573141       0.00326920      -0.00117803
H        9.80339239      11.62468235      10.87812067      -0.00607973       0.01034951      -0.00768694
H        8.53573098       7.80360214       9.58778651      -0.00489230       0.00125898       0.00192639
H        9.34071374      10.99115530      13.27198462       0.00110080       0.00218910      -0.00125301
H        8.08713509       7.11457723      11.97193747       0.00688544      -0.00112143       0.00232723
H        8.44500948       8.75287882      13.77826093       0.00850709      -0.00041867       0.00031015
O       11.78119922       8.48358443       2.12431887       0.00706235      -0.00467531       0.00009251
C       11.67262660       7.44760392       1.16743775       0.00960366      -0.00407445      -0.00063041
C       11.28989522       9.70854178       1.61122055       0.00801975      -0.00417483       0.00069213
C       12.04842105       6.14040822       1.82006486       0.00823410      -0.00421619      -0.00020120
C       11.53492477      10.81145885       2.60508855       0.00954269      -0.00505367       0.00140944
H       10.64554019       7.40751288       0.77911617       0.01067972      -0.00426134      -0.00337008
H       12.32780383       7.66330750       0.31160734       0.01187643      -0.00376381       0.00134197
H       11.77040981       9.92309495       0.64455146       0.00791004      -0.00429778       0.00078815
H       10.21703272       9.60377931       1.41667012       0.00787473      -0.00299248       0.00082628
H       11.92491038       5.32170511       1.10807130       0.01139038      -0.00392354      -0.00112283
H       13.08388624       6.16049296       2.15996336       0.00710687      -0.00382310       0.00304743
H       11.40210709       5.95093732       2.67851178       0.00558166      -0.00495866      -0.00241987
H       11.17470539      11.75745792       2.18185552       0.00746239      -0.00499995       0.00361310
H       10.99650089      10.63072181       3.53605067       0.01226617      -0.00678482       0.00261652
H       12.59486792      10.93285776       2.82757044       0.00994125      -0.00434090      -0.00123872
O       10.68087209       1.63332721       2.61077712       0.00091217      -0.00990506       0.00415450
C       11.71824656       1.54611904       3.63103893       0.00130153      -0.00460142       0.00436363
C        9.42601809       0.96342805       2.93245152      -0.00104549      -0.00265938       0.01333943
C       12.51098993       2.82791871       3.65592330       0.00820631      -0.00928405      -0.01067114
C        8.27619182       1.69292910       2.28643283       0.00137573      -0.01618293      -0.00388265
H       11.22549478       1.37293528       4.58728297      -0.00054063       0.01051028       0.00545070
H       12.35692740       0.67901576       3.42187186      -0.00489512      -0.01105589       0.01438918
H        9.48969103      -0.07713019       2.59288130      -0.00013064      -0.00882733       0.03531106
H        9.32119919       0.94760629       4.01449064      -0.00270930       0.02186302       0.01294130
H       13.33442862       2.72407884       4.36340325       0.00856283      -0.00654931      -0.01107714
H       12.94411316       3.05766449       2.67904072       0.00875288      -0.02228508      -0.01373821
H       11.89081767       3.67052586       3.96219259       0.01372676      -0.00239511      -0.01838321
H        7.39056729       1.05787784       2.30672280      -0.00014712      -0.01295668       0.01448642
H        8.04245130       2.61375060       2.81692364       0.00393282      -0.00158837      -0.02836809
H        8.48861415       1.92825269       1.24082195      -0.00020446      -0.04525533      -0.01045862
O        7.17151268       3.34874287       5.09495253       0.00323713      -0.00699636      -0.00524433
C        5.86406705       3.39794775       5.63782544       0.00342342      -0.00799221      -0.00468714
C        7.82843048       4.60595805       5.22364056       0.00335008      -0.00753692      -0.00157869
C        5.20249578       2.05344094       5.46959741       0.00417653      -0.00820434      -0.00494284
C        9.19894170       4.50093075       4.60231286       0.00483799      -0.00648383       0.00166628
H        5.91949352       3.67480687       6.70144485       0.00393972      -0.00869902      -0.00461984
H        5.28909641       4.18772546       5.13233744       0.00276148      -0.00804329      -0.00388232
H        7.24047520       5.38170829       4.72428625       0.00495079      -0.00628737      -0.00136307
H        7.91103954       4.86995929       6.28371397       0.00084437      -0.00953130      -0.00101101
H        4.19501364       2.07471446       5.88709743       0.00464560      -0.00916410      -0.00395170
H        5.12863918       1.78835289       4.41507181       0.00321750      -0.00767650      -0.00494298
H        5.76647025       1.27464226       5.98258103       0.00511713      -0.00801823      -0.00593932
H        9.78995222       5.38296878       4.85031375       0.00299082      -0.00562826       0.00265180
H        9.71577031       3.62019681       4.98757390       0.00538328      -0.00529005       0.00342546
H        9.13510721       4.42653130       3.51605151       0.00732211      -0.00708274       0.00161412
O       10.02921532       5.08646213       8.16795997      -0.00038062      -0.00232160      -0.00033481
C        9.05061635       4.17102849       8.61432046      -0.00068289      -0.00139406       0.00090636
C       11.23795055       4.45320793       7.79834829       0.00091994      -0.00263405       0.00515801
C        7.84536067       4.95131875       9.08283370      -0.00169989      -0.00076479      -0.00301944
C       12.21667012       5.50325029       7.33749803       0.00142702      -0.00373054       0.00404187
H        8.78175453       3.48153860       7.79855233       0.00084920      -0.00386256       0.00260955
H        9.46102488       3.55430758       9.42994546      -0.00173360       0.00120282       0.00328627
H       11.64000910       3.89033442       8.65448806      -0.00083305       0.00080000       0.00814494
H       11.04061752       3.72249462       6.99772439       0.00379832      -0.00570658       0.00731659
H        7.02322796       4.28496455       9.34595599      -0.00168525      -0.00057852      -0.00285614
H        8.09161255       5.54811031       9.96059738      -0.00353871       0.00135823      -0.00409853
H        7.50558545       5.63435891       8.30431302      -0.00078649      -0.00273356      -0.00505278
H       13.14997226       5.03643836       7.02130749       0.00276355      -0.00429616       0.00907227
H       11.80701962       6.07032881       6.50192762       0.00386071      -0.00743742       0.00044547
H       12.44205414       6.20945947       8.13525579      -0.00178026      -0.00044705       0.00189295
O        7.21175636       6.66088805       2.81735911       0.00855780      -0.00101496       0.00139272
C        8.31183187       7.55846037       2.87173496       0.00222230       0.00684801       0.00324702
C        6.81490492       6.41504156       1.48552585       0.01006931      -0.00073689       0.00097647
C        8.50988060       8.09928149       4.26158136      -0.00027591       0.00094154       0.00561821
C        5.51916701       5.64101355       1.45922366       0.02054870      -0.01778331       0.00055181
H        9.21121976       7.04170853       2.50180338       0.00538188       0.01474994       0.00005960
H        8.09504835       8.40093787       2.20660625      -0.00507107       0.00805169       0.00729519
H        6.68378089       7.37265280       0.96572961      -0.00290912      -0.00051218       0.00500080
H        7.61165185       5.85583611       0.96431143       0.01635960       0.01142931      -0.00218327
H        9.42151953       8.69568541       4.30597573      -0.00627933       0.00982422       0.00799933
H        7.67462330       8.74241254       4.51743793      -0.00603813      -0.00891903       0.01111777
H        8.59065726       7.31699190       5.01484747       0.00892843      -0.00280426       0.00066342
H        5.34018146       5.27432735       0.44891184       0.02017743      -0.01188061      -0.00148609
H        5.56248802       4.78777360       2.13984517       0.03550656      -0.02256224      -0.00657977
H        4.68727194       6.27553790       1.75883851       0.01359698      -0.03134571       0.00962961
O        4.60757480      10.87078532      12.67570930      -0.01078945      -0.00379294       0.00782917
C        5.94701021      11.28657352      12.82638916      -0.01213536      -0.00134319       0.01457665
C        4.51080920       9.46349321      12.81070236      -0.00989246      -0.00396162       0.00470706
C        6.02314528      12.78239634      12.64387660      -0.01553866      -0.00113195       0.01590948
C        3.06319723       9.05580657      12.71925420      -0.00965238      -0.00421707       0.00295768
H        6.31141042      10.98951885      13.82081061      -0.01668298      -0.00126180       0.01617658
H        6.56958572      10.78879239      12.07088850      -0.00755173       0.00064158       0.01715529
H        5.10236468       8.98542391      12.01266841      -0.00920638      -0.00195429       0.00409961
H        4.94971316       9.16558460      13.77228509      -0.01018816      -0.00603327       0.00398469
H        7.06888614      13.10258090      12.65971916      -0.01687060       0.00209613       0.02239847
H        5.59462674      13.06188176      11.68089855      -0.01081938      -0.00174695       0.01376760
H        5.48300129      13.29830676      13.43856353      -0.02189939      -0.00348976       0.01308112
H        2.97817792       7.97239710      12.81664520      -0.00987016      -0.00402790       0.00441177
H        2.50472785       9.50841346      13.53779390      -0.01072589      -0.00325975       0.00164808
H        2.62112223       9.34206921      11.76239255      -0.00837946      -0.00528966       0.00209591
O        1.15047395      12.45646816       3.02977880       0.00514972       0.01276097      -0.01050980
C        2.03919472      12.83496026       4.08594595       0.00469419       0.01393103      -0.01067686
C        1.76170142      12.61513110       1.75447333       0.00537845       0.00999546      -0.01065224
C        1.44569465      12.44145692       5.41221167       0.00493172       0.01330532      -0.01073682
C        0.94819194      11.87997059       0.71853119       0.00133729       0.01304376      -0.00928721
H        3.00062123      12.33522053       3.92354571       0.00529546       0.01527056      -0.01057182
H        2.20629349      13.92387698       4.03510600       0.00271736       0.01408261      -0.01046991
H        1.82922442      13.68845495       1.50966257       0.01007742       0.00957638      -0.01131998
H        2.77397625      12.20040196       1.78630402       0.00365841       0.00584480      -0.01087514
H        2.09500312      12.75817490       6.22680081       0.00562401       0.01267654      -0.01100798
H        0.46155252      12.88527561       5.57461009       0.00525026       0.01374381      -0.01022906
H        1.34569885      11.36251472       5.50951341       0.00448299       0.01342499      -0.01118159
H        1.44150562      11.93433919      -0.25277410       0.00038569       0.00937269      -0.00987105
H        0.84940159      10.82802897       0.98812335      -0.00391136       0.01413307      -0.00777812
H       -0.07169215      12.28502173       0.62719259       0.00294694       0.01752944      -0.00798704
O        5.54948528       3.99745674      11.86760510      -0.00357726      -0.00310534      -0.00435443
C        4.15471699       3.73500908      11.88881029      -0.00385371      -0.00104231      -0.00271672
C        6.29572171       2.86426839      12.26504170      -0.00389731      -0.00391567      -0.00562345
C        3.41273901       4.99550009      11.52761115      -0.00223581       0.00077575       0.00047059
C        7.76072258       3.22181833      12.28014312      -0.00387648      -0.00331603      -0.00174244
H        3.92620575       2.92154344      11.18460729      -0.00635702       0.00059336      -0.00360417
H        3.86736332       3.38550296      12.89181108      -0.00306435      -0.00221814      -0.00297940
H        5.96691524       2.53609136      13.26258795      -0.00582086      -0.00582498      -0.00702387
H        6.10526386       2.03211514      11.57387504      -0.00277004      -0.00245887      -0.00768813
H        2.33813234       4.81315233      11.51625673      -0.00253242       0.00289637       0.00192956
H        3.61831268       5.78453409      12.24963620       0.00040569      -0.00079013       0.00123364
H        3.70673577       5.35248064      10.54254552      -0.00342500       0.00186095       0.00054008
H        8.35093205       2.33417743      12.52331779      -0.00351743      -0.00361778      -0.00532160
H        8.08637319       3.57662401      11.30629992      -0.00392447       0.00238481       0.00040394
H        7.97200212       3.99529281      13.01972726      -0.00664868      -0.00653204       0.00198096
O        4.29911471       7.60947385       7.12392046      -0.00257689       0.00702214      -0.00080708
C        5.68771397       7.88402785       7.03187499      -0.00324184       0.01000983      -0.00138748
C        4.01954482       6.41574859       7.80836432       0.00014037       0.00783157       0.00134534
C        5.89414752       9.20649776       6.34000611      -0.00671689       0.01077020      -0.00058004
C        2.52579529       6.30287928       8.00403896       0.00031054       0.00462508       0.00021282
H        6.12253203       7.90665815       8.04277792      -0.00251675       0.01047453      -0.00184852
H        6.19233315       7.06997630       6.48347770      -0.00182810       0.01159382      -0.00229046
H        4.41230886       5.55402076       7.24006937       0.00288941       0.00759041       0.00358805
H        4.54193206       6.41476699       8.78034289      -0.00085086       0.01125853       0.00178087
H        6.92515893       9.52482125       6.50022063      -0.00670275       0.01144882      -0.00269079
H        5.69301008       9.13711392       5.27268841      -0.00936743       0.01149740      -0.00004405
H        5.22597778       9.95085318       6.76990109      -0.00630359       0.00972301       0.00176074
H        2.28045259       5.35938762       8.49591301       0.00204374       0.00530206       0.00214785
H        2.15081564       7.14102688       8.59777672      -0.00203316       0.00490960      -0.00176570
H        2.02799281       6.32804697       7.03480836       0.00119159       0.00126253      -0.00023688
O       10.56081382      10.73437552       5.63336026       0.00088841      -0.00251704       0.00164516
C       10.23491831      12.09755904       5.72263983      -0.00348419      -0.00341618      -0.00079468
C       11.86512143      10.43266233       6.11547589      -0.00365099       0.00072759       0.01615097
C        8.73228285      12.24253328       5.64430802      -0.00312918      -0.00781627      -0.01083830
C       11.96553173       8.94023489       6.29687131       0.00069608       0.00030547       0.00921614
H       10.58498362      12.48917569       6.68394232      -0.01119776      -0.00243354       0.00133920
H       10.74043749      12.64971926       4.90820836       0.00076672      -0.00204995       0.00290293
H       12.61587628      10.79040037       5.39762515       0.00372785       0.00809759       0.02755427
H       12.03938123      10.94155868       7.06815969      -0.01867324      -0.00344715       0.02119058
H        8.44241350      13.28971789       5.76221766      -0.00711316      -0.00901775      -0.01116480
H        8.33153350      11.86492560       4.70100256       0.00447803      -0.00747140      -0.01409969
H        8.30093783      11.67206560       6.46460587      -0.00657291      -0.01024538      -0.01455206
H       12.94405491       8.69980884       6.71485520      -0.00148202       0.00249968       0.01534934
H       11.18088438       8.60679780       6.97635945      -0.00312307      -0.00631791       0.00143549
H       11.84034733       8.42384461       5.34120339       0.00981067       0.00472166       0.00576785
