196
Lattice="13.1936719604476 0.0 0.0 0.0 13.1936719604476 0.0 0.0 0.0 13.1936719604476" Properties=species:S:1:pos:R:3:forces:R:3 energy=-1125671.25 stress="-0.00030260486528277397 -0.00015963897749315947 5.231736759014893e-05 -0.00015963897749315947 0.000997362774796784 -6.838257468189113e-05 5.231736759014893e-05 -6.838257468189113e-05 0.00015374859503936023" pbc="T T T"
Es      12.31624242      13.01943203      -1.08275800      -0.00189513      -0.02140770      -0.04474998
Cl       6.12937808      11.35675807       6.36306341      -0.00604546      -0.00572461      -0.01963490
O        7.52551922      11.96047591       5.99998590       0.00582194      -0.01551318       0.00733531
O        6.07792214       9.82455145       6.02606189      -0.00652373      -0.00898790      -0.00618157
Cl       0.76674699      12.20760641       6.80277978       0.00410843      -0.01101184       0.00598520
O        1.02459453      11.65529780       8.25825876      -0.01125950      -0.00826898       0.01044768
O        1.71547209      13.39995874       6.46200625       0.00752449      -0.01284111       0.01351112
Cl       6.54914096      13.46073956       3.53959891       0.00380042       0.00215942       0.00408697
O        5.66341151      13.95936854       2.36555596      -0.00249052      -0.00182831       0.00717175
O        8.06480391      13.80729056       3.27424047       0.00089061       0.01013303      -0.00027583
O       10.66993133      11.37203275      11.71925025      -0.01264611      -0.00108129       0.00709841
C       11.19353311      10.03421687      11.63839873      -0.00242762       0.00378710      -0.00143133
H       10.41224203       9.30310614      11.85040558      -0.00085923       0.00013068      -0.00945283
H       11.98288451       9.93973059      12.38178593      -0.00354530       0.00137999       0.00029793
H       11.60658967       9.83823246      10.64561100       0.00011791       0.01260632      -0.00223336
H        9.81967887      11.43241537      11.17300397      -0.00931738       0.00327829      -0.00117114
O       11.49900904       8.75991735       4.33781636       0.00530529      -0.00370142      -0.00603440
C       11.66075486       9.61444612       5.46591039       0.00526337      -0.00300623      -0.00616091
H       10.72757623       9.70649537       6.02658317       0.00872368      -0.01283075       0.00123504
H       11.99454447      10.61154147       5.16365155      -0.00868529       0.00121272      -0.00674096
H       12.41870973       9.18444542       6.12187382       0.01488125       0.00434186      -0.01308094
H       10.70391824       9.08630710       3.82661946       0.00332993      -0.00685494      -0.00493098
O       10.56929443       0.57004003       0.61868303      -0.00702822       0.00517255       0.00453651
C       10.64214801       1.69840626       1.51403326      -0.00309957       0.00059671       0.00831771
H       11.42967463       1.55011899       2.25621503      -0.00530022      -0.00596037       0.00904197
H        9.68539879       1.85469765       2.00709845      -0.00139657       0.00721622       0.01125568
H       10.88113356       2.57854148       0.91783305       0.00289599      -0.00112313       0.00903086
H       10.00633050      -0.15502514       1.04363577      -0.00035918       0.00596537       0.01022458
O       13.65815264      11.63272022       0.25287043       0.01436201       0.02029848       0.00297320
C       13.31158200      11.94959958       1.60321657      -0.00010476       0.01855598       0.00012092
H       12.55969427      12.74161612       1.58742580      -0.00514701       0.01281601      -0.00909437
H       14.18083422      12.31437633       2.14568720      -0.00927928       0.02343094       0.01180096
H       12.88847921      11.07205207       2.09093502       0.00156589       0.01408991      -0.00624929
H       14.13413039      10.73595561       0.20955792       0.00831363       0.01951694       0.00995798
O        2.04723148       7.59660280       2.09158880      -0.00704211      -0.00883500      -0.01010738
C        3.25516922       6.89578057       2.37409033      -0.00173417       0.00156666      -0.00410193
H        3.05359565       5.84531192       2.60778908       0.00668664      -0.00086007      -0.00727419
H        3.79109286       7.35339315       3.20925612      -0.01171316       0.00442025       0.00053096
H        3.87393453       6.92807799       1.47747984       0.00382298       0.00999551       0.00055268
H        1.43316305       7.46818546       2.84089716      -0.00547328      -0.00797544      -0.01046821
O        6.14243511       2.16771661       8.40453635      -0.01198298      -0.00821233      -0.00128834
C        6.88641394       0.96314505       8.52695943      -0.00143896      -0.00057343       0.00428954
H        6.33108555       0.12688201       8.10527766       0.01020828      -0.00683391       0.00074671
H        7.09714569       0.74213606       9.57534180      -0.00769810       0.00167404       0.00611204
H        7.82745147       1.05422783       7.98222206       0.00157198       0.00833123       0.01075716
H        5.22236190       1.91485899       8.18667086      -0.00751706      -0.01687609      -0.01280758
O        1.67905934       9.40469463       0.12054210       0.00728303       0.00582024      -0.00013199
C        3.02540125       9.41792966      -0.33923053       0.00582421       0.00363652      -0.00372751
H        3.70342517       9.80685263       0.42578209       0.00984801      -0.00026684      -0.00524876
H        3.07082962      10.06089699      -1.21670374       0.00280993       0.00645722      -0.00183818
H        3.34307728       8.41339201      -0.62681959       0.00597168       0.00460243      -0.00731886
H        1.63151752       8.80892394       0.90195472       0.00522283       0.00119378      -0.00520292
O        2.74488521       5.82622486      11.82951418      -0.00824094       0.00264800      -0.00113398
C        1.42782874       6.33028295      12.08263212      -0.00809865      -0.00113577      -0.00365978
H        1.30360424       6.57825435      13.13798489      -0.01175862      -0.00099798      -0.00444102
H        0.66654362       5.60149080      11.78689396      -0.00725597      -0.00016561      -0.00687919
H        1.30534586       7.23657644      11.49195093      -0.00624129       0.00061268      -0.00406526
H        2.79565330       4.96554240      12.27195491      -0.00861427      -0.00112149       0.00431558
O        6.11317832       8.41926329       8.30314892       0.00047147       0.01409236       0.00385746
C        7.41167659       7.86434996       8.35157464      -0.00410080       0.00267532      -0.00258064
H        7.59154935       7.14874110       7.54012467      -0.01250256       0.00547263      -0.00715134
H        7.51364707       7.33316223       9.29690371      -0.00774077      -0.00313880      -0.00538880
H        8.19398967       8.63060971       8.30226657       0.00299168      -0.00409156      -0.00161702
H        6.05945403       8.93942994       7.47114860      -0.00110564       0.00875038       0.00033760
O        2.12405322       3.09376359      11.96003639      -0.00524011      -0.00083464       0.00995049
C        1.25963065       2.03503946      12.30421212      -0.00578441      -0.00060953       0.00629602
H        1.45821430       1.12793071      11.71310902       0.00152574      -0.00151452       0.01054026
H        0.19481450       2.30005739      12.15558208      -0.00532508      -0.00393203      -0.00037952
H        1.40337068       1.80577314      13.36098771      -0.01231394       0.00249030       0.00812468
H        2.09706737       3.27591320      11.00036661       0.00344475      -0.00503004       0.00767399
O        3.80971736       8.55527951       5.29008026      -0.01690757      -0.01288325       0.00125752
C        2.74480833       9.40188925       5.67243958      -0.01725572      -0.01002511      -0.00609760
H        2.16614149       9.72348339       4.80017534      -0.01809728      -0.01852208      -0.00904772
H        3.10469833      10.29917152       6.18321063      -0.01709959      -0.00554097      -0.01436970
H        2.07069898       8.86882988       6.34801709      -0.01676163      -0.00397217      -0.00056359
H        4.63864926       9.05535294       5.42768307      -0.01657213      -0.01409993       0.00248808
O        2.52871344       4.34231412       9.55964460      -0.00167367      -0.00838794       0.00808787
C        1.61682462       4.84212662       8.59416249       0.00460589      -0.01165085       0.00087020
H        1.79223256       5.90076190       8.38369537       0.00952671      -0.01362327      -0.00533848
H        0.57988722       4.72554659       8.92301194       0.00263441      -0.00560647      -0.00301823
H        1.75199408       4.27574858       7.67212008       0.00715319      -0.01757742       0.00489408
H        2.68728633       5.03766413      10.23232844      -0.00538924      -0.00571312       0.00656707
O        9.02401714      12.05750845       1.80375519      -0.00037843      -0.00112059       0.01088616
C        7.98236681      11.64923320       0.91232343       0.00432701       0.00405394       0.00306842
H        7.07116214      11.42660852       1.47134304      -0.00363061       0.00071924      -0.01010531
H        8.31458201      10.75620570       0.38300762       0.00979547       0.00777239       0.00044838
H        7.75538943      12.43424656       0.18686816       0.01072162       0.00860837       0.00652984
H        8.60666791      12.77010779       2.46732805      -0.00089623      -0.00050529       0.00907709
O        3.71759083      12.52955534       4.76200508      -0.00349379      -0.00598165      -0.00705087
C        3.29383178      12.14812216       3.47421536      -0.00336525      -0.00322741      -0.00824875
H        4.15170746      11.71150121       2.96418162      -0.00341973      -0.00250225      -0.00874519
H        2.95441626      13.00444155       2.88178111      -0.00291595      -0.00237119      -0.00726894
H        2.49663647      11.39759060       3.50978717      -0.00415891      -0.00256127      -0.01029445
H        2.95311499      12.85884404       5.27002947      -0.00243564      -0.00801227      -0.00523306
O        9.54169868       4.24944709       6.80973540       0.01062381       0.04200161      -0.02181028
C       10.35854833       3.41822117       5.98875134       0.00735013       0.01320286      -0.00027142
H        9.75256705       2.76989881       5.35265825      -0.00228667       0.00453359       0.01703767
H       10.96440717       2.79850595       6.64949388       0.00133364       0.02493178       0.01243378
H       11.02395019       4.00710950       5.35127077       0.01113351      -0.00932929      -0.01823819
H        8.86551578       4.64877228       6.24199956      -0.00367996       0.00349310      -0.01065618
O        3.77278151       1.00030982       8.12160881       0.00316320      -0.01416902      -0.00015062
C        3.35355546       0.75762983       9.45544794       0.00050625      -0.00167235       0.00116798
H        2.88331689      -0.22348708       9.54621085       0.01043306      -0.00570840       0.01528006
H        2.65388438       1.52524760       9.79286694      -0.00490692      -0.00222197      -0.00793653
H        4.23504541       0.79731153      10.09523149      -0.00084633       0.01488950       0.00135900
H        3.05361207       0.73579437       7.51693441       0.00500783      -0.01460091      -0.00199315
O        0.35679743       6.96354624       4.14079008      -0.00535190      -0.00795737      -0.00752196
C        0.76281626       6.31750388       5.33668628       0.00004098       0.00361256      -0.00104885
H        0.66026339       6.96902316       6.20903451      -0.00165009       0.01304871      -0.00803706
H        1.81544771       6.05555245       5.23439693      -0.00025392       0.00566799       0.00078880
H        0.18655644       5.40165058       5.50890592       0.00075749       0.00510338       0.00883084
H       -0.45814552       7.47921827       4.28907777      -0.00305542      -0.01020157      -0.00959861
O        3.82726834       2.48436608       3.19460761       0.01071724       0.00458915       0.00244212
C        4.15719387       2.70294491       4.55805829      -0.00181248       0.01432407       0.00341374
H        3.51513153       3.49899422       4.93900745      -0.01230370       0.01023880      -0.00573713
H        5.20045132       3.01380515       4.66165373      -0.00531882       0.02416229       0.01134171
H        4.00267743       1.80263577       5.15806527       0.00002932       0.01685375       0.00839880
H        4.51176585       1.86234048       2.82899181       0.01381071       0.00218202       0.01081072
O       12.51651062       8.82458181       1.65241337       0.00022051       0.00754824       0.00539136
C       11.88896601       7.68136475       1.09004924       0.00808776       0.00535414      -0.00399601
H       10.80150584       7.72131624       1.20063272       0.00704187       0.00015649      -0.00513345
H       12.26354633       6.75687028       1.54107945       0.01020359       0.00751939       0.00001542
H       12.12555963       7.66595996       0.02733427       0.01069361       0.00600408      -0.00016353
H       12.28792119       8.85211251       2.59480200       0.00867745       0.00272847      -0.00956747
O        1.52929002       8.89287854       9.03572544      -0.00124419       0.00102046       0.00322688
C        2.90347239       8.52341383       9.08077856       0.00103685       0.00834262       0.00107121
H        3.00645140       7.71119420       9.80131101       0.00591045       0.00781164      -0.00030157
H        3.54436410       9.34547870       9.40866493      -0.00310045       0.01154467       0.00123115
H        3.27880080       8.17374594       8.11381287       0.00208615       0.01239288      -0.00004119
H        1.46045437       9.77808349       8.64495094      -0.00569259       0.00433684       0.01251128
O       10.18403344       6.45608414       8.44982503       0.00462806      -0.00449330       0.00207573
C       11.56266297       6.32634907       8.75230873       0.00598335      -0.00680012      -0.00970004
H       12.13591198       6.01571191       7.87577737      -0.00005020      -0.00553197      -0.01404545
H       11.73064986       5.60586073       9.56218894       0.01414571      -0.00814995      -0.01207283
H       11.93401562       7.29774566       9.07763923       0.00866567      -0.00653633      -0.01215556
H        9.90523120       5.65383208       7.96915301       0.00817386       0.01136464      -0.02962223
O        7.29862124       4.92051056       4.95892190       0.00117117       0.00702399       0.00678650
C        6.47164794       5.94637053       4.42085052       0.00394776       0.00675362       0.00119817
H        5.41461988       5.67404852       4.48208623       0.00413561       0.00251852      -0.00765344
H        6.73059974       6.07403658       3.36968247       0.01027082       0.01160584       0.00344205
H        6.61620292       6.90036645       4.93667871      -0.00364628       0.00614563       0.00507787
H        6.95217396       4.70850278       5.86877298      -0.01106152      -0.00540080      -0.00618135
O        1.26164512       2.17666487       2.38077806      -0.00067461      -0.00180125       0.01046982
C        0.79679774       3.49324022       2.16742206       0.01308635       0.00247580       0.00804369
H       -0.14100102       3.43734946       1.61145056       0.01042774       0.01136851       0.01087934
H        1.50139479       4.09177961       1.57863400       0.01671249      -0.00724976       0.00304791
H        0.59734064       4.02395232       3.10667486       0.02292117       0.00725695       0.00731707
H        2.18371084       2.24044885       2.72119270       0.00349057      -0.00733064       0.00119298
O       13.12603321       0.19287273       9.82843575       0.00109005      -0.00876281      -0.00729715
C       12.92300222       1.37500687       9.05203260       0.00319789      -0.00106379       0.00413365
H       12.02518815       1.27937730       8.43711753       0.00362056       0.00695758       0.00216298
H       13.77371250       1.56556388       8.39076044       0.00666630      -0.00160649       0.01125148
H       12.78701801       2.21347230       9.73492625       0.00671004      -0.00539424       0.01007153
H       13.53594374      -0.52672187       9.24403485       0.00076046      -0.01190041      -0.00962324
O        9.44658979       9.65109998       3.02875442       0.00209710      -0.01014280      -0.00459713
C        8.27949897       9.58600916       3.86031103      -0.00188636      -0.01400676      -0.01067482
H        7.43000061       9.17828466       3.30770422      -0.00109950      -0.00327875      -0.01976705
H        8.02066431      10.56588493       4.25766259       0.00184283      -0.01664189      -0.00202802
H        8.49201823       8.92660754       4.70100145      -0.00917120      -0.02403553      -0.01662105
H        9.44824773      10.53250980       2.59771369       0.00206366      -0.00662179       0.00127729
O        6.62665510       4.56923233       7.42953827      -0.02475125      -0.00944054       0.00585656
C        5.41276841       5.17194514       7.87278323      -0.01949662       0.00078124       0.00522296
H        5.41854999       5.29485146       8.95805654      -0.02175382       0.00026263       0.00553465
H        4.54672919       4.56378295       7.59881025      -0.02532548       0.00964752       0.00377680
H        5.33495668       6.15913771       7.42117044      -0.01038682       0.00216484       0.00613479
H        6.61233643       3.63801431       7.74919065      -0.02738304      -0.00629389       0.01697167
O        8.50523162      11.47653608      10.33031150       0.00487737      -0.00272657      -0.00490499
C        7.53023596      10.46602990      10.61957522       0.00283091       0.00166114      -0.00113463
H        8.00641705       9.51449307      10.87269560      -0.00191349      -0.00110543      -0.00192498
H        6.87644187      10.30317770       9.76237626       0.00085375       0.00315070       0.00011602
H        6.93030991      10.80324824      11.46430427       0.00738686       0.00767937      -0.00060046
H        8.73505277      11.41900264       9.36037657       0.01178191      -0.00649000      -0.00424653
O        9.20637867      11.36624233       7.80934822       0.00442249      -0.00948229       0.00954021
C       10.35938475      12.13731896       7.53695490      -0.00353873      -0.00139232      -0.00275245
H       10.26821972      13.15844104       7.92742964       0.00667483      -0.00676876       0.01276340
H       10.54687257      12.20111970       6.46242403      -0.03576326       0.01733872      -0.00695512
H       11.22157182      11.66084413       8.00525318       0.00911069      -0.00069353      -0.02595751
H        8.50833043      11.59881457       7.10782176      -0.00209429      -0.01376263       0.01344197
O        9.05623948       4.28484911       2.89113966       0.02500135      -0.00566101       0.01557515
C        9.71476156       5.52751717       3.01832697      -0.00262615      -0.00947902       0.01210812
H       10.70851677       5.42830406       2.58171079       0.00138706      -0.00220093       0.00052665
H        9.82852449       5.83339086       4.06346063       0.01046943       0.00362805       0.00352049
H        9.19366426       6.33584141       2.48893846      -0.00598162      -0.01473880       0.00612003
H        8.34574821       4.26624493       3.55189468       0.00141767      -0.00377629       0.01761159
O       10.64540450       1.70822142      11.44555084       0.00307855       0.00283469       0.00568825
C        9.61189267       1.74055753      10.45949048       0.01040730      -0.00303585      -0.00230164
H        8.75258197       2.30534781      10.82668396       0.00933081       0.00361896      -0.01548874
H        9.28794300       0.73485464      10.18678744       0.01071995      -0.00512034       0.00465672
H       10.00367890       2.24749231       9.58058914       0.01641479      -0.01170930      -0.00472090
H       10.27693499       1.35286425      12.28089914      -0.00035760       0.00634249       0.00631906
O        9.38267124       6.98566365      11.04063244       0.00818238      -0.00136542       0.00587955
C        8.96185668       5.68253230      11.39732278       0.00393884       0.00122970       0.01186502
H        9.78159265       4.95500128      11.33419017      -0.00007743      -0.00296587       0.00768852
H        8.14397279       5.32992548      10.75839541      -0.00326318       0.00499876       0.01901928
H        8.60932559       5.70911922      12.42769515       0.01163480       0.00409592       0.01413986
H        9.57485017       6.94625240      10.08593542       0.00664157      -0.00493382       0.00689998
