193
Lattice="13.235145797022215 0.0 0.0 0.0 13.235145797022215 0.0 0.0 0.0 13.235145797022215" Properties=species:S:1:pos:R:3:forces:R:3 energy=-1127018.25 stress="-0.0013490208657458425 5.948603757133242e-05 -0.00042882181878667325 5.948603757133242e-05 -0.001348676159977913 0.00011761771747842431 -0.00042882181878667325 0.00011761771747842431 -0.0007337367860600352" pbc="T T T"
Es      13.85281415      13.22833991      -0.13775632      -0.00362497       0.01254788       0.00080469
S        7.69637797      10.50106361       7.64773411      -0.00860226      -0.01317024       0.00379205
O        6.51527963      10.50365531       8.52234830      -0.00603843      -0.02245832       0.00466347
O        7.35713702      10.43261190       6.23562911      -0.01056987      -0.02120700       0.00311422
O        8.70163539       9.51614252       8.07485086       0.00225616      -0.00252187       0.00237584
C        8.48643242      12.08315127       7.90491576      -0.02445716      -0.00509226      -0.00311720
H        8.83136258      12.15190257       8.93484625      -0.03088702       0.00378829      -0.00159428
H        9.32255955      12.15266539       7.21018372      -0.02143298      -0.00118569       0.00125977
H        7.76614737      12.87574319       7.71325003      -0.03053600      -0.01295927      -0.01212471
S        7.67768516      12.78512894      11.93620694      -0.02018976       0.00744510       0.01133442
O        6.30156143      13.06948645      11.51546974      -0.02498722       0.00310826       0.02396178
O        7.84112928      12.99965383      13.38415250      -0.00541834       0.00566050       0.00934649
O        8.69605381      13.46204797      11.13535882      -0.03144002       0.01172841       0.00078046
C        7.92355236      11.04186457      11.66412381      -0.01245300       0.00884485       0.00944784
H        7.76367885      10.82976297      10.60755530      -0.01930958       0.00727304       0.01094347
H        8.93945014      10.78718365      11.95833370      -0.00786864       0.01606788       0.00024533
H        7.19387849      10.51196075      12.27426228      -0.00240850       0.00234233       0.01579954
S       11.48427482      11.63485283       0.41739142       0.01393920      -0.02034691      -0.02428514
O       11.66781334      12.75669725      -0.56316650       0.00576462      -0.02959782      -0.03481036
O       12.82523828      11.42214229       1.04051116       0.01763153      -0.01300603      -0.02926511
O       10.90806267      10.44363781      -0.14467407       0.01196134      -0.02826375      -0.00585318
C       10.42939930      12.28302096       1.66244241       0.02320123      -0.00604591      -0.02326435
H        9.48278502      12.54677567       1.17825761       0.01809582      -0.01517742      -0.01765193
H       10.29106208      11.54814774       2.45270855       0.03213060       0.00485574      -0.01190664
H       10.92612644      13.15807101       2.07833038       0.02256532       0.00274765      -0.04011243
O       13.58320048       1.04309591       2.02352894      -0.00871014       0.01085971      -0.00388533
N       12.71801908       3.14219810       2.05832408       0.00109468       0.01282245       0.00093389
C       12.49350697       3.17891695       0.62562617      -0.00171449       0.01112691       0.00110853
C       12.45076911       4.33498302       2.83425187      -0.00073476       0.01297310       0.00032035
C       13.21009413       2.05310946       2.64018368      -0.00182495       0.01185757      -0.00033054
H       13.37269680       3.56167592       0.09608308      -0.00061831       0.00411709      -0.00214700
H       11.64771318       3.82868747       0.40351037       0.00235668       0.01581904       0.00136675
H       12.25730384       2.17628538       0.25786820      -0.01033928       0.01261994       0.00263302
H       13.11260260       5.14486291       2.53525934      -0.01026818       0.01649725      -0.00999005
H       12.61451461       4.11191288       3.88102837       0.01213034       0.01916964      -0.00034937
H       11.41702469       4.65558130       2.70391146      -0.00415239       0.00473162       0.00903077
H       13.24774647       2.11303509       3.73471959       0.00176514       0.00945269      -0.00022966
O       10.81810984       2.29465871       4.58934741       0.01051879      -0.00638779       0.00710797
N        8.73872975       1.66547050       3.84733577       0.01458433      -0.01172785      -0.00000985
C        8.18964441       1.32164350       5.14688746       0.01282667      -0.01830512      -0.00289395
C        7.89502349       1.44240734       2.69365278       0.01790473      -0.01057828      -0.00271712
C        9.99217153       2.10223709       3.70044307       0.01304311      -0.00753531       0.00441360
H        7.88189243       0.27589224       5.15074162       0.01656753      -0.01934537      -0.00849725
H        7.31476180       1.93901599       5.36441874       0.01064295      -0.02204520      -0.00240979
H        8.94800958       1.49204098       5.90410182       0.01080826      -0.01956433      -0.00056405
H        7.51406538       0.42296653       2.69776510       0.01742139      -0.01032645      -0.00456626
H        8.45106429       1.58839248       1.77179579       0.02114414      -0.01100649      -0.00067914
H        7.04504562       2.12988988       2.70808774       0.01869935      -0.00980176      -0.00589365
H       10.22720895       2.28681179       2.63643200       0.01546816      -0.00442672       0.00574338
O        5.04664643       0.29391199       3.90214820       0.00734161       0.00498086       0.00875175
N        4.05262269       2.05697272       2.84576575       0.01072451       0.00433622       0.00466765
C        3.37137517       2.52324757       4.03279568       0.01308335       0.01013910       0.00394329
C        3.75425114       2.70867257       1.59466539       0.00828747      -0.00094721       0.00244612
C        4.82930260       0.94341379       2.89750749       0.00677559       0.00178862       0.00704330
H        2.29241772       2.38359050       3.93055697       0.01285112       0.00633906       0.00908268
H        3.57117295       3.58354306       4.19944349       0.01292409       0.01115519      -0.00269294
H        3.72606104       1.94255681       4.87971639       0.01605022       0.01598875       0.00647999
H        2.69706461       2.57965936       1.32973499       0.00920007      -0.00574540       0.00175090
H        4.37109100       2.28368248       0.80295344       0.00778958      -0.00248297       0.00303222
H        3.95925649       3.77909708       1.66383236       0.00436943      -0.00009817       0.00012399
H        5.25499081       0.68999767       1.91026613       0.00348419      -0.00343324       0.00684792
O        8.76235941       7.77542982       5.08667622       0.01762739      -0.00963426      -0.00915468
N        7.49317705       5.96652111       4.51941940       0.00716281      -0.00496075       0.00546154
C        6.51642668       6.16162901       5.57024863       0.00727011       0.00268039       0.00058204
C        7.26009660       4.91145301       3.57375554      -0.00729387      -0.00866436       0.01118158
C        8.54256836       6.81076595       4.38726093       0.00632510      -0.03479636      -0.02328402
H        6.43097666       5.26399526       6.18667254      -0.00133268       0.00782135       0.00768363
H        5.53899388       6.39683031       5.14324085       0.00827265       0.01147966       0.00194542
H        6.83521130       6.99983743       6.18282478       0.01398131       0.00397381      -0.00162913
H        7.18400484       3.94694572       4.07962271      -0.02135652      -0.00921085       0.01458442
H        8.08732061       4.86565842       2.86520585      -0.00994658      -0.02766078       0.00898296
H        6.33428725       5.08445669       3.01243149      -0.00773603      -0.00540736       0.00771296
H        9.20363423       6.51886854       3.55025920      -0.00539741      -0.02190278      -0.00018620
O       10.61137599       3.58402808      11.39912140       0.01915312       0.00201857       0.00976646
N       11.27645235       2.09179799       9.80738097       0.00044766      -0.00774524       0.01104105
C       12.65598158       2.10191241      10.21281326       0.00574896      -0.00396059      -0.00796214
C       10.91269720       1.23464237       8.70000875      -0.01661076      -0.01555361       0.02284867
C       10.35508906       2.82655304      10.46681710       0.00879698      -0.00324345       0.01698065
H       13.29979195       2.37167098       9.36851242      -0.00504425      -0.00653413      -0.01630747
H       12.95339590       1.10810981      10.58439992       0.01386676      -0.00261432      -0.01257776
H       12.77393492       2.83589498      11.00578286       0.01619252      -0.00081940      -0.01242076
H       11.48158199       1.50979667       7.80620236      -0.03053072      -0.02220847       0.01197863
H        9.85037648       1.34503460       8.49595029      -0.01998490      -0.01569384       0.04024996
H       11.10664912       0.18786312       8.94083983      -0.01322169      -0.01364976       0.02824381
H        9.34375587       2.69162085      10.06033015       0.00517112      -0.00592195       0.02804786
O        7.13969914       3.06265281       9.04131792       0.03211093       0.03156829      -0.01326275
N        6.49949480       4.00490046      11.02428919       0.00739954       0.01832664      -0.01571882
C        7.27312552       3.10066131      11.85226846      -0.00064167       0.01526820      -0.01245049
C        5.91540166       5.15830594      11.66109326      -0.01063775       0.00851169      -0.01489578
C        6.50175312       3.89175432       9.67453953       0.02268618       0.02656162      -0.01572126
H        6.68629708       2.81515967      12.72769599      -0.01154533       0.00577639      -0.02333516
H        8.20870964       3.56457565      12.17946531      -0.00712484       0.01661640       0.00404271
H        7.50359167       2.20114678      11.28936715       0.01107139       0.01999059      -0.01523721
H        5.30690382       4.85107173      12.51669443      -0.02035630      -0.00444262      -0.02667633
H        5.28818224       5.69488443      10.94988020      -0.00397977       0.01012582      -0.01951426
H        6.69183805       5.84000628      12.02674502      -0.02129731       0.01111096       0.00236440
H        5.85614057       4.64142144       9.18857884       0.02732444       0.02885026      -0.01748079
O       11.66278686       6.78631396       5.22513156       0.01474905      -0.03244305       0.00802255
N       10.39819826       5.61806797       6.75366705      -0.00173843      -0.01364410       0.00855866
C       10.01423998       6.74113581       7.57724754       0.00410083      -0.00555982      -0.00019328
C       10.03516236       4.30047852       7.22258759      -0.01557508      -0.00811512       0.01431154
C       11.19547333       5.75265035       5.67810678       0.00387979      -0.02770102       0.01174754
H       10.59113099       6.74349959       8.50554273       0.00380954      -0.00046156       0.00002208
H        8.95384832       6.67530241       7.82063341       0.00391874       0.00245564       0.00011268
H       10.16319304       7.66673675       7.03694627       0.01031750      -0.01100582      -0.00782582
H       10.54364338       4.08014865       8.16517173      -0.02244665      -0.00692859       0.01812926
H       10.32744461       3.55924365       6.47997108      -0.01690130      -0.01380387       0.01968420
H        8.95931917       4.22974214       7.39681452      -0.01652601       0.00119726       0.00939071
H       11.37649407       4.76903871       5.21762806      -0.00248715      -0.03094947       0.01815140
O        2.00596108       7.56638207       4.17357399      -0.01420951      -0.00499725      -0.00339836
N        2.39377187       6.88974020       2.02446308      -0.00869571       0.00441100      -0.00513085
C        1.07843654       7.25120448       1.54476186      -0.00572768       0.01102062      -0.00722713
C        3.38051881       6.53593867       1.03410222      -0.00709154       0.00510826      -0.00378373
C        2.75215533       7.13684539       3.31492363      -0.01254117      -0.00522238      -0.00247669
H        0.65473918       6.43087044       0.96136115      -0.00562893       0.01572606      -0.01383102
H        1.12300086       8.13201539       0.89776499      -0.00110450       0.01507136      -0.00131914
H        0.44260163       7.47277312       2.39903104      -0.00778793       0.00691479      -0.00774539
H        3.02747964       5.70011788       0.42462331      -0.00707228       0.00719965      -0.00678621
H        4.30399734       6.24656486       1.53304276      -0.00835901       0.00324289      -0.00282232
H        3.60306339       7.37995973       0.37136335      -0.00499824       0.00662586      -0.00095215
H        3.81677830       6.91761714       3.49858056      -0.01537907      -0.01308061       0.00121002
O        1.94322029      11.96146724      11.72659446      -0.00326610       0.02514830      -0.01212579
N        3.67454897      10.92388832      10.67640089      -0.01083740       0.00495794      -0.00307754
C        4.00713992      12.06781436       9.83970211      -0.00488842      -0.00388208      -0.01169148
C        4.48477780       9.72212448      10.53923672      -0.01642931       0.00070655       0.00582486
C        2.67751395      10.96712260      11.53031287      -0.01014566       0.01783821      -0.00291282
H        3.81501346      11.82210278       8.79699832       0.00985878      -0.01774673      -0.01077676
H        5.05964794      12.30380986       9.97317200      -0.00786936       0.00307181      -0.00099629
H        3.39230058      12.90516141      10.15319751      -0.01186129      -0.00235637      -0.03046454
H        4.16748653       9.15255067       9.66717790      -0.01891990      -0.00283256       0.00886092
H        4.39478612       9.12189974      11.44086288      -0.02264880       0.00734611       0.00948775
H        5.51754958      10.01578581      10.38238816      -0.01456803      -0.00407474       0.00767732
H        2.51356999      10.03917357      12.08951264      -0.01435795       0.02418712       0.00658686
O        5.32782111      10.16691822       0.40965288      -0.00129944      -0.00832319       0.01327825
N        3.60462081      11.17318955       1.49475743       0.00394358       0.00540853       0.00592029
C        3.27212647       9.99665582       2.26978401       0.00063645       0.01274641       0.01498267
C        2.73413101      12.29944283       1.69112940       0.00223491       0.00587521      -0.01032285
C        4.67661562      11.16914699       0.66494579      -0.00036103      -0.00441676       0.00098598
H        2.24952277       9.67853136       2.06228705       0.00017869       0.01463717       0.01558377
H        3.36498532      10.20991974       3.33584212       0.00186969       0.01711687       0.01402611
H        3.98464991       9.21709003       2.03003368      -0.00601277       0.00604591       0.01949963
H        1.69144049      11.97087760       1.57622876       0.00214428       0.00530788      -0.01079689
H        2.95974563      13.09301188       0.96984738       0.01161140      -0.00227392      -0.01694475
H        2.82071026      12.70995940       2.69984513      -0.00480742       0.00711595      -0.01072532
H        4.93001404      12.14519910       0.21843480      -0.00437689      -0.01016033      -0.01488078
O        4.68805372       6.52623182       8.07438437       0.00441563      -0.00015759       0.02436024
N        3.26290866       8.19091560       7.43303114       0.00942481      -0.00655572      -0.00082407
C        2.05565277       7.40812730       7.59898247       0.00764973      -0.00264036       0.00335335
C        3.11190768       9.56720136       7.01376114       0.01273938      -0.01160762      -0.01742298
C        4.48167984       7.66829443       7.67688639       0.00771922      -0.00561631       0.01093945
H        1.53549849       7.32360080       6.64333283       0.00882757      -0.00786385       0.00321785
H        1.39295257       7.88449631       8.32737834       0.00782780       0.00413114      -0.00094923
H        2.33643339       6.41872956       7.94968094       0.00488730      -0.00056732       0.01106295
H        2.63063226       9.61378839       6.03447012       0.01568647      -0.02334300      -0.01929405
H        4.09028941      10.04553927       6.96538805       0.01370171      -0.01397614      -0.01990927
H        2.48107323      10.10256862       7.73146483       0.01121259      -0.00236093      -0.02584141
H        5.29073085       8.39357387       7.49176083       0.00889975      -0.00755954       0.00750169
O       12.47431930       8.99381797       9.96646338       0.01628828      -0.00355926      -0.00445646
N       10.77911757       7.79646231      10.91875554       0.00845062       0.00783175      -0.00465170
C       11.63922576       7.06070439      11.81212062       0.00194819       0.00495883      -0.00073793
C        9.36832859       7.48389909      10.94908235       0.00567244       0.02166013      -0.00129436
C       11.28374581       8.73593112      10.08184451       0.01488137       0.00331742      -0.00482710
H       11.55022164       5.98616570      11.62809363      -0.00873018       0.00493416       0.00572547
H       11.36262711       7.26534214      12.85151334       0.00468023       0.01383165      -0.00187278
H       12.66100037       7.39152697      11.64202284       0.00509587      -0.00632529      -0.00313023
H        9.21641596       6.42176706      10.72740627      -0.00494453       0.02240410       0.00296858
H        8.84212000       8.08637039      10.20809785       0.01040094       0.02355888      -0.00287712
H        8.95433415       7.68630621      11.94110494       0.00986595       0.02968778      -0.00137725
H       10.49548898       9.23171383       9.49222117       0.01823056       0.00702074      -0.00630283
O        5.73300802       8.60396232       3.41641470      -0.01083589      -0.04645479       0.00337407
N        7.60135560       8.58086023       2.12071230      -0.00775605      -0.00285614       0.00982949
C        6.99477439       7.78490470       1.08692703       0.00965635      -0.00784934       0.00289928
C        8.99335798       8.92424504       1.94906153      -0.01413663       0.02415759       0.01525367
C        6.88452355       8.96917842       3.20230866      -0.01795781      -0.02620456       0.00945538
H        7.41925828       6.77425794       1.06311851       0.02494030      -0.00100100       0.00189990
H        7.14592377       8.25705447       0.11471999       0.00829281      -0.00097296       0.00634563
H        5.92936824       7.73662272       1.27864973       0.00966641      -0.02471492      -0.00282662
H        9.58947371       8.01278436       1.82202135       0.00421278       0.03670204       0.01672115
H        9.35274003       9.44622031       2.83425668      -0.02849626       0.03103785       0.01687458
H        9.14429947       9.54180329       1.06356753      -0.02516136       0.02757564       0.01597100
H        7.43592448       9.63119222       3.88399415      -0.02980989      -0.02282172       0.01815957
O       10.03660490      11.19607126       4.51316483       0.00119877       0.00995970      -0.00563025
N       11.92253926      10.56945850       5.61722892      -0.00325918       0.00284217      -0.00170735
C       12.76132311      11.51405985       4.91893637       0.00325856      -0.00158069      -0.00129671
C       12.57925603       9.64201852       6.51046853      -0.00989354       0.00190455       0.00255111
C       10.60377973      10.48136055       5.33210734      -0.00236428       0.00915956      -0.00494295
H       13.40599704      11.00797841       4.19327832       0.00281200      -0.00677887       0.00214961
H       13.39448790      12.04351448       5.63553848       0.00460391      -0.00090064      -0.00297099
H       12.12843030      12.22359630       4.39258556       0.00755057      -0.00007150      -0.00388983
H       13.28975000       9.02367632       5.95713578      -0.01070487      -0.00264257       0.00686264
H       11.84300361       8.98628042       6.96430773      -0.01440027       0.00655097       0.00185896
H       13.10032853      10.17790770       7.30768555      -0.01091790       0.00178182       0.00293571
H       10.07417734       9.71444358       5.91179271      -0.00705045       0.01101780      -0.00482619
