193
Lattice="14.085181551014985 0.0 0.0 0.0 14.085181551014985 0.0 0.0 0.0 14.085181551014985" Properties=species:S:1:pos:R:3:forces:R:3 energy=-393307.09375 stress="-0.0009817320387810469 9.534295168123208e-05 0.0006767750019207597 9.534295168123208e-05 -0.0006601029890589416 0.00021980069868732244 0.0006767750019207597 0.00021980069868732244 -0.0010282289003953338" pbc="T T T"
Eu      14.32506686      13.64685644       2.60825792       0.00764254       0.00448317      -0.00424310
O        0.71714564      12.18507852       4.33941249       0.00475785       0.00291374      -0.00474614
O        0.99795444      14.32171674       4.88742431      -0.01211667       0.00458443      -0.00026742
C        1.10126866      13.09562672       5.14495354      -0.00694750       0.00255927      -0.00022021
H        1.55473300      12.78271207       6.09695144      -0.01347727       0.00534561       0.00256389
O        7.43327884      14.00916991      14.47479118      -0.01157832       0.01014161       0.01724273
O        9.64548960      14.18831374      14.08815354      -0.01574469       0.01956367       0.04081839
C        8.57182251      13.55781412      14.22568880      -0.00806475       0.02501953       0.01817314
H        8.64588492      12.44281257      14.11758736      -0.00877091       0.02025533      -0.00723627
O       13.09038637      12.80353018       0.72696768       0.00262660       0.03278928      -0.01291603
O       12.02080962      13.48512630       2.54065513       0.01039596      -0.00754516       0.00762105
C       12.00423783      13.03377054       1.34075350       0.00395027       0.01315688      -0.00077751
H       11.04173320      12.89448763       0.83495658       0.00216252       0.01421583       0.00492692
O       11.26953148       2.97583155       3.21701058       0.00430879       0.00312351       0.00163519
C       12.64676740       3.07224808       3.00544298       0.00352973       0.00175822      -0.00141352
C       10.55376717       2.52076201       2.05809067       0.00120735       0.00157893       0.00402882
C       13.30468322       3.62671539       4.24825201       0.00617088       0.00079843      -0.00247562
C        9.11594318       2.29572598       2.43559383       0.00146222       0.00660603       0.00682740
H       13.05562194       2.05415750       2.77237938       0.00227347       0.00155210      -0.00250752
H       12.86602497       3.69855557       2.12480275       0.00238632       0.00173429      -0.00169089
H       10.64560437       3.27092194       1.26022092       0.00208091      -0.00100902       0.00177208
H       10.98899697       1.58916277       1.68721693      -0.00218922      -0.00045735       0.00583573
H       14.39101285       3.64761978       4.15613379       0.00593188       0.00180459      -0.00487266
H       12.96406992       4.64537959       4.42563402       0.00552508       0.00019602      -0.00069328
H       13.04617255       3.02019076       5.11674583       0.00850828      -0.00033261      -0.00270203
H        8.58551564       1.85281937       1.59149090      -0.00076126       0.00835155       0.00754276
H        9.05889176       1.59317270       3.26901376       0.00053498       0.00625405       0.00639452
H        8.63450488       3.22921342       2.73323468       0.00528746       0.00801252       0.00832002
O        3.90791563       2.21350096       2.88698184       0.00278497      -0.00435421      -0.00638001
C        4.99435074       1.43429176       3.39678649       0.00332651      -0.00382513      -0.00613523
C        2.98352767       1.42387490       2.19499158       0.00208104      -0.00548472      -0.00351870
C        5.88065384       2.34558817       4.20482829       0.00178406      -0.00349289      -0.00505829
C        1.88188880       2.31924898       1.66450942       0.00329866      -0.00616971      -0.00722279
H        4.58999409       0.62521587       4.02291256       0.00348872      -0.00425085      -0.00673637
H        5.54087380       0.97438910       2.56380628       0.00413272      -0.00281192      -0.00601071
H        3.47646050       0.86130839       1.38682230       0.00136074      -0.00921229      -0.00135267
H        2.57431320       0.67436860       2.91236162       0.00190765      -0.00250728      -0.00029394
H        6.73341587       1.79088299       4.59636306       0.00214104      -0.00286669      -0.00512857
H        6.25898632       3.15574944       3.58159895       0.00137164      -0.00277090      -0.00429520
H        5.32973466       2.77759222       5.04182803       0.00099684      -0.00467744      -0.00507064
H        1.10811544       1.74778795       1.12415401       0.00300757      -0.00634172      -0.00653930
H        1.41401100       2.87309630       2.47882581       0.00346715      -0.00208274      -0.00999734
H        2.28491597       3.03952966       0.94872283       0.00516608      -0.00973186      -0.00954154
O        7.07886968       6.68967286       3.56484500      -0.00064445      -0.00368689      -0.00061294
C        6.82833589       6.04462696       4.80087555      -0.00030029      -0.00398684      -0.00073658
C        8.46799080       6.81796416       3.30490348      -0.00093821      -0.00104314       0.00010115
C        5.33579406       5.95178440       5.00483906      -0.00027609      -0.00586508      -0.00185976
C        8.64427101       7.50973321       1.97612718      -0.00203654      -0.00194824      -0.00047657
H        7.28406761       5.04357901       4.79562927       0.00097325      -0.00327498      -0.00040518
H        7.30518908       6.60654255       5.61620955      -0.00169797      -0.00330725      -0.00052801
H        8.94301442       7.39128292       4.11511922      -0.00264770       0.00070861      -0.00016612
H        8.93582205       5.82235130       3.29402591       0.00132823       0.00015116       0.00121199
H        5.11174110       5.42070252       5.93019909      -0.00037394      -0.00593334      -0.00199528
H        4.89322326       6.94570901       5.06394383      -0.00146384      -0.00641669      -0.00239234
H        4.86648686       5.41434227       4.18089646       0.00110010      -0.00651401      -0.00206131
H        9.70453997       7.63543218       1.75272824      -0.00233245      -0.00034725      -0.00051034
H        8.18887397       6.92463073       1.17663228      -0.00228393      -0.00272267       0.00030503
H        8.17535489       8.49318498       1.99405774      -0.00350921      -0.00275046      -0.00143873
O       10.70500158       7.48302655       6.50389711       0.00050083      -0.00071945       0.00041528
C       11.34255064       6.41344955       5.82968740      -0.00019239      -0.00048828      -0.00055487
C       11.41195577       8.70575453       6.44022179      -0.00074118      -0.00021881      -0.00273582
C       10.52865685       5.16669726       6.06886134       0.00153154      -0.00110000       0.00126009
C       10.61669585       9.73955097       7.19830756       0.00075352       0.00006416      -0.00185013
H       11.41306151       6.64383818       4.75479497      -0.00259680      -0.00073144      -0.00069451
H       12.37005561       6.29770739       6.20721235       0.00064990       0.00049893      -0.00271311
H       12.41448798       8.58100086       6.87722557       0.00050047       0.00101361      -0.00530702
H       11.55220089       9.00733917       5.39088399      -0.00372249      -0.00138606      -0.00333184
H       10.90316620       4.33114955       5.48014952       0.00157079      -0.00071952       0.00072651
H       10.53297196       4.90233845       7.12571037       0.00376991      -0.00096952       0.00122929
H        9.49212553       5.34426273       5.78830493       0.00092840      -0.00240458       0.00305178
H       11.11136735      10.71010936       7.19457987       0.00005214       0.00019243      -0.00426697
H        9.62932622       9.85818469       6.74872270      -0.00052413      -0.00103912       0.00065916
H       10.47939471       9.42458258       8.23360307       0.00360786       0.00107719      -0.00117275
O        3.69374197       9.31324548       2.77791669      -0.00459641      -0.00551933      -0.00175059
C        4.14678823       9.55430997       4.09674836      -0.00316630      -0.00636196      -0.00214466
C        3.81529295       7.94905401       2.40996428      -0.00239027      -0.00458828      -0.00401467
C        4.00686186      11.02498745       4.40614120      -0.00704224      -0.00729126      -0.00006910
C        3.37239756       7.80097548       0.97534961      -0.00221649      -0.00263091      -0.00416228
H        3.54947112       8.95520052       4.80331518      -0.00012496      -0.00909337      -0.00209847
H        5.19312587       9.22288502       4.19080090      -0.00216866      -0.00354324      -0.00444951
H        4.85572895       7.62159688       2.53667967      -0.00202298      -0.00320630      -0.00459164
H        3.19161287       7.33197068       3.07443875      -0.00137040      -0.00676689      -0.00526738
H        4.31013566      11.23362382       5.43248505      -0.00394352      -0.00709500      -0.00122151
H        4.60964953      11.61759819       3.71943276      -0.01160082      -0.00484283      -0.00174884
H        2.96482519      11.31847784       4.29149944      -0.00846925      -0.01063619       0.00427872
H        3.42374598       6.75536314       0.67014784      -0.00264831      -0.00210375      -0.00564245
H        2.34565864       8.14721268       0.85071631      -0.00230652      -0.00273947      -0.00338717
H        4.01583221       8.38484357       0.31596486      -0.00153579      -0.00250733      -0.00324548
O        7.07196209      11.01986368      11.77180844       0.00899534       0.00183144      -0.00074905
C        6.16637700      11.34386982      10.73471352       0.00945437       0.00055224      -0.00198099
C        8.01699304      10.06009391      11.35060230       0.00641143      -0.00172420       0.00246796
C        5.21999482      12.42186428      11.19592944       0.01088205       0.00246629      -0.00414020
C        9.05961805       9.88506211      12.42582845       0.00231266      -0.00488713       0.00595158
H        6.73264280      11.68234474       9.85877020       0.00997868      -0.00222367      -0.00257313
H        5.61074534      10.44286633      10.43040514       0.00859934       0.00052142       0.00048670
H        7.50879175       9.10588802      11.13750563       0.00359374       0.00009334       0.00190976
H        8.48568521      10.39344804      10.41107046       0.01034425      -0.00420654       0.00370872
H        4.58956610      12.72882384      10.36013153       0.00960014      -0.00015724      -0.00402339
H        4.57822587      12.05669419      11.99597233       0.01205318       0.00551488      -0.00190565
H        5.76972259      13.28918980      11.56384225       0.01158813       0.00359818      -0.00782757
H        9.79915819       9.14614721      12.11453424       0.00133879      -0.00679366       0.00848213
H        9.56344983      10.83142891      12.62066687       0.00414838      -0.00635195       0.00788376
H        8.59997945       9.54481615      13.35391609      -0.00173762      -0.00389560       0.00414701
O        4.54365879      11.88837758       1.27340217       0.00301675      -0.00435427       0.00102520
C        3.41377078      11.87569974       0.44724858       0.00473630      -0.00221290      -0.00175267
C        5.73058668      11.39926342       0.64776297       0.00464028      -0.00108892       0.00266135
C        2.20760717      11.90856462       1.37304473       0.00291140      -0.00348617      -0.00394750
C        6.74644770      11.14468173       1.73124798       0.00318527       0.00094795       0.00448799
H        3.41791464      12.73038953      -0.24819716       0.00699509      -0.00074762       0.00025362
H        3.38220219      10.96075756      -0.16045470       0.00590927      -0.00074744      -0.00365451
H        5.49110628      10.47230059       0.10856207       0.00803767      -0.00113606       0.00153545
H        6.11363906      12.13741686      -0.05993945       0.00398842       0.00054854       0.00377095
H        1.27859858      12.10443924       0.81882654       0.00422576       0.00094709      -0.00465424
H        2.12836612      10.96376445       1.91108803       0.00009022      -0.00514212      -0.00751625
H        2.43636067      12.67668171       2.13052172       0.00309096      -0.00726587      -0.00029132
H        7.67316181      10.78132180       1.28683782       0.00602318       0.00553947       0.00641727
H        6.97448298      12.07684407       2.24754749      -0.00231081       0.00065601       0.00705125
H        6.37574700      10.40385868       2.44134731       0.00450155      -0.00197530       0.00202371
O        5.98003943       2.10955519      12.20061462       0.00217168      -0.00065419      -0.00415212
C        4.99950521       1.88164885      13.19568027       0.00244421      -0.00537576      -0.00484023
C        7.21803939       2.53903371      12.76934025       0.00055730       0.00238039      -0.00273314
C        3.67702226       1.61420494      12.51006415       0.00416392      -0.01008005      -0.00598529
C        8.28177197       2.49338434      11.70288484       0.00210598       0.00328888      -0.00123677
H        5.31513173       1.03803587      13.82469013       0.00554636      -0.00436455      -0.00537160
H        4.91818144       2.76573681      13.85023339      -0.00144147      -0.00618106      -0.00436258
H        7.09462327       3.56245998      13.15994190      -0.00177130       0.00256014      -0.00425595
H        7.48256491       1.87299133      13.59721794       0.00033200       0.00489116      -0.00101638
H        2.90979618       1.35287354      13.24031228       0.00465924      -0.01351042      -0.00677346
H        3.33355364       2.48996902      11.95827219       0.00115430      -0.01127043      -0.00593125
H        3.77366046       0.78481192      11.80952405       0.00782296      -0.00934349      -0.00616167
H        9.23166229       2.83275898      12.11599518       0.00224601      -0.00069511       0.00147985
H        8.41982586       1.46945747      11.35613896      -0.00043106       0.00416356      -0.00473456
H        8.02055617       3.12589638      10.85188973       0.00547632       0.00660072       0.00035574
O        5.14466195      11.15686385       7.64460284       0.00018685      -0.00067568      -0.00173079
C        4.80507903       9.78407101       7.69715751       0.00231856      -0.00111225      -0.00168943
C        6.46768446      11.38496959       7.18778322      -0.00130476       0.00163585      -0.00465653
C        3.34239178       9.67091555       8.04983435       0.00279552      -0.00329543      -0.00109456
C        6.70872517      12.87407036       7.17661828      -0.00335038       0.00183076      -0.00349560
H        5.01290317       9.30969345       6.72729797       0.00250434      -0.00066768      -0.00176778
H        5.42751009       9.27161937       8.44546190       0.00353867      -0.00018838      -0.00212827
H        7.18450574      10.87345190       7.84707046       0.00093773       0.00182347      -0.00699511
H        6.59139511      10.95803386       6.18086914      -0.00315306       0.00300458      -0.00535309
H        3.04107166       8.62432874       8.09575295       0.00442098      -0.00375730      -0.00063446
H        3.14705158      10.12985881       9.02017838       0.00233138      -0.00332056      -0.00126892
H        2.73010790      10.17456856       7.30033081       0.00203561      -0.00464432      -0.00109011
H        7.72970936      13.09392998       6.86844642      -0.00432952       0.00351318      -0.00538440
H        6.02212759      13.36428163       6.48503992      -0.00540234       0.00168823      -0.00144571
H        6.55128247      13.29231160       8.17133060      -0.00184179       0.00043310      -0.00278363
O       11.76580243      12.92314526       7.22173006      -0.00654423       0.00404449       0.00149196
C       11.68991871      13.04414335       5.80856601      -0.00288653       0.00968456       0.00178918
C       13.07466019      12.61888718       7.66380921      -0.00607601       0.00913139       0.00299084
C       10.25958771      13.30224787       5.41196464      -0.00216329       0.00642136      -0.00204075
C       13.05488212      12.41773960       9.15935769      -0.00673515       0.00406989       0.00233507
H       12.34016805      13.86544471       5.47269648      -0.00475103       0.01307648       0.00741604
H       12.06357790      12.12143327       5.33858714       0.00160502       0.01309574      -0.00073579
H       13.43521353      11.70963099       7.15439638      -0.00081877       0.01235425       0.00098084
H       13.75523946      13.43940057       7.39442557      -0.00951564       0.01312697       0.00646729
H       10.19425805      13.40227330       4.32963893       0.00191655       0.00978378      -0.00186917
H        9.62522384      12.47424278       5.73101687      -0.00078642       0.00338498      -0.00748337
H        9.89525119      14.22019939       5.87437649      -0.00683196       0.00340275      -0.00026152
H       14.05327437      12.16132935       9.51641262      -0.00562349       0.00864265       0.00236188
H       12.72847972      13.32683464       9.66363746      -0.01242876       0.00044374       0.00502606
H       12.37287040      11.61117032       9.42974614      -0.00224569      -0.00076590      -0.00103701
O        7.83961620       5.15177284       8.04204690      -0.00209558      -0.00400836       0.00285354
C        7.15167363       6.29911967       8.49877055      -0.00179410      -0.00370842       0.00202097
C        7.03418620       3.98663767       8.04192133      -0.00237706      -0.00376153       0.00357901
C        8.10671938       7.46467808       8.49486282      -0.00131732      -0.00414616       0.00198125
C        7.87083195       2.82897394       7.55545289      -0.00262955      -0.00409311       0.00405325
H        6.28721209       6.50187048       7.84660327      -0.00141183      -0.00369989       0.00173008
H        6.75856139       6.11906674       9.50766564      -0.00230072      -0.00328216       0.00202888
H        6.64784773       3.79520034       9.05283383      -0.00225085      -0.00306948       0.00361127
H        6.16350917       4.13655476       7.38597069      -0.00230697      -0.00390394       0.00358984
H        7.59528625       8.37534205       8.80755024      -0.00099210      -0.00378116       0.00117802
H        8.93731267       7.28179209       9.17736889      -0.00177822      -0.00413533       0.00232184
H        8.53102586       7.61643898       7.50462290      -0.00084157      -0.00477597       0.00206730
H        7.27303188       1.91753254       7.52581673      -0.00256367      -0.00404549       0.00509867
H        8.25270467       3.02813154       6.55334136      -0.00311753      -0.00489324       0.00385487
H        8.71904794       2.66374711       8.21967217      -0.00235353      -0.00347780       0.00379615
O        2.68268764       5.56694329      10.63542271      -0.00596236       0.00192031       0.00552016
C        4.03896048       5.93184682      10.46437781      -0.00642031       0.00478604       0.00872713
C        1.81478017       6.35945630       9.85029973      -0.00513303      -0.00094670       0.00165061
C        4.88892539       5.05666294      11.34996922      -0.00630823       0.00875029       0.01238516
C        0.39275500       5.92802955      10.10889856      -0.00521952      -0.00221789      -0.00137334
H        4.32139255       5.81463852       9.40645556      -0.00327960       0.00373055       0.00968212
H        4.16946539       6.99664578      10.71706343      -0.00974419       0.00539732       0.00731370
H        1.95126411       7.42138162      10.10645386      -0.00731998      -0.00034136      -0.00015745
H        2.06977806       6.24651853       8.78465574      -0.00221203      -0.00270507       0.00266135
H        5.93336573       5.36809758      11.31767367      -0.00723098       0.01188412       0.01387779
H        4.54784863       5.12350663      12.38333840      -0.00886053       0.01019410       0.01134549
H        4.84717075       4.01303122      11.04508095      -0.00243722       0.00805256       0.01444573
H       -0.29879566       6.53852666       9.52739517      -0.00425193      -0.00347112      -0.00373655
H        0.25279163       4.88352861       9.83126062      -0.00371158      -0.00251560      -0.00064337
H        0.15004832       6.03927554      11.16558068      -0.00801087      -0.00121142      -0.00219853
