199
Lattice="12.485411592996146 0.0 0.0 0.0 12.485411592996146 0.0 0.0 0.0 12.485411592996146" Properties=species:S:1:pos:R:3:forces:R:3 energy=-1150272.5 stress="0.003129426157101989 -0.00039878388633951545 0.0003880626754835248 -0.00039878388633951545 -0.00010192333138547838 0.001105718722101301 0.0003880626754835248 0.001105718722101301 0.00173006032127887" pbc="T T T"
Fm      12.11816366      12.15747959       0.52992931       0.00627035      -0.00023216      -0.00865382
O        8.60956641      12.59415738       2.94620387      -0.00563286       0.00090492      -0.02297378
O        7.57228546      11.62488826       4.66397645       0.00036883       0.01092833      -0.00515711
C        8.57187475      12.17634230       4.11898427       0.00410318       0.01204090      -0.00222731
H        9.47713620      12.29781310       4.74303790      -0.00530452       0.02760284      -0.01434243
O        2.37022134       8.83857478       0.28485155       0.00678647      -0.00609219      -0.00705695
O        1.24180165      10.69794091      -0.19187427       0.01519939       0.00251436      -0.00122970
C        1.44769988       9.62994087       0.48294726       0.00755292       0.00540446      -0.00044405
H        0.72108637       9.43536541       1.29170753       0.01559108       0.00914113       0.00236076
O        9.40374811      12.64961826       7.48520864       0.00552952      -0.00882369       0.01420057
O        9.99731053      10.69954062       8.39273270      -0.00294614      -0.01662028       0.00463080
C       10.25210203      11.85220761       7.91281974       0.00310761      -0.01420686       0.01639182
H       11.31799884      12.13892294       7.86585583       0.00226545      -0.01345858       0.02835632
O       10.08100823      13.06757979      11.72378975       0.00785746      -0.00008537      -0.01372421
H        9.27416326      12.50581877      11.85635912       0.00558665       0.00308906      -0.00886532
H        9.81990565      13.70865248      11.04083965       0.00633331       0.00051278      -0.01228457
O        9.20794635       3.44138608       3.78238891       0.00659347      -0.00263076       0.01472133
H        8.23952200       3.44803530       3.82311469       0.00673360      -0.00342416       0.00755477
H        9.47535048       3.03138602       4.63475312       0.00178772      -0.00101424       0.01755012
O        6.23824575       9.57631070       3.37067777       0.00213694       0.00222880      -0.00480055
H        6.72396017       8.72679026       3.58153527       0.00634033       0.00473607      -0.00413824
H        6.75662276      10.33218007       3.71294642      -0.00083395       0.00435150      -0.00509512
O        3.29113792       1.08022357       5.36086572      -0.01246989      -0.01214910      -0.00184500
H        4.21776851       1.18790273       5.64405879      -0.01293421      -0.01352099       0.00062171
H        2.72419113       1.45175491       6.06122414      -0.01315862      -0.00530865      -0.00580212
O        9.66451391       4.00366501      11.33718469       0.01435713      -0.00311783      -0.00388471
H        8.76150354       3.68265751      11.41019691       0.02093461      -0.02281716      -0.00861555
H        9.98698231       4.08501468      12.25800184       0.01065156      -0.00189510      -0.00282119
O        7.80973319       7.24232246      12.13547427      -0.00121981      -0.00431456       0.00430621
H        7.04000603       6.65379109      12.16333950       0.00545810      -0.01293439       0.00404853
H        7.43405693       8.09438673      12.45790101      -0.01053663      -0.00731329       0.00214474
O        2.69590820      10.80788155      10.08356945       0.01788293      -0.00452716       0.00091860
H        2.26520481      10.62930571       9.24202237       0.01463788      -0.00785969       0.00320248
H        2.04757886      10.62039546      10.80530552       0.01877480      -0.00366291       0.00269828
O       12.48903526       4.61413264       6.40758763       0.00647292       0.00690205       0.00042760
H       12.30780530       5.22428085       7.14258492       0.00665747       0.00712340       0.00029060
H       12.78030008       3.76514376       6.79568958       0.00909784       0.00807624       0.00084332
O        6.49151550       3.51753612       4.97215650      -0.00980575      -0.00047363       0.00186839
H        7.05526819       4.11946058       5.50581693      -0.00883608      -0.00083947       0.00123688
H        6.46655447       2.64585429       5.41694637      -0.01449777       0.00018455       0.00337465
O        5.52779372       5.30508567       2.77894046       0.02142274      -0.00542478       0.01138130
H        5.63098506       4.43967802       3.20014210       0.02618169      -0.00260200       0.01676531
H        5.59630561       5.10676931       1.82787154       0.01895792      -0.00961151       0.01241575
O       10.76290911       1.19070781       1.85131269      -0.00327781       0.00044957      -0.01565999
H       10.01861017       0.77075300       2.36497470      -0.00346863       0.00054328      -0.01862851
H       10.33089280       1.42757963       1.01186695       0.00176507      -0.00332536      -0.01881659
O       11.46993384      10.11710993      10.66793578       0.01044515       0.00072624      -0.00142723
H       12.11433781       9.40885250      10.45571754       0.00471377      -0.00549059      -0.00069436
H       10.93149119      10.26878409       9.86968111       0.00316194      -0.00593181       0.00180538
O        0.77053916       4.70367459       1.61855320       0.00693195       0.00520093       0.00591320
H        0.98292414       4.36245855       2.49434438       0.00556141       0.03304683       0.01769498
H       -0.20341927       4.58263091       1.52413587       0.00753679       0.00242961       0.00572077
O        3.23129921       4.01872778       8.36343115       0.00967466       0.00873124       0.00232009
H        3.07178177       4.84204755       8.87334189       0.00684809       0.00688036       0.00304797
H        3.62214869       4.27888860       7.49743004       0.00328342       0.01192131       0.00011235
O        6.17353150      13.20662717       8.63327479      -0.00406224       0.00447765      -0.00367638
H        6.50345297      12.30638493       8.81437131      -0.00085199       0.00627270       0.00132598
H        6.85110067      13.76134479       9.06614243      -0.00589098       0.00787812      -0.00536060
O        1.36305165       1.23474085       0.67606713       0.00632295      -0.00231087      -0.00285077
H        1.61840365       1.62615299       1.53447143       0.00951297      -0.00221217      -0.00342088
H        2.20315340       0.92262114       0.21242344       0.00511010      -0.00004444      -0.00634153
O        4.87402214      10.73824252       5.94226683       0.00120479      -0.00961006       0.00584897
H        5.25922709      10.36049814       5.13994681      -0.00020281      -0.00968977       0.00523881
H        5.19800191      11.65131715       5.98093781       0.00595538      -0.01126996       0.00692650
O       11.10755345       3.56264142       8.87971940       0.00449868       0.00098610      -0.00250735
H       11.36807968       4.49184271       8.84191523      -0.00576445       0.00420515      -0.00885728
H       10.57137610       3.52119017       9.69138116       0.00908888       0.00034054       0.00041179
O        2.63906639       4.42151566      12.19152311       0.00572790       0.00290402      -0.00094514
H        1.89374108       4.33559415      12.82142624       0.00869351      -0.00228642       0.00180645
H        2.80469177       3.56998273      11.75666404       0.01054565       0.00454386      -0.00182870
O        2.60592493       8.18351698       8.07745415      -0.01528220       0.01291634       0.00233161
H        2.55367992       8.96267795       7.47926500      -0.01673292       0.01071396      -0.00120655
H        3.53558458       8.04193983       8.28911398      -0.01449144       0.01309018      -0.00000015
O        3.46686752      12.92803473      11.84461872       0.00489852       0.00428766      -0.00909255
H        3.80201341      13.68939575      11.32455476       0.00633661       0.00505270      -0.00717338
H        3.23864466      12.26066296      11.17915838       0.00794911       0.00404418      -0.00986299
O        2.41838747       2.35032031       3.09651250       0.00907123      -0.00897868      -0.00802141
H        2.71727839       1.78595922       3.84143025       0.00161550      -0.00836399      -0.00452214
H        2.19875764       3.19113718       3.54571356       0.00377808      -0.00856410      -0.01223709
O        3.90866377       8.24421108       3.96694453       0.00400011      -0.00001629      -0.00372455
H        4.60851008       8.80892645       3.58780713       0.00074186       0.00145148      -0.00792097
H        3.67159335       7.58186340       3.28267474       0.00270258      -0.00238809      -0.00062077
O        4.14308915       4.67507864       5.87441357      -0.00943968       0.01217909      -0.00204083
H        4.89163727       4.15343154       5.51065060      -0.01225464       0.00925723      -0.00313816
H        4.54093467       5.57721907       5.98867909      -0.00507091       0.01067745      -0.00082700
O        7.42193883      10.85594998       9.39239397      -0.00649414       0.01185960       0.01261406
H        8.28380084      10.67130264       8.96095717      -0.01506043      -0.01020491       0.00701469
H        6.85070323      10.07951682       9.36945937      -0.02562336       0.02413570       0.03594418
O        0.79465205      11.66249730       2.69439565      -0.01114200      -0.00023300       0.00315106
H        1.74226854      11.88451190       2.55962435      -0.00987588      -0.00165170       0.00846450
H        0.85843670      10.79699694       3.15369792      -0.01443794      -0.00192487      -0.00054140
O       10.48012768      10.41296260       0.60571443       0.00745714      -0.00203322      -0.00507639
H       10.72829585       9.70410204       1.24381467       0.01007650      -0.00091113      -0.00458977
H       10.73450584      10.10625685      -0.30389972       0.01015193      -0.00147284      -0.00519203
O        8.82788159       6.96956203       9.51810832      -0.01444000      -0.00120941      -0.00156005
H        8.58199197       7.12199934      10.45148173      -0.00946952      -0.00440964       0.00055463
H        8.06229282       7.27066384       9.01185583      -0.01969844      -0.00578878       0.00404106
O        1.85493025       4.76187800       4.39033560      -0.00345743      -0.00409653      -0.00678154
H        2.74514513       4.80862668       4.81616177      -0.00281399       0.00355015      -0.00823711
H        1.23803103       4.70326547       5.15141014      -0.00066680      -0.00554811      -0.00449000
O        0.76236537       8.00763969      10.03005356      -0.01146653      -0.00677443      -0.00075206
H        1.36809989       8.22653667       9.28486224      -0.01503628      -0.00282779      -0.00277873
H        0.13528384       7.38136578       9.62636681      -0.01426645      -0.00452863      -0.00052751
O        5.33673293       7.02839999       6.08804189       0.00112060       0.00387728      -0.00102632
H        5.36298839       7.47260356       6.95056649       0.00112513       0.00300552      -0.00018991
H        4.85090161       7.58520211       5.45037675       0.00446700       0.00530330      -0.00234880
O        9.84464520       2.61281786       6.31381707       0.00574028      -0.00680283       0.01487514
H        9.75435501       1.69848832       6.64703149       0.00901844      -0.00770664       0.01274663
H       10.24387741       3.09364978       7.05707136      -0.00331513      -0.00546515       0.01944155
O        4.86231887       7.12692563      12.57353784      -0.01028593      -0.01347640      -0.00268285
H        4.20468236       6.86389620      13.25699695      -0.00724906      -0.00852204       0.00188774
H        4.31728634       7.33951237      11.80311629      -0.01412518      -0.03043996      -0.00501633
O        0.18920859      -0.46761900       5.71584252      -0.02360416      -0.00441432       0.00044048
H        0.98877099      -0.90889246       6.07129003      -0.02100012       0.00019027      -0.00091372
H        0.48712401      -0.05036903       4.89814225      -0.02812179      -0.00578567      -0.00228925
O       10.43079951       5.61540993       4.90076143      -0.00460340       0.00255216       0.01005837
H        9.98131159       4.97014569       4.31314780      -0.00042878      -0.00142788       0.01070782
H       11.00958810       5.06217419       5.46166195      -0.00422376       0.00558783       0.01272637
O        4.13735643       2.72827196      10.63481850       0.01082431       0.00785532       0.00097296
H        4.03567237       3.05887204       9.72350089       0.01444320       0.00756909       0.00078073
H        4.86927378       3.21335693      11.05411706       0.01089343       0.00605513       0.00392418
O        1.46807296       2.36746605       7.20438887       0.00695899       0.01067597      -0.00516230
H        0.94460222       1.78893333       7.76571525      -0.00350369       0.02035101      -0.00500701
H        2.02391119       2.92793639       7.79856816       0.00899481       0.00719776      -0.00420550
O        7.23540070       7.16911736       3.71289055       0.01392360       0.00737486       0.00253516
H        6.56303006       6.51310024       3.41270281       0.01462980       0.00530654       0.00614104
H        8.00198029       6.97958073       3.13804536       0.01369840       0.00434424       0.00308986
O       12.61571828       6.97343004       3.87934291      -0.00446468      -0.00053844       0.00867635
H       13.32428939       6.30683222       3.86611269      -0.00579517      -0.00168399       0.00873922
H       11.82278841       6.52537952       4.25121721      -0.00530547       0.00160564       0.01006336
O        2.82547216       6.85191398       1.87142175      -0.00754252       0.00018334       0.00371295
H        2.17353532       6.13907188       1.80220059      -0.01102727       0.00379349      -0.00468888
H        2.48634927       7.60118443       1.30502320       0.00132959       0.00218736       0.00251940
O        9.27469512       6.66759796       1.89733209       0.00954065       0.00271040       0.00014528
H        9.85608091       7.43175677       2.10788832       0.01048935       0.00303437      -0.00278362
H        8.81225779       6.87605514       1.05689754       0.00593077       0.00222626       0.00193010
O       11.45760620       6.46070216       8.41117248      -0.01604843       0.00125542      -0.00268962
H       11.60829312       7.29978600       7.89534160      -0.01133155       0.00007905      -0.00404122
H       10.55155478       6.55983009       8.75489396      -0.01722736       0.00403260      -0.00600130
O        5.46790462       4.20465205       0.12430801       0.01377067      -0.00246480       0.00231618
H        4.59267785       4.61395785       0.02664333       0.01665349       0.00427209       0.00488996
H        5.28834694       3.46348393       0.76329551       0.01207074      -0.00094633       0.00408749
O       11.03239391       8.62803178       2.51706306       0.01038954       0.00140988      -0.00516236
H       10.99573811       9.15133256       3.36069665       0.00093128      -0.00085420      -0.00370079
H       11.75303810       7.99177269       2.70119264       0.00761534      -0.00013125       0.00099400
O        7.87371558       5.55365425       6.22498853      -0.00500832      -0.00074375      -0.00155480
H        8.75243757       5.70599814       5.82827755      -0.00558311       0.00493065      -0.00091944
H        7.30763585       6.26683809       5.88258347      -0.00774226       0.00066122       0.00549245
O        6.10898384      12.49263404       1.74546838      -0.00977062      -0.00786702      -0.00637485
H        6.97559227      12.51362119       2.20968391      -0.00787243      -0.00929151      -0.01015235
H        6.34294669      12.32078874       0.82069545      -0.01327693      -0.00726771      -0.00681114
O        3.52952006      11.85899126       2.90743737      -0.00936887      -0.00906943       0.00731503
H        3.64717562      12.19166470       3.80637840      -0.01378543      -0.00429894       0.00642878
H        4.38371427      11.97804024       2.45625348      -0.01088432      -0.00151943       0.00662287
O        3.06417953       6.14198085      10.18045361      -0.00066474       0.01344992       0.01049867
H        2.84681354       5.56513168      10.94896863      -0.00076124       0.00718912       0.00602764
H        2.32595162       6.77483486      10.14931787      -0.00689851       0.00678775       0.00835099
O       11.91575701       8.81441296       7.32539843      -0.00232056      -0.00559610      -0.00536337
H       11.32015192       9.43931951       7.77362835      -0.00182219      -0.00659855      -0.00290841
H       11.76168291       8.99090438       6.37700021      -0.00853197      -0.00753010      -0.00517020
O       11.13934149       9.85310478       4.86797306      -0.01653842      -0.00731204      -0.00105760
H       10.23942493       9.86680295       5.29331099      -0.01721200      -0.00998605      -0.00106094
H       11.61528410      10.68270897       5.09497095      -0.01967698      -0.00653295       0.00267364
O        7.76666463      11.69789252      11.95518677       0.01247925       0.00474906       0.00588251
H        7.81360655      10.86410392      12.43859398       0.03750812       0.00959792       0.01090255
H        7.57100789      11.42625665      11.02985070       0.01294033      -0.00350269       0.00716743
O        7.86758891       4.40380883       8.82762860       0.00352299      -0.00369801      -0.01403398
H        8.33403680       5.13370816       9.26900947      -0.00235553      -0.00311792      -0.00885165
H        7.82996201       4.70081548       7.90139256       0.00377263       0.00122568      -0.01296631
O        8.79650997       9.64251608       6.07055381      -0.01505476       0.00217900       0.00334828
H        9.02193260       9.89041893       6.97999502      -0.00961238      -0.00098097       0.00350827
H        8.22236385      10.36599223       5.74629091      -0.00449463       0.01037642       0.00428967
O        1.44397039       9.36960003       4.13102491       0.00007834      -0.00360823       0.00333440
H        0.89148537       8.56305502       4.17383577       0.00046270      -0.00377232       0.00734932
H        2.35415513       9.03941707       3.94448397      -0.00019307      -0.00352100       0.00215103
O        5.07557132       9.55509404      10.48772441       0.02512730       0.01416841      -0.01552513
H        5.34584830       9.72716059      11.40333516       0.01776660      -0.00317734      -0.00944136
H        4.19126843       9.97221340      10.36619291       0.02148135       0.00862912      -0.01167427
O        6.02677936      13.47514445       6.06856671      -0.01011445      -0.00156934      -0.00259677
H        6.69735584      12.89987751       5.65497617      -0.00613650       0.00532571      -0.00589623
H        6.15746431      13.40046470       7.06760013      -0.00624920      -0.00079987      -0.00282318
O        6.30009881       9.29425091       0.60301522      -0.01389722      -0.00955948      -0.01061029
H        6.28914590       9.55880297       1.54869652      -0.01027199      -0.00293247      -0.01264068
H        5.65662281       8.54326967       0.54465571      -0.01443950      -0.00944410      -0.00569258
O        5.00028056       2.47272001       2.04463301       0.01490791       0.00005322       0.00485313
H        5.34298218       1.56195115       1.92742507       0.01030500      -0.00094643      -0.00223190
H        4.06835690       2.40304182       2.32620882       0.01459911       0.00056650       0.00453877
O        5.67634473       7.56436790       8.84186553      -0.01390933      -0.00955661      -0.00120798
H        5.43160123       8.23175931       9.52836354      -0.00065121      -0.00078283      -0.00533139
H        5.39141611       6.71872240       9.20636459      -0.03523331      -0.00129341       0.00190219
O        8.53305242       1.89688995       9.55430616      -0.00406885       0.00324831      -0.00285344
H        8.88138264       1.40461654       8.79262556      -0.00262313      -0.00480725       0.00280882
H        8.39745290       2.82074225       9.23130829      -0.00215966       0.00080320      -0.01165803
O        2.27819730      10.36261170       6.50785212      -0.00739917       0.00614527      -0.00197333
H        3.20066436      10.59772081       6.25140101      -0.00621013       0.00458648       0.00185678
H        1.91561494       9.91216064       5.70920213      -0.00428638       0.00568254      -0.00369813
O       10.55342030       4.35512347       1.45988628       0.00553101       0.00006026       0.00216199
H       10.22526057       3.74417757       2.14360163       0.00897468      -0.00353773       0.00039460
H       10.10579647       5.21493104       1.66048972       0.00418680      -0.00100681       0.00401881
