193
Lattice="13.493465675981552 0.0 0.0 0.0 13.493465675981552 0.0 0.0 0.0 13.493465675981552" Properties=species:S:1:pos:R:3:forces:R:3 energy=-1163384.625 stress="-0.0013525808462873101 0.0006063618056941777 -0.00010031303463620134 0.0006063618056941777 -0.0023208765778690577 3.8150838008732535e-05 -0.00010031303463620134 3.8150838008732535e-05 -0.0020322175696492195" pbc="T T T"
Fm      15.32510970      12.13669109       2.42494912      -0.02164896      -0.08588135       0.02969372
Cl       5.01932078      12.60655445       2.99842315      -0.00767398       0.00624597      -0.02945662
O        3.91666364      11.51033680       3.11278372       0.01163483      -0.01050997       0.00005436
O        6.28972635      11.90349175       3.12017577       0.00446069       0.03038287      -0.02323741
O        4.79227290      13.49698822       4.14736135      -0.01546966       0.02471000      -0.04535758
Cl       8.30608310      11.75799942      12.61669377       0.00637040       0.00778449       0.03360319
O        9.61927104      12.21028878      12.08560826       0.00660610      -0.01238924       0.01830626
O        8.22317675      10.27671384      12.46542782      -0.00545063       0.00547099       0.06186068
O        7.22472088      12.34755105      11.77673071       0.00699019       0.00111735       0.02875936
Cl       7.15577094      12.20802014       8.83927192      -0.01278591      -0.00967884      -0.00091577
O        8.03071554      12.57971304       7.70040584      -0.02021265      -0.00451273      -0.00474310
O        5.91855597      13.00819631       8.83333461      -0.01434994      -0.01105797       0.00898564
O        6.84507359      10.75701648       8.77852460      -0.01500678      -0.00975060      -0.00939769
O       10.90859066       5.79056285      13.07579082       0.01105559      -0.00866413       0.00428155
N        8.66580088       6.21056199      13.17644549       0.01163870      -0.00877109       0.01510635
C        8.73680548       7.52535021      12.56789592       0.00957394      -0.00798358       0.01675554
C        7.34902099       5.67925810      13.42395282       0.01344358      -0.00692509       0.02920321
C        9.77458243       5.48325069      13.40792563       0.01262593      -0.00841151       0.01030064
H        8.19727587       8.25303642      13.17029511       0.01712656      -0.00721279       0.02250463
H        8.29004542       7.52687389      11.56949683       0.00182784      -0.00654280       0.02052566
H        9.77367238       7.84154909      12.50637784       0.01012233      -0.01138710       0.00821782
H        6.81603675       6.28208732      14.16620112       0.02222654      -0.00494301       0.03367960
H        7.41498595       4.64703487      13.76654181       0.01681389      -0.00621966       0.03073841
H        6.76809290       5.67198060      12.49873702       0.00313084      -0.00853665       0.03573751
H        9.54902358       4.53541302      13.92741429       0.01491584      -0.00738090       0.01231453
O        7.23552503       7.33817932       9.13355028      -0.01127946      -0.01540279       0.02777481
N        8.16714816       5.53805994       8.10185062      -0.00259478      -0.00295791       0.01554751
C        6.99345626       4.71796035       8.33681313       0.00085199      -0.00947282       0.00866089
C        9.25967735       4.99352999       7.33156889      -0.00038702       0.00738009       0.01178291
C        8.15938382       6.82053459       8.53282390      -0.00806475      -0.00651622       0.02403939
H        7.27025409       3.66766153       8.35841408       0.00523923      -0.00822294       0.00250141
H        6.25489851       4.85743378       7.54650515       0.00137991      -0.00772020       0.00847113
H        6.54762762       4.99400151       9.28802297      -0.00190482      -0.01722999       0.00960746
H        9.48841698       3.98162514       7.66979106       0.00576075       0.00750896       0.00736977
H       10.14326362       5.61686748       7.46181137      -0.00409073       0.01206127       0.01381031
H        9.02691654       4.94379436       6.26445930      -0.00174615       0.01150489       0.01194885
H        9.08882957       7.36191436       8.27762169      -0.01118958       0.00024489       0.02866046
O        3.00195174       3.96437997       8.00981832      -0.01085383       0.01850748      -0.01334691
N        3.55229995       4.92293087      10.01926947       0.00370080      -0.00565536      -0.00605264
C        2.92643583       3.90840396      10.83897308       0.00258391      -0.01069176      -0.01325297
C        4.21552980       6.00843732      10.71038303       0.00999434      -0.01439059       0.00162820
C        3.56672407       4.81757599       8.67683940      -0.00418150       0.00881404      -0.00705719
H        2.19724890       4.36985659      11.50819385       0.00944474      -0.01329634      -0.00424214
H        3.69818144       3.40543129      11.42530818       0.00259119      -0.02097319      -0.02222662
H        2.42995998       3.19132674      10.19125065      -0.00575759      -0.00060041      -0.01770583
H        3.48636038       6.63235693      11.23718326       0.01410469      -0.01742440       0.01062721
H        4.77613241       6.61958087      10.00358714       0.00906569      -0.00960074       0.00548017
H        4.91536731       5.59855007      11.43833015       0.01181182      -0.02384168      -0.00550157
H        4.16531468       5.62486697       8.21733481      -0.00330859       0.01121473      -0.00138578
O       10.77273105      11.93029282       6.05294335       0.00509465       0.00787538       0.00093293
N       10.92342345      11.41060314       8.27971721      -0.00929359       0.00803182       0.00138682
C       10.06117103      10.25568364       8.19562899      -0.00833978       0.00797530      -0.00498595
C       11.61900507      11.62757160       9.53002264      -0.01698405       0.00770745       0.00560286
C       11.20372537      12.12560905       7.17870016      -0.00280929       0.00825915       0.00346863
H        9.48429536      10.15923508       9.11558688      -0.01126510       0.00540497      -0.00728437
H       10.66350565       9.35175746       8.04203280      -0.00781953       0.00880301      -0.00587928
H        9.37285455      10.38437010       7.36526686      -0.00581872       0.01056926      -0.00657308
H       10.91441545      11.77417063      10.35266671      -0.02178338      -0.00004227       0.00255698
H       12.25594265      12.50743824       9.43748937      -0.02281624       0.01255697       0.01247079
H       12.25007570      10.76848346       9.77766292      -0.01229262       0.01138344       0.00567984
H       11.89949674      12.95738345       7.40248777      -0.00508463       0.00901371       0.00832839
O        5.67550494      11.25459688       6.14729161      -0.02390850       0.00618291      -0.02226442
N        6.41206743       9.11874782       5.86327077      -0.01061222       0.00902775      -0.00286549
C        7.33414628       9.49422192       4.81386204      -0.01061254       0.00647996      -0.00363576
C        6.05767279       7.73421837       5.97790360       0.00249039       0.00705791       0.01344691
C        5.65563829      10.08595165       6.45473384      -0.01781354       0.01002133      -0.01338834
H        6.86238429       9.47569309       3.82674909      -0.00963998       0.00335292      -0.00397694
H        8.17761410       8.80380892       4.82025605      -0.01006395       0.00725307      -0.00073837
H        7.67925126      10.50823515       4.99900817      -0.01122310       0.00720641      -0.00676042
H        5.58729526       7.36905603       5.05417875      -0.00139380      -0.00737554       0.02145055
H        5.36419202       7.59780914       6.80845564       0.01094832       0.00879869       0.02055244
H        6.93110494       7.10941978       6.18222493       0.00978595       0.01742722       0.01275667
H        5.00541681       9.67703473       7.24901473      -0.01827615       0.01191041      -0.01212198
O        2.34405451       6.38476415       0.56157937       0.00311109       0.00099802      -0.00447682
N        2.58625854       4.15348927       0.98217481       0.00548247      -0.00113085      -0.00960151
C        4.03526764       4.17308042       0.98833005       0.00586307      -0.00050842      -0.01362543
C        1.94815754       2.87988908       1.20146783       0.00729296      -0.00515762      -0.00747028
C        1.86855884       5.27566818       0.76725769       0.00533879      -0.00068271      -0.00620840
H        4.44172602       3.54727118       0.19060214       0.00434513       0.00074542      -0.01532158
H        4.40517215       3.79658526       1.94590625       0.00673518      -0.00305702      -0.01528212
H        4.36543625       5.19746661       0.84276340       0.00811278      -0.00078285      -0.01190462
H        2.23969553       2.16915364       0.42336682       0.00790934       0.00125352      -0.01201817
H        0.86693568       3.00053252       1.18652034       0.00765604      -0.00141208      -0.00860517
H        2.24372098       2.46921027       2.17218703       0.01212119      -0.00029896      -0.00737002
H        0.78022584       5.09931974       0.80159139       0.00570953      -0.00129590      -0.00567783
O       -0.08339653      11.71298489       3.74658208      -0.05165458       0.00471282       0.03449166
N        1.60781454      12.06252014       5.22072375      -0.01898381       0.00588238      -0.00504926
C        1.74206765      13.46443481       4.86533209      -0.01779661       0.00369573      -0.01511725
C        2.55101105      11.55206402       6.20563122      -0.02198488       0.01431336       0.00255463
C        0.63231156      11.31827193       4.68355716      -0.04051632       0.00940080       0.02638972
H        2.69582073      13.62796128       4.35383957      -0.01457638      -0.00031734      -0.00968742
H        1.75617076      14.07638799       5.76840606      -0.02596296       0.01080520      -0.01967391
H        0.88713531      13.74728889       4.25063812      -0.01323937      -0.00139964      -0.02312540
H        3.57289166      11.75635583       5.88344493      -0.02104455       0.02507831       0.01278722
H        2.41142789      10.47821774       6.30507807      -0.01096296       0.01253784      -0.00156094
H        2.38987702      12.02990336       7.17273726      -0.03773258       0.00973114       0.00210685
H        0.53899762      10.31208301       5.09703600      -0.03727967       0.01420748       0.03866161
O       11.18967960       6.12998482       2.70368245      -0.01674882      -0.00921559       0.01370309
N       10.97572713       7.97525584       4.02496335       0.00280273      -0.00109994       0.00549480
C       10.62346743       7.19282757       5.18137034       0.00085266       0.00897719       0.01154590
C       11.12871967       9.40715730       4.20287977       0.00070288       0.00037834      -0.00678445
C       11.23037717       7.34478845       2.85409814      -0.00662633      -0.00914121       0.00829089
H        9.62483251       7.45227602       5.54673074      -0.00183088       0.00816429       0.00438663
H       11.32723539       7.37577216       5.99762232      -0.00351974       0.02169910       0.01212764
H       10.64722323       6.14356260       4.89760593       0.00623379       0.00642687       0.02248617
H       10.18290535       9.88969752       4.45028818      -0.00161380       0.00239240      -0.01972073
H       11.54385361       9.84895312       3.30202176       0.00882947      -0.00797579      -0.00662029
H       11.80774178       9.61051252       5.03200346      -0.00739557       0.00736103      -0.00244740
H       11.49233226       8.04073144       2.04231304      -0.00310455      -0.01517475       0.00412947
O       12.79870291       8.90519375      12.08226684       0.02099204       0.00792837      -0.01958397
N       12.66358162       6.91887239      10.96133957       0.00415328       0.00178126      -0.00593385
C       11.64276042       7.38496494      10.05599976       0.00154916       0.00018403      -0.00346841
C       12.95876163       5.50935293      10.95233007       0.00513884       0.00211037      -0.00441470
C       13.08130639       7.72815859      11.97214867       0.01481697       0.00566745      -0.01421201
H       10.72727736       6.80209322      10.19943980       0.00217921       0.00064594       0.00082850
H       11.96683249       7.29060492       9.01511815      -0.00207581      -0.00204779      -0.00427067
H       11.43307785       8.42839477      10.27665073       0.00259734       0.00083733      -0.00513956
H       12.04639503       4.92703462      11.09495410       0.00627664       0.00186305       0.00025854
H       13.62764818       5.28049920      11.77951082       0.00854553       0.00423720      -0.00690979
H       13.44242835       5.21066577      10.01621308       0.00163627       0.00102797      -0.00583690
H       13.73880550       7.20246657      12.68512397       0.01730162       0.00732955      -0.01566148
O        6.55963457       2.18517765       6.42764919       0.01913846      -0.01052904      -0.00527775
N        6.54263548       4.00088933       5.03914737       0.00942701      -0.00306618      -0.00555088
C        5.13431973       4.25434000       5.23626816       0.00999770      -0.01000865      -0.00277123
C        7.26773007       4.81811320       4.09499950       0.00374879       0.00370352      -0.00179910
C        7.11750875       2.92643896       5.65344513       0.02057934       0.00393039      -0.01540482
H        4.58261654       4.10158835       4.30281158       0.00774765      -0.00871194      -0.00242001
H        4.97448709       5.28259818       5.56516212       0.00412739      -0.01174802       0.00206782
H        4.74854595       3.57306785       5.99102244       0.01287773      -0.01472920      -0.00494850
H        6.75543329       4.84393570       3.12823834       0.00520520       0.00351267      -0.00332490
H        8.26355096       4.40530825       3.93659889       0.00725961       0.01270832      -0.00310524
H        7.37364857       5.84654578       4.44645920      -0.00355539       0.00443348       0.00034955
H        8.17959903       2.81138664       5.36944341       0.01481867       0.00486902      -0.01257882
O       -0.27395472       9.87176795       7.19102650      -0.01469719      -0.01564944       0.00697130
N        1.14039916       8.22758877       7.88426709      -0.00165393      -0.00108844       0.01343997
C        0.70658852       7.27488511       6.88816510       0.01158075      -0.00593668       0.01236320
C        2.17273591       7.81432220       8.80119053      -0.00645582       0.00752713       0.02268998
C        0.58640102       9.45520135       7.94916112      -0.01327056      -0.00656879       0.01024073
H        0.19103123       6.43214738       7.35716920       0.01049833      -0.00661561       0.00950897
H        1.56521538       6.88038469       6.34606507       0.01858550      -0.00446044       0.02257207
H        0.03615357       7.77655576       6.19588588       0.01615587      -0.01129682       0.00419283
H        1.87437804       6.90792179       9.33013553      -0.00484918       0.00639609       0.02142140
H        2.35513154       8.60278584       9.52709284      -0.01797860       0.00990620       0.02263072
H        3.10196398       7.61227259       8.26185594      -0.00077787       0.01306000       0.03082132
H        1.00784749      10.06078029       8.76679561      -0.02194461      -0.00141194       0.01049721
O        7.82167573       1.24161012       0.20437355       0.05859745       0.06036514      -0.01879895
N        8.28108230       0.95957983       2.40648221       0.01990950      -0.00040743      -0.02035594
C        7.04858887       1.60847164       2.77903562       0.01867476      -0.00017454      -0.02485368
C        9.25403961       0.68837884       3.44354640       0.00240443      -0.03159473      -0.01234908
C        8.54865707       0.81822861       1.08985489       0.04093933       0.03217942      -0.01862848
H        7.15547337       2.69481108       2.79079360       0.02089611      -0.00048536      -0.01929154
H        6.72876498       1.25976370       3.75688992       0.01236439      -0.00405413      -0.02859169
H        6.28642505       1.36680291       2.04042676       0.02219690       0.00501336      -0.03022078
H        9.67681616       1.62290592       3.83189047       0.01464747      -0.04537877       0.00606692
H       10.06743561       0.09105683       3.03860137      -0.00328355      -0.04075786      -0.00983131
H        8.80181340       0.14571114       4.27388783      -0.01700595      -0.03413342      -0.02522361
H        9.48417212       0.27377806       0.88445643       0.04004556       0.03058416      -0.01762833
O        0.55577709       8.86982590       2.68396400       0.02387804       0.02946210      -0.00356194
N        2.18490702       7.56803770       3.60983571       0.00369722       0.00715183      -0.00297735
C        3.12549834       8.65585982       3.73889988       0.01068318      -0.00021368       0.00958303
C        2.66089424       6.24337772       3.90652445      -0.00736500       0.00131333      -0.00939301
C        0.97552715       7.78066963       3.04169995       0.00963795       0.02146894      -0.00804651
H        4.00429057       8.48831203       3.11117723       0.00783917       0.00488015       0.00472216
H        3.45603428       8.77201718       4.77334695       0.01284184      -0.01609002       0.01030514
H        2.64302848       9.57191068       3.41380255       0.01518790       0.00656059       0.02296612
H        3.47194928       5.96246407       3.22750005      -0.00849998      -0.00118082      -0.00931501
H        1.84859777       5.52509959       3.80161453      -0.01242335       0.00822933      -0.01485522
H        3.03896399       6.18632703       4.93021144      -0.01013082      -0.00725563      -0.00913459
H        0.38119283       6.85610732       2.95396851       0.00091329       0.02988315      -0.01805868
O        6.11726220       3.45690670      11.35473583       0.00580144      -0.01352191       0.02081180
N        8.11042436       2.50815246      10.76047727       0.00112677      -0.01031299       0.00161280
C        8.86688758       3.73053227      10.79938758       0.00128731      -0.01096407       0.01080651
C        8.86598965       1.28680466      10.55866992       0.00078411      -0.00940809      -0.00473900
C        6.80731362       2.47133265      11.08232346       0.00408673      -0.01212662       0.01177755
H        9.42613569       3.85907958       9.86982965       0.00117722      -0.00327876       0.01208660
H        9.59104582       3.70076575      11.61667520       0.00079408      -0.01776075       0.01104814
H        8.20067140       4.57720573      10.93753285       0.00140983      -0.01217011       0.01783725
H        9.24761880       1.23010328       9.53581244      -0.00422655      -0.00686225      -0.00656992
H        8.23195400       0.42944015      10.76036146       0.00249791      -0.01029691      -0.00335510
H        9.69545862       1.24444160      11.26558088       0.00378424      -0.01010560      -0.00841630
H        6.40344388       1.45080316      11.06064559       0.00386795      -0.01194739       0.01080431
O        2.36974173      11.05961956       0.48461145      -0.01139146      -0.00671309      -0.01065665
N        4.26855523       9.82799324       0.25381439      -0.00672862       0.00315621      -0.02209942
C        5.14877216      10.96755647       0.05494963      -0.01535392       0.00830424      -0.02970660
C        4.90991224       8.52922280       0.27330279       0.00035328       0.00675055      -0.02385002
C        2.96935228       9.96220284       0.45334841      -0.00548118      -0.00386584      -0.01215531
H        5.62442571      10.91232414      -0.92141980      -0.01584154       0.00762495      -0.02950799
H        5.93201083      10.95233885       0.81425918      -0.01390323       0.01854666      -0.03099993
H        4.57005928      11.88220948       0.13222552      -0.02339043       0.00323722      -0.03370620
H        5.51372900       8.40791739      -0.62738002      -0.00255196       0.01078201      -0.02601182
H        4.15942885       7.74423404       0.34056450       0.00427231       0.00331575      -0.02082399
H        5.58393827       8.47603456       1.13409563       0.00438401       0.01133038      -0.02712595
H        2.41816918       9.02249307       0.57356665       0.00078917      -0.00605190      -0.00245234
