186
Lattice="13.443832088259944 0.0 0.0 0.0 13.443832088259944 0.0 0.0 0.0 13.443832088259944" Properties=species:S:1:pos:R:3:forces:R:3 energy=-845440.9375 stress="-0.001455920748412609 7.375250061159022e-05 5.0191121772513725e-05 7.375250061159022e-05 -0.0013328900095075369 0.00030813827470410615 5.0191121772513725e-05 0.00030813827470410615 -0.0012382854474708438" pbc="T T T"
Fr      13.50422445      13.38942602       0.21518205      -0.02262229       0.00488999      -0.00220448
Br      11.68471749      11.75091353       2.67921990      -0.00939398       0.01824670      -0.02830095
O       10.29584804      11.30963323       1.97463586      -0.00336212      -0.00366366      -0.01585141
O       11.72463591      11.35729749       4.23510570      -0.01790807       0.03334998      -0.01238900
O       12.93909067      11.09534789       1.83680286      -0.00018623       0.02184433      -0.00951070
O       11.87552567      13.38834467       2.51234557      -0.01443859       0.01551020      -0.03747519
O        3.56911899       9.73962028       8.03201153      -0.00732535       0.00172614       0.00494838
C        3.62907205       8.40369791       8.49209766      -0.00867806       0.00143081       0.00501892
C        4.24385548      10.64289846       8.88808863      -0.00482707       0.00039518       0.00383803
C        3.01226530       7.51629699       7.44088333      -0.00967553       0.00170231       0.00555176
C        4.15796204      12.02243842       8.28335016      -0.00570030       0.00072441       0.00483173
H        4.67736147       8.12283750       8.67706100      -0.00904298       0.00044172       0.00471849
H        3.09663917       8.31370886       9.45108401      -0.00846368       0.00220930       0.00496626
H        3.78965599      10.62304483       9.88978563      -0.00197506       0.00019530       0.00508103
H        5.29135957      10.32663162       9.00159198      -0.00474435       0.00002593       0.00108624
H        3.04316893       6.47329170       7.75295104      -0.00989383       0.00191994       0.00604544
H        1.97392201       7.79508492       7.25628033      -0.00963792       0.00180681       0.00603455
H        3.55848000       7.60529226       6.50136263      -0.01023562       0.00090302       0.00518100
H        4.69189096      12.74106330       8.90257694      -0.00535247       0.00059687       0.00451674
H        4.60013351      12.03065306       7.28588259      -0.00694621       0.00112037       0.00442596
H        3.11849413      12.33833076       8.19714371      -0.00588059       0.00032955       0.00599740
O        1.32396192      10.23866508       4.44864418      -0.00338215       0.00478896       0.00203396
C        1.99116195       9.15976248       3.83206556      -0.00501809       0.00381196       0.00098664
C        2.22865673      11.16162136       5.02341164      -0.00187524       0.00742257      -0.00449088
C        0.97543351       8.23088760       3.21443787      -0.00727224       0.00331175       0.00657038
C        1.43900924      12.32477197       5.57340233      -0.00054768       0.00809380      -0.00487186
H        2.68283379       9.54226003       3.06543070      -0.00851509       0.00294024      -0.00221965
H        2.60518841       8.62810063       4.57756929      -0.00220424       0.00525460      -0.00084373
H        2.81013544      10.67184105       5.81723881       0.00158104       0.01036999      -0.00548780
H        2.94285352      11.50678061       4.25555543      -0.00564450       0.00548857      -0.00834167
H        1.46563549       7.35945017       2.77701623      -0.00885413       0.00392172       0.00383998
H        0.27249745       7.88635500       3.97298379      -0.00327900       0.00238778       0.01019146
H        0.41018266       8.74939147       2.44197608      -0.01181340       0.00279866       0.00950715
H        2.10874609      13.06949498       6.00620870       0.00088948       0.00992912      -0.01022579
H        0.84904843      12.79439665       4.78565941      -0.00519378       0.00493408      -0.00323692
H        0.74754547      11.98305074       6.34291106       0.00372477       0.01014251       0.00010502
O        1.31233749       4.46211766       3.03905662       0.00224203      -0.00159854       0.00159092
C        1.87876213       4.20442610       4.31488627       0.00161432      -0.00552574      -0.00051636
C        1.85316014       3.62074139       2.04084588       0.00727591       0.00466290      -0.00291514
C        1.29467933       5.16953931       5.31586824      -0.00183436      -0.01082137       0.00259072
C        1.19838896       3.94683827       0.72174886       0.00666350       0.00743811      -0.00124893
H        1.66686278       3.16463270       4.60679820       0.00454220      -0.00712067      -0.00402604
H        2.97168205       4.31522578       4.25925066       0.00142109      -0.00226790       0.00127583
H        2.94240412       3.76250234       1.98685317       0.00590760       0.00831217      -0.00065592
H        1.67522395       2.56699249       2.31026957       0.01005021       0.00276354      -0.00700729
H        1.66463773       4.94032241       6.31583186      -0.00069905      -0.01189406       0.00161897
H        1.57102245       6.19437552       5.07219201      -0.00612270      -0.00909750       0.00477897
H        0.20627519       5.10151969       5.32540567      -0.00157861      -0.01516658       0.00252373
H        1.61770641       3.33494139      -0.08016660       0.00913680       0.01303650      -0.00382762
H        0.12396896       3.76694401       0.77643787       0.00682166       0.00434203      -0.00330524
H        1.35608499       4.99468602       0.46675204       0.00320151       0.00989950       0.00308707
O        9.49769650      11.50992765      10.83209695      -0.00141001       0.00064924      -0.00677999
C       10.86052354      11.69563020      11.14526174      -0.00107595      -0.00377819      -0.00564370
C        8.97423929      12.59132381      10.08548193       0.00136131       0.00368697      -0.00385512
C       11.35202934      10.48419326      11.90069066      -0.00532883      -0.00482371      -0.00514790
C        7.53055046      12.29629514       9.76995566       0.00151938       0.00682165      -0.00774421
H       11.43586131      11.84253474      10.21909892      -0.00001349      -0.00523903      -0.00541463
H       10.97333179      12.61446758      11.74730994       0.00260497      -0.00568852      -0.00376964
H        9.06799842      13.52449281      10.66423804       0.00135582       0.00139531      -0.00033277
H        9.55663788      12.72332531       9.16122245       0.00295100       0.00649767      -0.00247473
H       12.42393760      10.55872199      12.08981068      -0.00603123      -0.00489257      -0.00125663
H       10.83980562      10.38348160      12.85676863      -0.00797929      -0.00317410      -0.00659302
H       11.17419068       9.58375740      11.31253108      -0.00480655      -0.00463475      -0.00529352
H        7.09679961      13.10713997       9.18331654       0.00363643       0.00963511      -0.00544637
H        7.45367146      11.37392736       9.19327319       0.00118566       0.00928740      -0.01145547
H        6.95431996      12.17499485      10.68902616      -0.00036678       0.00419851      -0.00943148
O       11.58817177       8.98780447       6.33992847       0.00456178       0.00644839      -0.00489348
C       10.63146312       8.05461446       5.87619156       0.00345165       0.00653078      -0.00265229
C       11.73389088       8.95034699       7.74243652       0.01108989       0.00217304      -0.00529414
C       10.41121582       8.24329739       4.39669889      -0.00032419       0.00830112      -0.00161046
C       12.71958867      10.01725452       8.15134664       0.01260430       0.00041759      -0.00577981
H       10.97363548       7.02990948       6.10009994       0.00453992       0.00684553      -0.00472525
H        9.68724642       8.20176145       6.41926817       0.00519854       0.00593078       0.00034964
H       10.75820872       9.12210998       8.22687698       0.01338297       0.00055984      -0.00076030
H       12.08205272       7.95380136       8.06345359       0.01251441       0.00144631      -0.01049517
H        9.71528427       7.48694151       4.03006454      -0.00132439       0.00890628      -0.00089084
H        9.99496681       9.22845354       4.19267501      -0.00061025       0.00868684       0.00031886
H       11.34916829       8.14218732       3.85012789      -0.00175172       0.00906499      -0.00409066
H       12.85546379      10.01093685       9.23403983       0.01331489      -0.00229396      -0.00606504
H       13.68542062       9.85274509       7.67261537       0.01194264       0.00087566      -0.00722882
H       12.35213661      10.99825734       7.84781294       0.01313529       0.00157383      -0.00317133
O        6.90531608      10.13247440       4.80540971      -0.00230536      -0.01162802       0.00338531
C        5.98927989       9.48195070       5.66248866      -0.00201395      -0.00723052       0.00676763
C        6.49383781      11.44610057       4.47762097       0.00377774      -0.00900686       0.00609931
C        6.57635759       8.14833558       6.05011845      -0.00860596      -0.01151901       0.00150540
C        7.56600128      12.09070235       3.64294244       0.00353289      -0.01475619       0.00183976
H        5.81020285      10.09872552       6.55408637       0.00631185      -0.00728062       0.00850382
H        5.01778516       9.36520793       5.15951740      -0.00515372      -0.00029219       0.01136905
H        5.53478261      11.41249128       3.93532691       0.00123829      -0.00356563       0.01054084
H        6.31899420      12.01871642       5.40319483       0.01116426      -0.00903338       0.00722647
H        5.91662355       7.61762293       6.73579037      -0.00648154      -0.00643950       0.00733219
H        6.73940201       7.52048764       5.17329633      -0.02121054      -0.01261144       0.00008070
H        7.53429457       8.30301156       6.54465859      -0.00313962      -0.01869979      -0.00694118
H        7.28783353      13.11749193       3.41090397       0.00715044      -0.01406856       0.00107485
H        8.51771984      12.08259924       4.17505838       0.00538765      -0.01790887      -0.00137620
H        7.70626601      11.54606141       2.70939582      -0.00148921      -0.01651359       0.00224353
O       10.10037103       3.07552710       4.55181987      -0.00690943      -0.00342637      -0.00238916
C       11.22047168       3.34008359       3.72541792      -0.00029558      -0.00514477       0.00376153
C        9.92079777       1.68754859       4.80379367      -0.00446969      -0.00351602       0.00161585
C       11.28199900       4.82111127       3.44546730      -0.00147413      -0.00597525       0.00046059
C        8.62305820       1.49206727       5.55199420      -0.00641876      -0.00307240      -0.00171471
H       12.14197605       2.99431270       4.21950307      -0.00283313      -0.00180839       0.01085177
H       11.12645380       2.76824964       2.78937486       0.00830682      -0.00949720       0.00390786
H        9.90652715       1.13771692       3.85431615      -0.00057783      -0.00638467       0.00293368
H       10.77673941       1.30253630       5.37811156      -0.00522524      -0.00081722       0.00630227
H       12.17783463       5.06073967       2.87223442       0.00117089      -0.00538442       0.00440360
H       10.40335684       5.14657763       2.88743259       0.00043535      -0.00677889      -0.00394776
H       11.31719682       5.38384590       4.37893324      -0.00633642      -0.00401340       0.00005360
H        8.52340375       0.45247149       5.86544963      -0.00639257      -0.00272308      -0.00149767
H        8.58941677       2.12440437       6.43705052      -0.00963761      -0.00272791      -0.00234909
H        7.77077345       1.74276507       4.92067490      -0.00465930      -0.00455996      -0.00433218
O        2.98680803       3.29120093      10.53338426      -0.00176033      -0.00148995       0.01096259
C        4.29323681       2.74939784      10.45060079       0.01325917      -0.00265849       0.00011797
C        2.94091943       4.62389019      10.05788588      -0.00427735       0.00675350       0.00138094
C        4.26242438       1.33845336      10.98140839      -0.00489121       0.01007003       0.03013343
C        1.50671190       5.09204091      10.04418536      -0.00377589      -0.00299393       0.00700713
H        4.63270821       2.76643742       9.40415689      -0.00830620      -0.00718822       0.00829488
H        4.99319034       3.37217766      11.02781649       0.00154215       0.00705373      -0.00890622
H        3.56063399       5.26942981      10.69944646      -0.00210577       0.00173548      -0.00004518
H        3.37454619       4.66215065       9.04708650      -0.00644515      -0.00266355       0.00315404
H        5.23394710       0.86004898      10.84839841       0.00611643       0.00679256       0.01239019
H        4.02549476       1.33110012      12.04547576       0.03734127       0.01339499      -0.01807311
H        3.51019432       0.75304771      10.45247300       0.00318812       0.00016302       0.00705242
H        1.44899484       6.12669295       9.70345703      -0.00655180      -0.00723283       0.00511855
H        0.90757748       4.47428301       9.37398341      -0.00442912      -0.00864492       0.01153840
H        1.07512334       5.03537042      11.04371253      -0.00028507      -0.00290170       0.00986183
O        5.90741079       1.05490323       2.04831825       0.00984825      -0.00751233      -0.00069824
C        6.42728231       0.88816617       0.74027047       0.00661308      -0.00410901      -0.00188959
C        4.50882516       0.85647987       2.10124319       0.00900948      -0.00331660       0.00076431
C        7.93307508       0.97679612       0.79388955       0.00591522      -0.01062730      -0.00264521
C        4.04233595       1.05055870       3.52369597       0.00950927      -0.00357122       0.00001144
H        6.10881261      -0.08499693       0.33694468       0.00245681      -0.00033006      -0.00689508
H        6.01252255       1.66734939       0.08178256       0.00902241      -0.00003472       0.00311828
H        4.01359067       1.57236208       1.42619404       0.01436959      -0.00019953       0.00282478
H        4.26802419      -0.15799405       1.74706926       0.01060723      -0.00194496       0.00057143
H        8.34411520       0.94182105      -0.21628835       0.00453789      -0.00529224      -0.00330836
H        8.23497331       1.91598172       1.25799686       0.00936132      -0.01479998       0.00419797
H        8.35903366       0.15498879       1.36731466       0.00363474      -0.01580489      -0.00819017
H        2.97207931       0.85428257       3.60423598       0.00896965      -0.00031284       0.00230816
H        4.56464774       0.36412758       4.19116986       0.00797921      -0.00593342      -0.00149724
H        4.23519251       2.07060130       3.85723964       0.01234930      -0.00446144       0.00107553
O        6.19700551       6.15999472       2.66656023      -0.00055283       0.00564751      -0.00463122
C        7.44487634       5.50337721       2.78524486      -0.00263704       0.00297624       0.00126852
C        6.32716328       7.52190143       2.29778077       0.00443912       0.00600222      -0.00102300
C        7.19412439       4.07378704       3.18407822      -0.00712483       0.00246650      -0.00340980
C        4.94858968       8.12823173       2.31031037       0.00571507       0.00927454      -0.00777177
H        7.99194933       5.55895874       1.83183572       0.00308318       0.00427752       0.00468695
H        8.06483527       6.01338154       3.53784605      -0.00616470       0.00012237       0.00613266
H        6.98808599       8.04816191       2.99926287       0.00149021       0.00323266       0.00368339
H        6.78446490       7.60156924       1.30237901       0.01017287       0.00716619       0.00174123
H        8.13939130       3.54103413       3.28410124      -0.00839138       0.00149029       0.00255512
H        6.68852245       4.03439878       4.15062599      -0.01452214       0.00121145      -0.00748587
H        6.56732833       3.56343253       2.45261196      -0.00181453       0.00434184      -0.00908715
H        4.99512498       9.19578435       2.09335324       0.00970115       0.00915189      -0.00690867
H        4.30251981       7.64454574       1.57582761       0.00892269       0.01130825      -0.01163000
H        4.49880776       7.99407904       3.29348259       0.00019884       0.00980149      -0.01039319
O        9.18414738       4.63869051      12.37229753      -0.00499652       0.00455993       0.00204543
C        9.99335523       3.48463627      12.41766571       0.00221264       0.01002817       0.00298566
C        7.81702454       4.34134224      12.58850922      -0.00198415      -0.00452459       0.00818213
C       11.40579545       3.86999359      12.05323669      -0.00077787       0.01758415      -0.00089588
C        7.02288687       5.61683591      12.45728739      -0.01084867      -0.01086828       0.00391921
H        9.96002400       3.03617918      13.42246252       0.00574401       0.01293220       0.00409096
H        9.60186941       2.73150382      11.71645423       0.00591701       0.00564644       0.00533450
H        7.48224180       3.59510957      11.85086310       0.00158340      -0.01071715       0.01298878
H        7.68492839       3.90126798      13.58735024       0.00375295      -0.00073403       0.01057768
H       12.04790486       2.98768110      12.03940793       0.00449251       0.02140503      -0.00082304
H       11.42902067       4.33470284      11.06746977      -0.00604604       0.01565359      -0.00176859
H       11.80669104       4.58037433      12.77602020      -0.00325203       0.02111396      -0.00305107
H        6.00096475       5.47403112      12.81025398      -0.00885157      -0.01605490       0.00733270
H        7.48526607       6.39956929      13.05842593      -0.01459462      -0.00492923      -0.00100170
H        7.00130240       5.95140110      11.42323794      -0.01528945      -0.01624348       0.00232360
O        9.02966400       5.02311272       8.93187821       0.00547236      -0.00462902       0.00088394
C        9.80813626       4.19570310       8.08452329       0.00400127      -0.00507593       0.00026833
C        8.98688110       6.34147304       8.41859983       0.00651297      -0.00396818       0.00319815
C        9.88850335       2.81030720       8.67463186       0.00115682      -0.00528061       0.00004268
C        8.18305516       7.23447448       9.32854353       0.00287122      -0.00715116       0.00293750
H        9.36773626       4.17093774       7.07813845       0.00377825      -0.00398135       0.00044841
H       10.81689015       4.62530284       7.97692077       0.00462425      -0.00683534       0.00033366
H       10.01120082       6.72388455       8.32227006       0.00655907      -0.00288863       0.00681889
H        8.55493650       6.32414379       7.40670750       0.00942612      -0.00222690       0.00202632
H       10.42831416       2.14709008       7.99768179      -0.00086437      -0.00676038       0.00010629
H       10.41055135       2.82787378       9.62986659       0.00123274      -0.00637875      -0.00000963
H        8.88908213       2.40289783       8.83573452       0.00019601      -0.00256351       0.00041782
H        8.19182460       8.25744655       8.94765523       0.00309184      -0.00606070       0.00603921
H        7.14627723       6.89997085       9.38584756       0.00314729      -0.00862625      -0.00158758
H        8.60478102       7.23952896      10.33313616      -0.00070752      -0.01012258       0.00429839
