188
Lattice="13.403965555736823 0.0 0.0 0.0 13.403965555736823 0.0 0.0 0.0 13.403965555736823" Properties=species:S:1:pos:R:3:forces:R:3 energy=-820863.8125 stress="-0.003913656808435917 -0.0009501443419139832 5.831663838762324e-05 -0.0009501443419139832 -0.0018003658624365926 0.00013835942081641406 5.831663838762324e-05 0.00013835942081641406 -0.004387246444821358" pbc="T T T"
Fr      12.58972181      14.00514202      -1.42537583       0.00470176       0.01192844       0.01805505
O       12.07205231       9.87373808       0.64969618       0.03421934       0.01619911      -0.00480166
O       11.66566751      11.96578008      -0.02601388       0.02362382       0.01160467      -0.00528419
C       12.77020775      11.65438486       2.05351250       0.01670885       0.02004060      -0.00124788
C       12.11395911      11.09637252       0.81007881       0.02545351       0.01622564      -0.00297701
H       13.71265928      12.11819327       1.76691496       0.01765546       0.01901916       0.00091607
H       13.00338395      10.88015549       2.77216671       0.01688023       0.02276224       0.00101434
H       12.16055487      12.42897483       2.51986875       0.01434987       0.02046895      -0.00546749
O        4.94342512       9.83373813       8.18767430      -0.00269760       0.01449600       0.00361852
O        5.86194554       7.92703539       8.56190579      -0.00408423       0.01591328       0.00813446
O        7.19447782       9.76498276       8.44279783      -0.00010705       0.01427013      -0.00394597
C        5.03661995      11.24444098       7.90167010      -0.00301015       0.01499340       0.00688835
C        3.63217167      11.73498224       7.66522525      -0.00160491       0.01676555       0.00567621
C        6.12026239       9.22363579       8.40027903      -0.01004589       0.01195255       0.00133740
C        6.99320504       7.08786284       8.87653056      -0.00585258       0.01756679       0.01223096
H        5.51635486      11.74169551       8.74634363      -0.00488640       0.01267906       0.00928426
H        5.67814155      11.37909710       7.02857111      -0.00080660       0.01704071       0.00893137
H        3.64685281      12.80433458       7.45239923      -0.00049929       0.01742893       0.01057028
H        3.18215838      11.22875617       6.81198906       0.00038341       0.02050287       0.00262558
H        3.01459214      11.56424029       8.54877914      -0.00352900       0.01313440       0.00325768
H        7.64908848       6.99323662       8.01685929      -0.00714448       0.00974364       0.01209792
H        6.57027217       6.12411377       9.13663941      -0.00568765       0.01989460       0.02082895
H        7.56348990       7.50620851       9.70220834      -0.00375156       0.02329874       0.00792187
O        1.57112808       8.47888337       5.54967818       0.00247878      -0.00836384      -0.00318360
O        1.90595395       8.72291854       3.43800387       0.00574385      -0.01091914      -0.00288397
O        0.93807967      10.42607241       4.58570177       0.00474083      -0.00968146      -0.00664305
C        0.99599704       8.91832820       6.79890285       0.00201297      -0.00255364      -0.00497112
C        1.71752181       8.22198637       7.92511157      -0.00947791      -0.00951412      -0.00296056
C        1.41471143       9.32018140       4.52693874       0.00484714      -0.01094794      -0.00389750
C        1.87743342       9.51910406       2.24835983       0.00003164      -0.01241201      -0.00326262
H        1.08084427      10.00263041       6.86472582       0.01415772      -0.00389028      -0.00485298
H       -0.05587625       8.65578930       6.77868231      -0.00049043       0.00941764      -0.00902057
H        1.18594232       8.40201124       8.86090304      -0.00656763       0.00245621      -0.00403981
H        1.74434232       7.14326492       7.76723086      -0.02680228      -0.01013793       0.00147032
H        2.73916705       8.58582897       8.03203487      -0.00433037      -0.02457365      -0.00402394
H        0.92267514       9.38881119       1.73881945      -0.00808811       0.00117947       0.00951938
H        2.69358793       9.16125588       1.62574667      -0.01430005      -0.02557492      -0.01356964
H        2.04200186      10.56419150       2.49892335       0.01847721      -0.01464260      -0.00734255
O        1.85962524       2.98994524       1.48770571      -0.00376874      -0.01295248      -0.01178144
O        2.41951071       5.00755382       0.97853743      -0.01123732      -0.01352647      -0.01570149
O        4.03745122       3.42218744       1.03125886      -0.00347942      -0.00359380       0.00969332
C        2.22473754       1.64679714       1.88623877      -0.00269544      -0.00842860      -0.00075863
C        1.06755198       1.09567310       2.66841652       0.00227928       0.00357662       0.01239437
C        2.88963299       3.77572174       1.15070009      -0.00356328      -0.01000810      -0.00552097
C        3.44362679       6.00135873       0.84095477      -0.01684856      -0.00728061      -0.01030231
H        2.44496110       1.06562905       0.98521888      -0.00458242      -0.01820374       0.00520179
H        3.12867665       1.69886659       2.49070951      -0.00015566      -0.00402671      -0.00691018
H        1.30032497       0.08977827       3.01493819       0.00329513       0.00880024       0.02682585
H        0.87828698       1.71549282       3.54173023       0.00888073       0.01749401       0.00537986
H        0.16125041       1.04974792       2.06403129       0.00202297      -0.00420064       0.01981048
H        4.03879053       6.01837238       1.74975814      -0.03362998       0.00845690      -0.00034401
H        2.91471910       6.94053083       0.71495862      -0.02223900      -0.01366091      -0.03012786
H        4.08012082       5.78311054      -0.01265061       0.00011247      -0.01102450       0.00365391
O        9.98177618       9.89241847      11.26760843      -0.00297059      -0.00778211       0.00610945
O        8.13811850      10.99798822      11.33498458      -0.00235256      -0.00567949      -0.00017649
O       10.03266498      12.11772010      10.80743802      -0.00080618      -0.00931799       0.00440797
C       11.41656599       9.78370219      11.06959796      -0.00331004      -0.01023960       0.00194223
C       11.79849979       8.35496198      11.33172428      -0.00471040      -0.00986999       0.01180990
C        9.45496162      11.09083903      11.11866119      -0.00146735      -0.00649506       0.00250338
C        7.40491758      12.21353456      11.16749336       0.00056674      -0.00404558      -0.00058405
H       11.64670135      10.08101801      10.04840180      -0.00716887      -0.01373491       0.00085765
H       11.88921932      10.45563930      11.78048900       0.00246240      -0.00567448      -0.00779611
H       12.86209060       8.22574763      11.12485369      -0.00916988      -0.01950433      -0.00366117
H       11.62424283       8.12172693      12.37731875       0.01121232       0.00139961       0.01668611
H       11.22959742       7.67572738      10.69880779      -0.01725531      -0.01700652       0.03101881
H        7.61445287      12.90628608      11.98305104       0.00746906      -0.00031310      -0.00593284
H        6.35802261      11.92492485      11.19312441       0.00040829      -0.00143147       0.00788215
H        7.64807863      12.68938197      10.21954955      -0.00471403      -0.00841373      -0.00371671
O       11.36391322       9.38075862       7.80609758      -0.01083204      -0.00866203      -0.00105521
O       11.86801829       7.28105910       7.97697447      -0.00241710       0.00306295       0.00720437
O        9.77476050       7.93382278       8.52285516      -0.01019406      -0.01002294       0.00976384
C       10.41195433      10.47492677       7.90071745      -0.00518847      -0.00765955      -0.00541665
C       11.20465274      11.75558076       7.83043393      -0.00926885      -0.00449377      -0.00067437
C       10.88695398       8.17801148       8.14133220       0.02544820       0.00170571      -0.00548553
C       11.47247455       5.92964422       8.26163219       0.01427272       0.00240377       0.00976342
H        9.69694668      10.37841524       7.08542415      -0.00492766      -0.00697763      -0.00707924
H        9.84968535      10.36988763       8.82204521      -0.00960371      -0.00750978      -0.00647315
H       10.52086341      12.60367060       7.87109527      -0.00975838      -0.00549191      -0.00151149
H       11.88511111      11.83635890       8.67662771      -0.01293683      -0.00614050       0.00197989
H       11.78741750      11.81505469       6.91183043      -0.00694916      -0.00261362       0.00109485
H       11.12600234       5.84384626       9.29014487       0.02736495      -0.00019153       0.01512673
H       12.36132631       5.32965501       8.09527989       0.01276271       0.00255907      -0.00024616
H       10.67579434       5.61732810       7.59020090       0.00524426      -0.00250024       0.02103034
O        5.55714663       9.13718949       5.04949572       0.00870850      -0.00299138       0.00595034
O        6.01830847      11.13875470       4.37213468       0.01004379      -0.00279851       0.00889240
O        3.85276459      10.51998793       4.49755468       0.01008284      -0.00242850       0.00502855
C        4.60040707       8.09061550       5.38520950       0.00715846      -0.00152346       0.00438392
C        5.37302052       6.82272317       5.61164870       0.00518155      -0.00252619       0.00348031
C        5.02805489      10.27618215       4.62738660       0.00912404      -0.00234227       0.00616187
C        5.56495109      12.33326866       3.72352540       0.01119764       0.00034441       0.01461065
H        4.06792002       8.41142407       6.27622901       0.00670245      -0.00174738       0.00394768
H        3.88284880       7.99402796       4.57471253       0.00796533      -0.00035761       0.00387335
H        4.68767502       6.06323848       5.98621384       0.00290847      -0.00350190      -0.00352949
H        5.80826450       6.45085960       4.68695077       0.00947684       0.00160207       0.00410774
H        6.16396301       6.96114498       6.33932362       0.00185215      -0.00632013       0.00781102
H        4.95855387      12.07780154       2.85601229       0.01978847       0.00531717       0.00762787
H        6.46444848      12.84348187       3.40507218       0.01186600       0.00623094       0.02666513
H        4.98214562      12.94904597       4.40950860       0.00325409      -0.00720713       0.01411250
O        7.81769714       2.22515403      10.72870038       0.00289977      -0.00047001      -0.01403429
O        6.22572924       2.32266165       9.26880716       0.00843069      -0.00172389      -0.01965284
O        7.94846284       3.78090703       9.08627546      -0.00097963       0.01196462      -0.00350541
C        9.08397893       2.69706843      11.22049674      -0.00520663       0.00875923      -0.00205427
C        9.35968373       1.97940830      12.51556890      -0.01033984       0.00734681      -0.00210029
C        7.38425702       2.86908950       9.63670402       0.00195271       0.00202358      -0.01029885
C        5.57288985       2.99967904       8.18203272       0.00851844       0.00093699      -0.01812610
H        9.84851218       2.48715321      10.46908517       0.00138968       0.01874386       0.00233018
H        9.03380741       3.77773389      11.35353390      -0.01772662       0.00785440       0.00142486
H       10.28132975       2.36120223      12.95724507      -0.02044813       0.01606794       0.00985946
H        8.55899066       2.15621681      13.23262319      -0.01967311      -0.00168394      -0.01170333
H        9.45481319       0.90419285      12.35974544       0.00075805       0.00867596      -0.00234473
H        5.44593256       4.05408577       8.42135026      -0.00521060      -0.00287643      -0.00855938
H        4.60624270       2.51499121       8.07844219       0.01521870      -0.00956377      -0.02945312
H        6.15433723       2.90090855       7.26655785       0.01704672       0.01655344      -0.01427242
O       10.48474120       8.12577761       2.27879231       0.00584634       0.00691504      -0.01617384
O       10.60328804       9.85572189       3.54788945       0.00819032       0.00532857      -0.01505226
O       12.30800467       8.35984215       3.60439891      -0.00746560      -0.00510487      -0.00390083
C       11.09379365       6.99410068       1.62516465       0.00329429       0.00192352      -0.00822988
C       10.05556326       6.44243307       0.68173528       0.00270221      -0.00387846      -0.00391454
C       11.25421117       8.74391906       3.16314966       0.00616598       0.00039032      -0.00818670
C       11.14210499      10.49849498       4.70858572       0.00388487      -0.00024381      -0.00987783
H       11.98137416       7.35721011       1.10620612       0.00378421      -0.00345311      -0.01063520
H       11.40038967       6.26913686       2.38353339       0.00304684       0.00690132      -0.00401327
H       10.49595349       5.64653541       0.07772054       0.00262030      -0.00716994       0.00065328
H        9.20438330       6.03705391       1.23008184       0.00386572      -0.00088563      -0.00071333
H        9.68632782       7.22667895       0.02343361       0.00179353      -0.00864512      -0.00842045
H       11.30950186       9.76812590       5.49651654      -0.01025397      -0.00211552      -0.00931332
H       10.38530026      11.22040416       5.00747301       0.00808755       0.00659049      -0.01574552
H       12.08378970      10.99193444       4.49333413       0.01032206      -0.00954336      -0.00110960
O        7.42432561      11.10754287       1.61676580      -0.00435844       0.00046253      -0.00873213
O        5.88696011       9.61310354       1.87313924      -0.00176395      -0.00010338      -0.00451618
O        7.83882620       8.99135913       0.90916920      -0.00521213       0.00016987      -0.01540071
C        8.79343676      11.47806729       1.31867132      -0.00661173       0.00394350      -0.01124078
C        9.01123861      12.83721398       1.93188496      -0.00383541      -0.00136402      -0.00129884
C        7.13375365       9.82522317       1.40969067      -0.00758809       0.00474679      -0.00761008
C        5.49442188       8.24062941       1.83712007      -0.00227635       0.00045743      -0.00494546
H        9.45615098      10.72437621       1.73366013      -0.00393999       0.00103024      -0.02102059
H        8.92873659      11.48721364       0.23990736      -0.01169688       0.01400727      -0.01166624
H       10.00779467      13.18754070       1.66652085      -0.00388674      -0.00045881       0.00086254
H        8.27708265      13.55626373       1.56396669      -0.00330043       0.00230358       0.00561152
H        8.93388604      12.79062188       3.01962336      -0.00265738      -0.01020116      -0.00193582
H        5.41196864       7.89386114       0.80694937      -0.00586703       0.00126129      -0.00494033
H        4.53454043       8.19798737       2.34176318      -0.00010398       0.00001390      -0.00176530
H        6.22176448       7.62123934       2.36165134      -0.00053397      -0.00053735      -0.00860666
O        4.08598288       3.80119391      11.01195077      -0.00914557       0.00380492      -0.00756493
O        4.75606745       5.85480106      11.04915714      -0.01404485       0.00487311       0.00391895
O        2.53283221       5.44970478      10.88169642      -0.01064330       0.00039670      -0.01099258
C        3.02317323       2.82670493      10.97577420      -0.00567514       0.00004148      -0.00479443
C        3.64447106       1.46419249      11.14527156       0.00114414       0.00431573       0.00444280
C        3.67501505       5.07210021      10.96799685      -0.01321316       0.00308201      -0.00557943
C        4.46291912       7.26545981      11.08548067      -0.01722711       0.00421408       0.00382751
H        2.31811851       3.05109494      11.77996205      -0.00975674       0.00153790      -0.00840384
H        2.49655926       2.92904089      10.02323729       0.00227033      -0.00640875      -0.00927413
H        2.85912688       0.70716802      11.17218252       0.00631663      -0.00092801      -0.00373244
H        4.32114351       1.23247108      10.32620572       0.00950764       0.00717593       0.01101094
H        4.20621513       1.41969717      12.07722509      -0.00534896       0.00951330       0.00853510
H        3.99307657       7.57851744      10.15812542      -0.01215136       0.00543775       0.00203192
H        5.42492419       7.75389445      11.20515574      -0.01931217       0.00681148       0.00959986
H        3.80787336       7.48879655      11.92439357      -0.02293673       0.00263766      -0.00061154
O        4.38068147       3.09943718       4.21915762      -0.00345470       0.01383675       0.00802322
O        2.29529582       3.56205288       4.59417385      -0.00322126       0.00754005       0.01103344
O        3.63572685       5.19891314       3.80775804      -0.01301441       0.00779480      -0.00379416
C        5.70120623       3.50702452       3.76559353      -0.00611338       0.01391774       0.00153441
C        6.44746293       2.26714821       3.35800196      -0.00642358       0.01280910       0.00571055
C        3.45877862       4.06471029       4.17796435      -0.00697261       0.01005554       0.00413001
C        1.20548001       4.51084955       4.55006675      -0.00685412       0.00256619       0.00908553
H        5.58095537       4.19047086       2.92883632      -0.01036657       0.00960544      -0.00107348
H        6.19514352       4.02286696       4.58900289      -0.00382724       0.01834677      -0.00278607
H        7.46061996       2.53960830       3.05921655      -0.00871633       0.01220842      -0.00160405
H        6.51681626       1.56031329       4.18351550      -0.00095542       0.01893323       0.01013708
H        5.95637348       1.78254423       2.51372411      -0.01053379       0.00667661       0.01206781
H        1.30643307       5.22788773       5.36302132       0.00221661       0.02026996      -0.00861511
H        0.30084939       3.92261014       4.66808552      -0.00232601       0.00208895       0.03521451
H        1.20470643       5.03944195       3.60032974      -0.02405863      -0.01771139      -0.00146508
O        8.63929363       5.92367801       5.49779577       0.01431850      -0.01527214       0.00119819
O        8.55263377       3.76052331       5.54739389       0.01128224      -0.01415820       0.00868865
O       10.53336451       4.75356449       5.08408560       0.01104373      -0.01839223       0.00424114
C        9.38637889       7.14707094       5.23439408       0.01353008      -0.01784720      -0.00794117
C        8.43700849       8.29933215       5.35275624       0.01437703      -0.01772436      -0.00688028
C        9.35677736       4.81883605       5.35005014       0.01486731      -0.01710267       0.00428705
C        9.23883436       2.50511595       5.48281216       0.00712003      -0.01632639       0.01012091
H       10.21259385       7.19718270       5.94190081       0.01848331      -0.01505651      -0.01403910
H        9.80264861       7.06322985       4.23493782       0.00785854      -0.02189627      -0.01001209
H        8.96729646       9.23204116       5.18265250       0.01055567      -0.01902108      -0.02331077
H        7.65269702       8.23948368       4.60541046       0.00482443      -0.02602373       0.00442804
H        7.98205005       8.35313673       6.33905430       0.02655366      -0.00932238      -0.00185785
H        9.72568058       2.38408632       4.51569513       0.00075817      -0.02169135       0.00795880
H        8.47466817       1.74722269       5.62338572       0.00556643      -0.01319496       0.01761141
H        9.98826210       2.44419592       6.27096056       0.01120403      -0.01606722       0.00581273
