198
Lattice="12.882946372973006 0.0 0.0 0.0 12.882946372973006 0.0 0.0 0.0 12.882946372973006" Properties=species:S:1:pos:R:3:forces:R:3 energy=-961582.5 stress="0.0012332812184467912 -0.0002566778421169147 -0.0003995691367890686 -0.0002566778421169147 0.0008662721375003457 0.00024652317370055243 -0.0003995691367890686 0.00024652317370055243 8.55354592204094e-05" pbc="T T T"
Fr      12.65996009      13.45249423       0.62694923       0.00304690       0.01413029       0.02027205
I       14.57772626      10.29898000       1.07244819      -0.00951511       0.00659841       0.00268431
N        5.05670507       6.12926485       3.56178683      -0.00492559      -0.00663000      -0.00270326
H        4.69095026       6.45758250       4.45347283      -0.00376987      -0.00928598      -0.00141628
H        5.89022190       6.68071701       3.35637350      -0.00756440      -0.00291249      -0.00429638
H        5.39961357       5.18807032       3.73471247      -0.00012792      -0.00532211      -0.00475595
N        1.18066353       2.41004029       2.57408832      -0.00686160       0.00900146       0.00340587
H        2.05744939       2.84063760       2.26452238      -0.00957967       0.01143225       0.00002560
H        1.42952496       1.75207497       3.30861661      -0.00338719       0.00923474       0.00079556
H        0.62154050       3.13756368       3.00479310      -0.00671647       0.00840821       0.00733294
N       10.07654524       0.40397587       9.83607498      -0.00344050       0.00661868      -0.00700176
H        9.52996390       1.09330592      10.34199361       0.00262989      -0.00718474      -0.00367473
H        9.40464015      -0.15573850       9.31385682      -0.00674322       0.00497943      -0.01535825
H       10.60304458       0.91833959       9.12871045      -0.00385562       0.00741093      -0.00918175
N        7.04169623       9.37336418       1.04148820      -0.01028270      -0.00265756       0.00105056
H        6.91453690       9.18830029       2.03087023      -0.00915468      -0.01105362      -0.00050458
H        6.81074286      10.35053440       0.90282946      -0.00914385      -0.00109188       0.00987453
H        8.03765540       9.27424258       0.87748345      -0.01021799      -0.00196013      -0.00054384
N        4.53328118       5.05644485      10.44601322      -0.00138888       0.00165901      -0.00224563
H        5.15197497       5.55486052      11.08561449      -0.00267358       0.00234131      -0.00125215
H        5.13585453       4.56086494       9.79682992      -0.00037179       0.00823994      -0.00499719
H        4.06096259       4.33748672      10.98262685       0.00463802      -0.00427900      -0.00300947
N        7.86726197       9.36347883       9.40133634       0.00407743      -0.00000092      -0.00304095
H        7.82026509       9.55556906      10.39598388       0.00084378       0.00326431      -0.00350172
H        6.99441583       8.89760789       9.16027102       0.00578316      -0.00256368      -0.00367391
H        7.90102370      10.26452728       8.92944312       0.00227659      -0.00096612      -0.00521159
N       10.05455225       8.61490865       7.16186992      -0.00208655       0.00270865      -0.00249907
H       10.68150241       7.83613579       7.32520905      -0.00779360      -0.00339370      -0.00854562
H        9.42165252       8.65501026       7.96050681      -0.00266461       0.00025610      -0.00303923
H       10.61573982       9.46626093       7.19219728       0.00351851      -0.00117314       0.00559992
N       11.80163384       6.57401468       0.83844114      -0.00240117       0.00543213       0.00507989
H       11.71023475       7.08443221       1.71573424      -0.00668669      -0.00650793       0.00960199
H       11.02668821       6.87560282       0.25320597       0.00023054       0.01504288       0.00328954
H       12.63908782       6.94300629       0.39976673      -0.00007296       0.00974400       0.01364145
N       10.10489869       4.28260104      11.45668868      -0.01571352      -0.02412623      -0.01343670
H        9.21486263       3.94086171      11.80256426       0.02141546       0.02202044       0.01164551
H       10.68986169       4.41278482      12.27563652       0.03789205      -0.00653987       0.02552741
H       10.52536395       3.54164514      10.90805098      -0.02072662       0.01732012       0.02325761
N       10.01190139       7.38146787      10.98100983       0.00227650       0.00149610       0.00219226
H        9.43596361       7.73929173      10.22292628       0.00404064       0.00663775       0.00838480
H        9.97756617       6.36038575      10.96312284       0.00386165      -0.00062178      -0.00764399
H       10.96490489       7.64796292      10.75786631       0.00404233       0.00163214       0.00460892
N       12.07493589       0.07681984       4.64282613       0.00148033       0.00009477       0.00400031
H       13.04628730      -0.00033509       4.34033585       0.00280324      -0.00171666       0.00899944
H       11.55037332       0.48219818       3.87007581       0.00907916       0.00695824       0.00287783
H       11.73420656      -0.87475319       4.73441628      -0.00338751       0.00041359      -0.00537433
N       10.02392472       4.19392898       2.18648983      -0.00040517      -0.01011184      -0.00422393
H        9.18065947       4.49043826       1.69366781      -0.00117265      -0.01641363      -0.00820661
H       10.76989249       4.81076645       1.87024687      -0.00237012      -0.00786963      -0.00859404
H        9.86215917       4.40957988       3.16603764      -0.00163721      -0.00339820      -0.00769667
N        1.12377498       8.95779913      10.37430859      -0.00086129       0.00472514       0.00597896
H        1.31896734       9.00885474      11.37190701      -0.00142435       0.01262555       0.00553699
H        1.04532762       7.97225587      10.15217913      -0.00018772       0.00251935       0.01432566
H        0.20257194       9.38149085      10.25309188      -0.00132873       0.00307240       0.00257415
N        4.79915858       7.86895894       8.85568584       0.00213653       0.00136255      -0.00266713
H        4.56547202       6.98919584       9.31545670      -0.00243381       0.00711498       0.00541449
H        4.88398068       7.65177820       7.86714554      -0.00469244      -0.00853975      -0.00102471
H        3.98398763       8.46508628       8.95893605       0.00614288       0.00796903      -0.00472708
N        0.79316216      -0.44108479       9.83701552       0.00322454      -0.00217399       0.00458410
H        0.66167948       0.56517598       9.89251187       0.00591072      -0.00321171       0.00271555
H        1.66120740      -0.64617189      10.32044919      -0.00043594      -0.00496031       0.00866859
H        0.05016834      -0.91633259      10.33482619      -0.00116836       0.00101410       0.00581276
N        2.14514610       1.07749566       6.79446614      -0.00153437      -0.00309306       0.00584984
H        1.36277353       0.72206421       6.25626700       0.00146828      -0.00847624       0.00352177
H        2.73268665       0.27921615       7.00734396      -0.00050284       0.00051901       0.01172646
H        2.67237542       1.68837863       6.17071873      -0.00113655      -0.00432158       0.00429184
N        8.87443491      10.32642278       3.82713416      -0.00137031      -0.00840804       0.00632349
H        9.26713481      10.23582064       4.75927373      -0.00731996      -0.01708598       0.00829811
H        7.86613495      10.45038344       3.94540603      -0.00111838      -0.00191829       0.00071041
H        9.23115570      11.19569639       3.44466581       0.00763767      -0.00918745       0.01313376
N        1.60816215       9.34815921       4.80853551       0.00402768      -0.00229260      -0.00027129
H        1.52334971       9.76420363       3.88070984       0.00093050       0.00181973       0.00167893
H        1.15252679       8.44286964       4.72959373       0.00833605      -0.00424577      -0.00400111
H        2.59749824       9.13906882       4.90831823       0.00523537       0.00277516      -0.00200703
N       11.66343176       8.81840128       3.31516286       0.00272328      -0.00156191       0.01051138
H       12.29922905       9.28610129       2.67206238      -0.00182612      -0.00713318       0.00371661
H       11.87619554       9.17653907       4.23981204       0.00706813       0.00779007       0.00663660
H       10.72385073       9.14845897       3.10811988       0.00037602      -0.00444810       0.01243819
N        3.02069045       6.72707481       6.12777751      -0.00714076      -0.01117388       0.00375755
H        2.43607421       6.48837519       5.32653513      -0.00185791      -0.00942138      -0.00173818
H        2.59553317       7.52828147       6.58097758      -0.00248048      -0.00182644      -0.00904432
H        2.94531283       5.96222105       6.78980445      -0.02758358      -0.00433153       0.00862051
N        3.94705507       3.56694792       1.59871900      -0.00827900       0.01185232      -0.00701053
H        4.11995128       3.38422802       0.61646592      -0.01020603       0.01639351      -0.00718184
H        4.71120778       3.12465920       2.10547607      -0.00868224       0.00668156      -0.00922413
H        4.08921762       4.56297975       1.74437377      -0.00465890       0.01086635      -0.00124358
N       11.79006576      11.27768231       7.26027782       0.00045535       0.00448659       0.00725071
H       12.51483095      10.81074952       6.72068404      -0.00146591       0.00092562       0.00785578
H       12.18131204      11.36160656       8.19572503       0.00182219       0.00610853       0.00665954
H       11.75978058      12.22270886       6.88920283       0.00304052       0.00346254       0.00404757
N        2.39920967      12.64328573       3.90641069       0.00302315       0.00357622       0.00068009
H        3.19976701      13.26618485       3.94672040       0.00132157       0.00605238      -0.00342117
H        2.46870469      12.08872738       3.05401959      -0.00010803       0.00498275      -0.00111320
H        2.49749498      11.99886782       4.68345618       0.00931838       0.00269481      -0.00134226
N        3.74150506       3.23818166       4.96711472       0.00413293      -0.00422060       0.00191776
H        3.01882388       3.57830790       4.34123026       0.00424921      -0.00485842       0.00125788
H        4.59870195       3.21226643       4.41630661       0.00326999      -0.00885334       0.00024486
H        3.87535661       3.96174105       5.66444845       0.00759645      -0.00070006      -0.00258818
N        8.18494364       2.36169854       7.77481347      -0.00162113       0.00836696      -0.00249362
H        7.90207297       3.31889489       7.99084039       0.00310962       0.00928413      -0.00186495
H        9.20258455       2.34518079       7.74128463      -0.00138143       0.00186431       0.00476914
H        7.94057149       1.81121890       8.58994149      -0.01155411       0.00728005      -0.00620380
N        8.09741282       7.14888684       3.12490325      -0.00252452      -0.00093576      -0.00489643
H        8.32501739       6.90838757       2.16594888       0.00331729      -0.00228214      -0.00329851
H        8.48538821       6.40030068       3.69323225      -0.00225440       0.00190415      -0.00068934
H        8.60020455       8.00459840       3.34882852      -0.00758616       0.00177660      -0.00453792
N        1.81144342       2.50800142       9.51862585      -0.00228252       0.01068874       0.00202184
H        1.91200563       2.00675731       8.62965183      -0.00363751      -0.00112907       0.00133879
H        2.72130608       2.44066181       9.96332721       0.00283416       0.00130948      -0.00075874
H        1.69440532       3.48517777       9.26098375       0.00793058       0.00038129      -0.00291520
N        8.48822790      11.88944333       7.42519992      -0.00219090       0.00368445      -0.00246805
H        9.43477511      11.55192975       7.25421985      -0.00084880       0.00558484       0.00036412
H        8.45737478      12.84727139       7.08664614      -0.00317318       0.00341272      -0.00334009
H        7.86815375      11.35879236       6.82100609       0.00082457       0.00182092      -0.00398558
N        2.27890358      10.57204315       7.75987225       0.00048843      -0.00491912       0.00422285
H        2.03886886       9.84480879       8.43308252      -0.00280101      -0.00297821       0.00508349
H        1.88599715      10.29395204       6.86294583       0.00126920      -0.00477661       0.00391471
H        1.74400167      11.37209269       8.10090361       0.00175031      -0.00301173       0.00239458
N        5.32204913      10.96460547       7.45120614       0.00050849      -0.01064609      -0.00277895
H        5.69850886      10.21384215       8.02123658       0.00118095      -0.01079668      -0.00299592
H        4.29851301      10.89743763       7.53338001       0.00066598      -0.00910477       0.00084262
H        5.60636643      11.82419383       7.90974633       0.00302847      -0.01072686      -0.00429986
N       11.93323510       5.76981449       5.22871590      -0.00131163       0.00949025      -0.00203042
H       12.37953588       5.83125067       6.13748267      -0.00942174       0.01284216       0.00137195
H       11.55256669       6.68746024       5.01547178       0.00438537       0.01029545      -0.01088410
H       12.69124730       5.64546543       4.56173311       0.00480045       0.00387343       0.00539687
N        3.89691043       1.29713949      -0.99589973       0.00087567       0.01134712       0.00036936
H        4.21458675       1.07848968      -0.05326257       0.00707847       0.01446274      -0.00455814
H        3.76340765       0.39391306      -1.45290335      -0.00582995       0.01350397       0.00298675
H        2.96547316       1.68724531      -0.89772716       0.00119349       0.01546742       0.00615198
N        7.16001355       4.90384317       0.77802006      -0.00284365      -0.01474118      -0.01306406
H        6.89504138       5.64040228       0.12304460      -0.00044461      -0.01417742      -0.01380817
H        6.65848325       5.09152072       1.64013467       0.00751363      -0.00531555      -0.00958173
H        6.74984194       4.05105404       0.41347704      -0.01729324      -0.01148795      -0.00585941
N        5.59536966      12.69020993       1.30319542      -0.00889504       0.00087258      -0.00642185
H        4.96129421      11.90021843       1.23684602      -0.01013172       0.00213303      -0.00697139
H        6.24839527      12.49548441       2.05391729      -0.01413075       0.00399035      -0.00166100
H        6.12973450      12.72858037       0.44149087      -0.00326154      -0.00414217      -0.00393531
N        8.77776000      12.32725680      12.69708588      -0.00442162      -0.00336987      -0.00274706
H        7.96804798      12.45167341      12.08482948      -0.00594228      -0.01153716      -0.00258926
H        8.69029510      11.41123985      13.12156625       0.00471421      -0.00228257       0.00138531
H        9.57645913      12.28361989      12.07216352      -0.00420862       0.00161237      -0.00354686
N        6.66937566       3.01216994       3.46411989       0.00068638       0.00120306      -0.00069891
H        7.08640979       2.71330854       2.58968391      -0.00150989       0.00136976      -0.00220802
H        6.59160306       2.17959215       4.05269813       0.00244491       0.00112279      -0.00122369
H        7.35932847       3.61935137       3.90431966       0.00172405       0.00122729      -0.00226874
N        5.67711228      10.58365506       4.24216018      -0.00059289      -0.00348103      -0.00157025
H        5.58887346      10.62662281       5.25910466      -0.00010922      -0.00871540      -0.00119618
H        5.20340383       9.73962707       3.93921685       0.00293376      -0.00416138      -0.00573247
H        5.12955488      11.35892530       3.88450711      -0.00405952      -0.00415739       0.00255150
N        5.98381871       0.98474565       5.71452756       0.00382154      -0.00379591      -0.00252637
H        5.09693197       1.46977192       5.80907349       0.00094850      -0.00967222      -0.00238898
H        6.63453785       1.40465912       6.37723170       0.00218412       0.00274187      -0.00555568
H        5.83613900       0.02156372       5.99172997       0.01041114      -0.00442779       0.00160808
N        7.60259206       5.48178462       8.68072299      -0.00191792       0.00356129       0.00144681
H        7.21420053       5.79812754       9.56329726      -0.00774170       0.00318466      -0.00157701
H        7.36309620       6.19056852       7.98519896      -0.00048358       0.00306015      -0.00163502
H        8.60881186       5.52555825       8.80307401      -0.00330118       0.00601279       0.00640926
N        6.57825435       7.27280996      11.63237497       0.00556055      -0.00361404      -0.00231550
H        7.57351543       7.33113200      11.43658265       0.00663623       0.00254594       0.00352416
H        6.42994642       7.91363679      12.41434656      -0.00263385      -0.00547209      -0.00197991
H        6.09902926       7.67073758      10.82924268       0.00813603      -0.00469745      -0.00401042
N        3.73138763      10.97904225      10.70282962       0.01223504      -0.00764436       0.00039962
H        2.85782254      10.45830182      10.63153042       0.00795329      -0.00019456      -0.00187247
H        4.21254147      10.56208289      11.49350526       0.00537523      -0.00885784       0.00396597
H        4.24691429      10.72413181       9.86625064       0.01400274      -0.01626532       0.00385233
N       11.62294316       1.98597702       7.28362108      -0.00041237       0.00615425       0.00574091
H       11.71487628       1.46593950       6.40890420      -0.00106528       0.00802762       0.00369380
H       12.51954619       1.88407377       7.75250614       0.00154896       0.00961290       0.00144132
H       11.57428819       2.96310014       7.01234815      -0.00854188       0.00638886       0.00866373
N        8.80699567       4.66728853       5.38800519       0.00659493       0.01030402      -0.00477472
H        8.71105109       3.74473812       5.79953523       0.00372462       0.01183445      -0.00248121
H        8.26330939       5.29446982       5.97266653       0.01151055       0.01407699      -0.00399157
H        9.78706069       4.93450821       5.47067860       0.00831192       0.00653857      -0.00892568
N        7.18394942       7.69497062       6.23031534       0.00271878      -0.00869182      -0.00387481
H        8.14372971       8.04013425       6.26579669       0.00140296      -0.00485063      -0.00254973
H        6.59398994       8.48849901       6.45678513      -0.00042215      -0.01182454      -0.00053160
H        6.99042003       7.47275761       5.25838021       0.00351087      -0.00581627      -0.00463757
N        9.95050441       1.09699021       2.33495705       0.00570923      -0.00939712      -0.00980467
H        9.41552702       0.90778012       3.17785591       0.01744713      -0.01564616      -0.00424909
H        9.38898487       0.72714197       1.56688872      -0.00178512      -0.01108684      -0.00408852
H        9.95234906       2.12175390       2.24824903       0.00060397      -0.00962315      -0.00626002
N       11.03663516      10.30214549      10.39469250       0.00123233       0.00365125       0.00017157
H       10.49419328       9.86723015       9.65473735       0.00607825       0.00319967      -0.00293273
H       10.78253679      11.28910651      10.37124983      -0.00222390       0.00311557      -0.00029791
H       10.67694863       9.91273198      11.25983662      -0.00023407       0.00118477      -0.00173083
N        1.84786143       6.28485052       3.09512567      -0.00181213      -0.00698117      -0.00039497
H        1.50706437       7.17199345       2.73639181       0.00576615      -0.00406501      -0.00039814
H        1.53926711       5.58493759       2.42913559      -0.00755980      -0.00459502      -0.00096913
H        2.86668854       6.31714752       3.02698069      -0.00155350      -0.01678021       0.00098319
N        1.53210309       5.66893938       9.09985032       0.01122902       0.00949001      -0.00541663
H        0.82628292       5.66705754       9.82746231       0.00773852      -0.00715546       0.00183664
H        1.41192570       6.51885608       8.56314477       0.00676703       0.01271883       0.01680374
H        2.44223340       5.71923218       9.55609621       0.00976393       0.00349103       0.00165200
N        6.45497340      12.90702337      10.67688485      -0.00257057      -0.00285104      -0.00526676
H        5.94581498      13.78131020      10.78188888       0.01824889       0.00971927      -0.01257385
H        5.73765771      12.20848740      10.51372660      -0.02045566       0.01297033       0.00219425
H        7.00832577      12.95187606       9.82826547      -0.00219328      -0.02311730      -0.00611185
