188
Lattice="13.447849652577936 0.0 0.0 0.0 13.447849652577936 0.0 0.0 0.0 13.447849652577936" Properties=species:S:1:pos:R:3:forces:R:3 energy=-791496.75 stress="-0.00027858742396347225 0.00015814057405805215 5.243125997367315e-05 0.00015814057405805215 -0.00043866157648153603 -3.371126467754948e-06 5.243125997367315e-05 -3.371126467754948e-06 -0.0005834156181663275" pbc="T T T"
Fr      13.51524740      14.04768662      -0.42674934       0.00283656      -0.02174182       0.01497473
P       11.60441931      11.96215780       1.88744086      -0.00432058       0.00142515      -0.00234061
F       10.10614017      11.51838181       1.54493296      -0.00378606      -0.01170879       0.01332957
F       11.97904792      10.51700108       2.41573529       0.00783225       0.00047985      -0.00715744
F       12.07416597      11.53040050       0.37006113      -0.02311390       0.00480554      -0.00718905
F       13.13939328      12.49244178       2.14840486      -0.00594373       0.00255514      -0.01892687
F       11.18219532      12.45244947       3.34632242       0.01094914       0.00048566       0.00515237
F       11.25000339      13.47752691       1.29557777      -0.02309479      -0.00109307       0.01145669
O        3.30777243       9.92292332       8.06102770      -0.00106929       0.00101990       0.00192168
C        3.39201169       8.61111931       8.58548629      -0.00205225       0.00294310       0.00258818
C        4.05521771      10.85689959       8.81700038      -0.00151302       0.00285542       0.00202149
C        2.68769401       7.67263627       7.63769225      -0.00316462       0.00171095       0.00473425
C        3.96568342      12.20111753       8.13694464      -0.00085923       0.00158823       0.00139095
H        4.44966016       8.32873952       8.69940790      -0.00229865       0.00146540       0.00314021
H        2.93819363       8.57747183       9.58759781      -0.00189400       0.00385812       0.00339890
H        3.66601287      10.90546477       9.84554780      -0.00311109       0.00274146       0.00178114
H        5.10078687      10.52128713       8.88442031      -0.00189129       0.00224906       0.00367772
H        2.78103877       6.64217798       7.98038576      -0.00361884       0.00277984       0.00527507
H        1.62832878       7.91898092       7.55631923      -0.00325486       0.00274983       0.00497091
H        3.12837744       7.73988664       6.64275850      -0.00392498       0.00096928       0.00396755
H        4.58356518      12.93244911       8.65860970      -0.00287373       0.00251550       0.00258446
H        4.31605524      12.12732822       7.10651527       0.00167370       0.00161672       0.00227608
H        2.93505790      12.55719217       8.11989835      -0.00112247       0.00100024      -0.00148353
O        1.01857920      10.34502900       4.25891002      -0.00119752       0.00301331       0.00628846
C        1.70535776       9.19995580       3.80156591      -0.00090310       0.00450039       0.00326008
C        1.88571873      11.27329058       4.87661317       0.00059018       0.00446689       0.00130087
C        0.72773688       8.25401467       3.14808629      -0.00326991       0.00496513       0.00711697
C        1.08545808      12.49841919       5.25190095       0.00183472       0.00582555      -0.00144121
H        2.48961244       9.50072941       3.09018935      -0.00469387       0.00511806      -0.00028241
H        2.21365397       8.70943128       4.64927534       0.00363339       0.00582898       0.00084752
H        2.35189189      10.81850523       5.76408858       0.00179859       0.00695822       0.00150663
H        2.70078476      11.54140863       4.18174790      -0.00098872       0.00216216      -0.00131068
H        1.23316583       7.33508138       2.84461508      -0.00421987       0.00647345       0.00123834
H       -0.06893016       7.99799171       3.84774895       0.00152022       0.00205615       0.01118065
H        0.27038728       8.71812999       2.27569212      -0.00896240       0.00722657       0.01223063
H        1.71308161      13.21512490       5.78428868       0.00603401       0.01056384      -0.01310180
H        0.67017149      12.97140290       4.36256811      -0.00638680      -0.00228219      -0.00104953
H        0.25134090      12.21795033       5.89329215       0.00809355       0.01096760       0.00834726
O        1.29311052       4.48857621       3.09292763       0.00262246       0.00102778       0.00069145
C        1.85495282       4.20944585       4.36722218      -0.00026384       0.00148073       0.00125644
C        1.88968740       3.71167126       2.07696148       0.00751171       0.00447185      -0.00108969
C        1.21212190       5.11052071       5.39173165      -0.00267982      -0.00018457       0.00201577
C        1.23039204       4.04477382       0.75920646       0.00411829       0.00347282      -0.00002772
H        1.68689568       3.15068159       4.61660768       0.00166617       0.00123096       0.00302757
H        2.94223330       4.37055458       4.32983312      -0.00083375       0.00368507       0.00376287
H        2.96950151       3.91557905       2.03591022       0.00591081       0.01122399      -0.00092704
H        1.76785357       2.64148476       2.31016547       0.01446287       0.00408012      -0.00119664
H        1.60421103       4.88552058       6.38466383      -0.00121371       0.00189223       0.00170894
H        1.41529674       6.15741267       5.16657086      -0.00662842       0.00094850       0.00215022
H        0.13106247       4.96701332       5.40601220      -0.00245959      -0.00259715       0.00276690
H        1.70270789       3.49685575      -0.06025766       0.00747129       0.00702031      -0.00006817
H        0.16519767       3.80444548       0.78646020       0.00561962      -0.00571601      -0.00212446
H        1.32413975       5.11024857       0.54630417      -0.00131890       0.00458348       0.00388112
O        9.42501747      11.30289032      10.59833929      -0.00306115      -0.00130001      -0.00829985
C       10.79412461      11.27836345      10.95984270      -0.00364766      -0.00325483      -0.01258585
C        8.99740177      12.60461130      10.25931588      -0.00158763      -0.00234416      -0.00868709
C       11.16772074       9.87903049      11.38289854      -0.00600879       0.00063086      -0.00537728
C        7.51615497      12.56454560       9.97518313      -0.00074178       0.00242022      -0.01025041
H       11.40498673      11.61124776      10.10461399      -0.00080261      -0.01096967      -0.01328808
H       10.95761782      11.97976495      11.78930158       0.00571059      -0.00145483      -0.01639646
H        9.21471390      13.29675698      11.08899746      -0.00060175      -0.00646082      -0.00578105
H        9.55450059      12.96754317       9.38149008      -0.00064045       0.00121890      -0.00779548
H       12.23110894       9.82568801      11.61912032      -0.00909817       0.00906701      -0.00030811
H       10.61279661       9.58906561      12.27444810      -0.01200049       0.00297548      -0.00804602
H       10.95043215       9.16703441      10.58588938       0.00278507       0.00000583      -0.00813584
H        7.15741735      13.55360454       9.68505102       0.00390079       0.00339165      -0.00397943
H        7.30687598      11.86729607       9.16324497      -0.00428197       0.00610147      -0.01306057
H        6.96944087      12.23586521      10.86082384      -0.00272229      -0.00180842      -0.01216435
O       11.37738177       9.22725920       6.07727247       0.00386977       0.00347817      -0.00186068
C       10.32340483       8.34884034       5.72854250       0.00355959       0.00501211      -0.00504756
C       11.74403932       9.09968209       7.43267352       0.00241190       0.00147584      -0.00197190
C        9.98837896       8.52318405       4.27025606       0.00774602       0.00624497      -0.00581187
C       12.80920741      10.12081893       7.74739505       0.00367895      -0.00017694      -0.00142939
H       10.62490788       7.30969842       5.94128067       0.00194548       0.00462127      -0.00492006
H        9.44500668       8.56592600       6.35593934       0.00239620       0.00565629      -0.00736320
H       10.86188993       9.24999693       8.07601730       0.00265008       0.00168064      -0.00216624
H       12.11525767       8.07877222       7.62619240       0.00142279       0.00054508      -0.00269770
H        9.15955134       7.86654245       4.00189291       0.00753129       0.00748064      -0.00780842
H        9.69002064       9.54954172       4.06496099       0.00995300       0.00666904      -0.00677183
H       10.84713529       8.28508003       3.64354573       0.00875488       0.00547755      -0.00413226
H       13.14229355      10.01768589       8.78149173       0.00464827      -0.00168923      -0.00196250
H       13.66696407       9.99581898       7.08626670       0.00245111      -0.00007685      -0.00268498
H       12.41533961      11.12787667       7.60667817       0.00428478       0.00025864      -0.00042211
O        6.80535179       9.90321622       4.91683848       0.00038964      -0.00700793       0.00234252
C        5.79503243       9.31677976       5.71445622       0.00062114      -0.00384408       0.00485873
C        6.49471046      11.23790183       4.55549026       0.00289375      -0.00666744       0.00108802
C        6.23753381       7.92800105       6.10647777      -0.00328189      -0.00554043       0.00219455
C        7.60193256      11.78789154       3.69570523       0.00229856      -0.00967708      -0.00161549
H        5.61842817       9.93424601       6.60640646       0.00531685      -0.00392878       0.00601745
H        4.84668653       9.28906710       5.15584509      -0.00125134       0.00002502       0.00786281
H        5.53258494      11.25890644       4.01833775       0.00177664      -0.00560694       0.00319809
H        6.36614645      11.84337952       5.46724567       0.00597201      -0.00550696       0.00057083
H        5.48793312       7.45193646       6.73792713      -0.00171147      -0.00305425       0.00555122
H        6.38777962       7.30085477       5.22693493      -0.00995774      -0.00549503       0.00092196
H        7.17339890       7.97530411       6.66292332      -0.00019658      -0.00950084      -0.00268218
H        7.37462872      12.81695754       3.41811148       0.00366302      -0.00999387      -0.00371470
H        8.55573875      11.76674809       4.22270170       0.00298658      -0.00991372      -0.00292830
H        7.71205368      11.20117084       2.78357526       0.00064803      -0.01130621      -0.00087777
O       10.13911737       3.10216679       4.43019880      -0.00338769       0.00123033       0.00525519
C       11.28346371       3.45502740       3.67597459      -0.00309831      -0.00030094       0.00104839
C       10.07997726       1.70331549       4.68666387      -0.00250012      -0.00045019      -0.00123525
C       11.23824066       4.93225844       3.37348986      -0.00144649       0.00148332       0.00290631
C        8.80446843       1.39684244       5.43366563      -0.00201863      -0.00262179      -0.00328019
H       12.19504905       3.19613272       4.23680318      -0.00282243       0.00035523       0.00270095
H       11.30217951       2.86559032       2.74601266      -0.00479851       0.00144616      -0.00096819
H       10.11991478       1.15170099       3.74082445      -0.00032208       0.00002575      -0.00203013
H       10.96270826       1.39875044       5.26931606      -0.00205326      -0.00067265      -0.00151706
H       12.14261409       5.23541668       2.84530495       0.00000654       0.00026835       0.00374064
H       10.36816490       5.17572099       2.76207567       0.00034250       0.00027029      -0.00010079
H       11.17524328       5.50946190       4.29693706      -0.00318376       0.00455377       0.00332199
H        8.78609785       0.34496123       5.72009238      -0.00115791      -0.00249530      -0.00456267
H        8.72891623       2.00352649       6.33579695      -0.00208572      -0.00306959      -0.00333598
H        7.93161028       1.59684772       4.81166099      -0.00149278      -0.00194400      -0.00379242
O        2.85771279       3.20791820      10.64261385      -0.00232869       0.01688124      -0.00491248
C        4.16995021       2.67347316      10.61376763       0.00601198      -0.00272667       0.00096107
C        2.79482578       4.52598686      10.12346391      -0.00065714      -0.00826304       0.00303214
C        4.12290504       1.27142199      11.16775346      -0.02373987      -0.00170946       0.01101427
C        1.35886600       4.98750214      10.16448970      -0.01225570      -0.01324494       0.01213175
H        4.54629136       2.67342629       9.58045512      -0.00267304      -0.00571185       0.00441867
H        4.84418448       3.31042918      11.20465137       0.00008833      -0.00428388       0.00102431
H        3.44091998       5.18986536      10.71723065       0.00098979       0.00396347      -0.00127009
H        3.18202118       4.52866303       9.09395658      -0.00235596       0.00010382      -0.00156200
H        5.11279949       0.81587482      11.14076448      -0.00036857      -0.00623212       0.00498955
H        3.78140494       1.27429881      12.20531947      -0.00222118      -0.00032878      -0.00014161
H        3.44328468       0.65255605      10.57899159      -0.00393298       0.00254785       0.01221800
H        1.27114719       6.00333179       9.77869205      -0.00256553       0.00586483      -0.00200408
H        0.72747370       4.33380667       9.56053561       0.00233671       0.00489908       0.01015933
H        0.98312792       4.97954739      11.18837352       0.00339672       0.00376277      -0.00689876
O        5.89634412       0.92884539       2.09096446       0.02761443      -0.01788239       0.01106548
C        6.40698633       0.88821527       0.76951077       0.00547576      -0.00249052      -0.00004718
C        4.49089402       0.78779968       2.13341334       0.01906589       0.00861755       0.00095046
C        7.91377934       0.96224096       0.81874123       0.00372064      -0.00457380      -0.00243589
C        4.02983863       0.94519530       3.56165360       0.00887672      -0.00534632       0.00879246
H        6.07864464      -0.03885680       0.27469059       0.00266427       0.00001922      -0.00330538
H        5.99025591       1.73060263       0.19393023       0.00467318       0.00001690       0.00138530
H        4.02811218       1.55340675       1.49110969      -0.03298898       0.00849569      -0.02392298
H        4.20170857      -0.19714856       1.73312935       0.00007390       0.00380850      -0.00618912
H        8.31623542       1.01616929      -0.19452330       0.00327127      -0.00169726      -0.00189205
H        8.23049970       1.85327399       1.36227737       0.00578751      -0.00652574       0.00120060
H        8.34284111       0.08884437       1.30752190       0.00157833      -0.00648186      -0.00435872
H        2.95225063       0.79232413       3.63633253       0.00569110      -0.00130431      -0.00156868
H        4.52165683       0.21115699       4.20120688       0.00380880      -0.00449686       0.00247702
H        4.26890003       1.94192044       3.93415308       0.00699016      -0.00381553       0.00036252
O        6.03767823       6.11780746       2.66895526       0.00057065       0.00389493      -0.00192278
C        7.29311146       5.49005269       2.85593248      -0.00036768       0.00268382       0.00001295
C        6.15825647       7.49300271       2.34736423       0.00264752       0.00418398       0.00035445
C        7.06093270       4.04486287       3.20947167      -0.00218223       0.00213397      -0.00298569
C        4.76760245       8.05714150       2.21205415       0.00355804       0.00569311      -0.00337051
H        7.89585835       5.58192507       1.93924469       0.00185850       0.00376968       0.00175560
H        7.85156037       5.99857070       3.65621374      -0.00197436       0.00088274       0.00227070
H        6.71659878       8.02276293       3.12975265       0.00047308       0.00256747       0.00291634
H        6.72567288       7.61378328       1.41404547       0.00568190       0.00502230       0.00245744
H        8.01587585       3.54238569       3.36274037      -0.00312103       0.00108782      -0.00149692
H        6.48730831       3.96724285       4.13490283      -0.00470831       0.00084086      -0.00482574
H        6.50624167       3.52975840       2.42445986      -0.00033630       0.00390086      -0.00549752
H        4.80708477       9.12906515       2.01498457       0.00528709       0.00586756      -0.00210597
H        4.22504615       7.57001381       1.40021204       0.00583497       0.00722677      -0.00575645
H        4.21091088       7.89475451       3.13522319       0.00032261       0.00543482      -0.00546424
O        9.00189440       4.92610241      12.35920448      -0.00623595      -0.00388199       0.00073802
C        9.96271639       3.89251112      12.33326073      -0.00139749       0.00294852       0.00078458
C        7.69928429       4.42803687      12.60351616      -0.00563419      -0.00336239       0.00212528
C       11.30463895       4.48306272      11.97425135      -0.00663775       0.00535855       0.00148734
C        6.71911206       5.57129932      12.51140669      -0.00896487      -0.00727427       0.00335353
H       10.00126215       3.39324933      13.31525063       0.00109537       0.00089651      -0.00067234
H        9.66718279       3.13481760      11.59260010      -0.00440128       0.00164849       0.00352249
H        7.46087432       3.64757396      11.86377759      -0.00362448      -0.00617808       0.00495708
H        7.66192878       3.96017518      13.59850925      -0.00016493      -0.00089447       0.00247544
H       12.06213173       3.69751693      11.92110591      -0.00732196       0.00544727       0.00124259
H       11.24673104       4.97328300      11.00186116      -0.00670595       0.00307274       0.00041926
H       11.61684024       5.21672567      12.71844590      -0.00583111       0.00549747       0.00098297
H        5.73269145       5.25981659      12.85764756      -0.00815722      -0.00884666       0.00192610
H        7.05188257       6.39600572      13.14046669      -0.00989833      -0.00657016       0.00435804
H        6.64174105       5.93391705      11.48751572      -0.00492379      -0.00681465       0.00275394
O        9.31171832       4.97421348       8.90763414       0.00534093      -0.00423479       0.00185838
C       10.06928810       4.18827653       8.00394439       0.00494297      -0.00345314       0.00090967
C        9.20159851       6.31124461       8.45186781       0.00575864      -0.00337300       0.00440663
C       10.22225573       2.80100674       8.57749542       0.00392558      -0.00441095      -0.00090420
C        8.34490450       7.10535819       9.40509147       0.00352764      -0.00608575       0.00445083
H        9.57291302       4.15746113       7.02412622       0.00529751      -0.00186250       0.00096309
H       11.05630832       4.65218515       7.84702803       0.00547367      -0.00378531       0.00194796
H       10.20534298       6.75333456       8.37551513       0.00575370      -0.00277475       0.00713960
H        8.77197545       6.31778742       7.43895637       0.00766641      -0.00135691       0.00369734
H       10.74300772       2.15423528       7.87050240       0.00344195      -0.00388802      -0.00157045
H       10.79088086       2.82783056       9.50755162       0.00380728      -0.00626579      -0.00065669
H        9.24285738       2.36750723       8.78699914       0.00360225      -0.00385462      -0.00168732
H        8.33420428       8.15759120       9.11397495       0.00311863      -0.00542572       0.00666836
H        7.31905549       6.73464114       9.39855185       0.00396903      -0.00683597       0.00198523
H        8.73279631       7.02910179      10.42078866       0.00169912      -0.00816587       0.00508660
