190
Lattice="14.011924339558236 0.0 0.0 0.0 14.011924339558236 0.0 0.0 0.0 14.011924339558236" Properties=species:S:1:pos:R:3:forces:R:3 energy=-488788.5 stress="-3.954351996071637e-05 0.00033566368801984936 0.0005759484774898738 0.00033566368801984936 -0.00031729607144370675 0.0006253635219763964 0.0005759484774898738 0.0006253635219763964 -0.0012287310091778636" pbc="T T T"
Gd      12.82740226      11.58417297      -0.03221160      -0.00891018      -0.00045446      -0.00946283
Cl      -0.73165789      12.93016779       3.29400915      -0.01569217      -0.02554965      -0.01187098
O        0.38758501      11.93485456       3.59858929      -0.01248729      -0.02828830      -0.03455186
O       -1.35963361      12.69147202       1.80476795      -0.01555878       0.00274898      -0.01577443
Cl       5.22410684      13.41306678      13.26307062      -0.00664783      -0.00088587       0.00589710
O        6.38577247      13.07237536      14.15577790      -0.00701606      -0.00724328       0.00370085
O        5.58863288      14.02397700      11.93312247      -0.00538656       0.00412369       0.00814033
Cl      13.23019482      13.21926735      11.44166229       0.01020451       0.00091362      -0.00737256
O       12.16338050      13.39276127      12.62376637       0.00855911       0.00224715      -0.00829905
O       14.05794781      11.94670075      11.90594217      -0.00003457      -0.00686646      -0.01401698
O        4.94606208       9.00931157       6.45638137       0.00444350       0.00012170      -0.00180763
O        2.97201912       8.71723382       7.27707214       0.00585952      -0.00082938       0.00105473
O        4.32180564       6.91406923       7.05672852       0.00373061      -0.00118744      -0.00746115
C        6.22124735       8.49854103       5.97998583       0.00325978      -0.00008190      -0.00502253
C        7.07476412       9.66970189       5.57765942       0.00170583       0.00036812      -0.00728337
C        4.11428492       8.09848078       6.94298375       0.00495878       0.00003707      -0.00332840
C        1.92847627       7.83611365       7.71154668       0.00712021      -0.00216839       0.00112752
H        6.67050808       7.90380859       6.77021071       0.00542825       0.00042245      -0.00586900
H        6.02993343       7.84660063       5.13073475       0.00085637      -0.00026935      -0.00427327
H        8.03399729       9.28147643       5.23449868       0.00045057       0.00114612      -0.01143776
H        6.61387441      10.21986001       4.75811758      -0.00165518       0.00093616      -0.00487755
H        7.24845880      10.35349869       6.40840834       0.00471540      -0.00041589      -0.00743213
H        1.64003633       7.16772174       6.90163851       0.00773515      -0.00239688       0.00106019
H        1.09972903       8.48456092       7.98194625       0.00701977      -0.00315641       0.00200218
H        2.25405700       7.25192410       8.57100036       0.00828975      -0.00228286       0.00070274
O       11.84148254       9.76914864       1.46846802      -0.00762761      -0.00449419      -0.00549370
O       10.29092455      11.19292622       1.05695545      -0.00860006      -0.00433812      -0.00696993
O        9.86855472       9.56317784       2.59006729      -0.00410328       0.00692510       0.01624930
C       12.41141838       8.54827515       2.04603027      -0.01031061       0.00048044       0.00560898
C       13.41630840       8.05837822       1.03964753       0.00187024      -0.00509638       0.02007487
C       10.57466146      10.11721250       1.80280554       0.00474316       0.00788486      -0.00943482
C        9.03562494      11.86491700       1.37104106      -0.00100332       0.00086962       0.00127691
H       12.87498762       8.81986158       2.99426152      -0.02177799       0.00556609       0.00970748
H       11.59564212       7.85378182       2.22582593      -0.01156586       0.00028330      -0.00028585
H       13.94828176       7.19334932       1.43159911      -0.00081902      -0.00057074       0.03411373
H       12.93812612       7.78038406       0.09981177       0.01269665      -0.01601011       0.01883313
H       14.15790714       8.83419406       0.83847266       0.00122486      -0.00551181       0.02164214
H        8.21338791      11.16034049       1.28741072      -0.00625630       0.00625049       0.00151126
H        8.93907734      12.65606478       0.63721182      -0.00193763       0.00650179       0.00590798
H        9.09253255      12.26655327       2.37984616       0.00527304      -0.00457789       0.00373453
O       11.37148115       3.40402463       2.95162065       0.00036834      -0.00537136       0.00233094
O        9.59723945       2.36618892       2.27455469      -0.00085886      -0.00549147       0.00579673
O        9.93648533       2.59702145       4.50477127       0.00157896      -0.00190578       0.00536442
C       12.17270175       3.93903090       4.03284854       0.00272238      -0.00579250       0.00079104
C       13.39142432       4.57416612       3.41929401      -0.00411594       0.00336833      -0.00318052
C       10.26201572       2.77492574       3.35714265       0.00087127      -0.00393252       0.00365758
C        8.32246817       1.76113233       2.56365919      -0.00090256      -0.00421826       0.00824282
H       11.57904689       4.66835549       4.58430854       0.00161222      -0.01071656       0.00632837
H       12.42893971       3.12611840       4.71464230       0.01059829      -0.00725603      -0.00410479
H       13.98170682       5.06425186       4.19333528      -0.00288849       0.00330148      -0.00423902
H       14.01217589       3.83288257       2.91608903      -0.00235134       0.00962740      -0.00986135
H       13.09745408       5.32887550       2.68889824      -0.01224324       0.00462216       0.00155020
H        8.44093765       0.94825600       3.27816914      -0.00052219      -0.00501329       0.00720197
H        7.95615020       1.39312068       1.61058924      -0.00360893      -0.00295594       0.00889820
H        7.65484737       2.51154400       2.98702624       0.00085932      -0.00387484       0.01036127
O        7.29973798       4.64220722       4.80955338      -0.00235330      -0.00200718      -0.00704581
O        8.72478839       5.23217113       3.29934374       0.00096858      -0.00055340      -0.00331849
O        8.46999847       6.55918666       5.11545071       0.00452077      -0.01092643       0.00112295
C        6.54967865       4.92017668       6.02216607      -0.00028315      -0.00612658      -0.00471462
C        5.80399234       3.66890689       6.38872489       0.00035757      -0.00772756      -0.00903286
C        8.18728511       5.57249503       4.48025569       0.00302021       0.00012636       0.00040954
C        9.67851725       6.18248240       2.80659091       0.00692450      -0.00320020       0.00291058
H        7.24625304       5.23273849       6.79974483       0.00094494      -0.00961178      -0.00477082
H        5.87404520       5.74944335       5.83042078      -0.00017285      -0.00523472      -0.00064000
H        5.17985692       3.87181487       7.25907146       0.00249094      -0.01183397      -0.00652181
H        5.15550462       3.34608006       5.57341997      -0.00174378      -0.00372948      -0.00886323
H        6.49401648       2.85910246       6.62271918       0.00060399      -0.00896221      -0.01450181
H        9.17107719       7.09559248       2.49533578       0.01233263       0.00171003       0.00907952
H       10.16044705       5.69000815       1.96647537       0.00293013      -0.00086184      -0.00089656
H       10.40251691       6.42628909       3.58398899       0.00894558      -0.01331549       0.00382015
O        9.47625210       3.22968704      12.56180645       0.00340030      -0.00071320       0.00428614
O        7.40457226       3.73925457      12.91613231       0.00309773      -0.00159353       0.00283465
O        8.07552417       1.60959264      13.29552805       0.00446410      -0.00111878       0.00835189
C       10.55262097       2.25883089      12.56930425       0.00340104      -0.00067973       0.00511467
C       11.82744522       3.01734510      12.31448666       0.00296170      -0.00238553      -0.00128155
C        8.30000275       2.74511226      12.95768298       0.00408530       0.00123990       0.00491798
C        6.08191629       3.34607225      13.31592136       0.00348849      -0.00208274       0.00382391
H       10.55991573       1.75713521      13.53590463       0.00581840       0.00273564       0.00674486
H       10.34843791       1.51419815      11.79781340       0.00114539      -0.00345093       0.00819382
H       12.66544326       2.32021689      12.29926524       0.00253747      -0.00271599       0.00072121
H       11.78975140       3.54085692      11.35861180       0.00134020      -0.00729907      -0.00386702
H       12.00225983       3.74672463      13.10574845       0.00474361       0.00162984      -0.00535655
H        5.70463470       2.55857975      12.66486166       0.00707766      -0.00874937       0.00975001
H        5.48063287       4.24669771      13.22980277       0.00075132      -0.00493352      -0.00440249
H        6.08893547       2.98631375      14.34471329       0.00310915       0.00657066       0.00672567
O       10.39054168       6.44609204       7.71471256       0.01052136      -0.00045960       0.00857633
O       10.51345263       8.40258021       6.81751548       0.00477381       0.00010849       0.01082688
O       11.81739043       6.75844055       5.97369831      -0.01799148      -0.00396904      -0.01557916
C       10.86786429       5.09159529       7.91752225       0.00579426      -0.00294507      -0.00019400
C        9.70602518       4.23098532       8.33550764       0.00558269      -0.00089607       0.00270477
C       10.98585514       7.15195182       6.75867951      -0.00300252      -0.00142422       0.00015014
C       11.02849046       9.27383432       5.80157383      -0.01037665       0.00030792       0.00367729
H       11.32849773       4.73721112       6.99755641      -0.00105453      -0.00027856      -0.00426731
H       11.63322885       5.14432646       8.69630752       0.01053628      -0.00942011      -0.00415683
H       10.06195300       3.23979936       8.61561113       0.00305256      -0.00403924      -0.00624464
H        9.18080891       4.66064971       9.18930540       0.01365620      -0.00387754       0.00903615
H        9.00588546       4.09761559       7.51170524      -0.00012602       0.00687797       0.00620723
H       12.08751268       9.47342744       5.97343846      -0.00481674      -0.01118784      -0.01948857
H       10.44589246      10.18747965       5.87950075       0.00069149       0.00528421       0.02226614
H       10.89253037       8.83063681       4.81801620      -0.03759391       0.00671907       0.00522748
O        4.12057338       9.15914125       3.67262744      -0.01056547       0.00138427       0.00053336
O        4.80021836       7.18531912       3.13255871      -0.01231012       0.00059627       0.00270173
O        2.71417584       7.40728453       3.99455434      -0.01695448       0.00374761      -0.00554338
C        3.10415948      10.08426955       4.16315473      -0.00997323       0.00258890      -0.00065894
C        3.78352127      11.39452703       4.45570742      -0.00923410       0.00163835       0.00079732
C        3.76798917       7.88061874       3.64251753      -0.01051462       0.00378758      -0.00220996
C        4.58005925       5.76961378       3.04900561      -0.01450181       0.00127541       0.00214463
H        2.34006420      10.18100694       3.38897203      -0.00898644       0.00375334      -0.00138152
H        2.64414906       9.65266191       5.04859539      -0.01155089       0.00247166      -0.00135481
H        3.01815312      12.13120162       4.70260180      -0.00869052       0.00169248       0.00217994
H        4.46344280      11.29369545       5.29954238      -0.00890897       0.00003092       0.00039515
H        4.33367200      11.75375728       3.58735749      -0.00980416       0.00274750       0.00104520
H        4.31534936       5.36768549       4.02513413      -0.01732737       0.00199837       0.00176811
H        5.52182978       5.34985421       2.70740935      -0.01466203      -0.00059344       0.00425036
H        3.77984807       5.55077105       2.34201355      -0.01346275       0.00263587       0.00049923
O        6.81596596      11.01696937      11.91038747      -0.00143269       0.00251483      -0.00467077
O        5.01736844       9.82086973      11.87391372       0.00098788      -0.00151154      -0.00402128
O        6.99140967       8.79613446      12.30692641       0.00127262       0.00589293       0.00134796
C        8.26101927      11.10608079      11.95853270      -0.00193395       0.00617951       0.00193444
C        8.66447539      12.52106221      11.64960944      -0.00458794       0.00642639       0.00008850
C        6.34316756       9.78585408      12.05740559       0.00282723      -0.00134182      -0.00120655
C        4.41351812       8.53372025      11.66694423       0.00468841      -0.00314677      -0.00388213
H        8.58327077      10.78621312      12.95014914      -0.00661364       0.01011203       0.00440419
H        8.65118075      10.40580758      11.21818283       0.00368810       0.00527275       0.00596368
H        9.74755397      12.61440340      11.76465411      -0.00519250       0.00981032       0.00497337
H        8.39730604      12.77448976      10.62388165       0.00006959       0.00312089      -0.00171342
H        8.18644628      13.23039098      12.32202618      -0.00938016       0.00672257      -0.00356461
H        4.75293709       8.12157737      10.71994386       0.00687201      -0.00270988      -0.00305033
H        3.34438761       8.72256593      11.63552909       0.00420782      -0.00558786      -0.00543983
H        4.66488199       7.85484512      12.47881797       0.00493845      -0.00192076      -0.00308686
O        2.02471573      10.45480027       0.58407785      -0.00972837      -0.00104597      -0.01877545
O        1.27218149      12.49751027       0.72726435      -0.01721227      -0.00207633      -0.02390271
O        3.43491138      12.10061875       1.24278921      -0.03459367      -0.00149217      -0.00426336
C        3.19373494       9.55744360       0.59346328      -0.00597441       0.00264955      -0.00707700
C        2.72366420       8.13227025       0.56654437      -0.00288261       0.00133815      -0.00824845
C        2.36000460      11.70961882       0.88803897       0.00006628       0.00657246      -0.00726026
C        1.52144085      13.86620065       1.16098505      -0.02484301      -0.00169688      -0.01802188
H        3.79236246       9.82903670      -0.27142984      -0.00077730       0.00227241      -0.00312364
H        3.77148429       9.77173117       1.48727973      -0.01449375       0.00600962      -0.00355956
H        3.60273917       7.48824829       0.52434658      -0.00046843       0.00404026      -0.00735758
H        2.17454932       7.87911913       1.47139557      -0.00262396      -0.00099896      -0.00912079
H        2.10436494       7.91727728      -0.30487645      -0.00076145      -0.00058865      -0.00893563
H        1.88494469      13.84841622       2.18624333      -0.04608115      -0.00289589      -0.01168272
H        0.56244748      14.36747321       1.09515288      -0.02445808      -0.00288270      -0.03672481
H        2.26501136      14.31903777       0.50885703      -0.01306134      -0.00058479      -0.00236081
O        5.10942284      10.29126157       9.06855524       0.01058459       0.00494020      -0.00283306
O        6.48189942       8.64423668       9.13986037       0.01010841       0.00465444      -0.00196215
O        7.33101973      10.74032974       8.94103453       0.01040900       0.00403029      -0.00266842
C        4.80281793      11.70349858       9.03490979       0.01121497       0.00496267      -0.00133237
C        3.29993454      11.81601616       9.01764585       0.01130772       0.00541576      -0.00111290
C        6.39975084       9.97890916       9.03691217       0.01091677       0.00475538      -0.00260037
C        7.81494388       8.10210208       9.12984551       0.01019444       0.00486161      -0.00113777
H        5.23716519      12.16774480       9.92221616       0.01113799       0.00358543      -0.00065994
H        5.26368524      12.13603079       8.14505561       0.01147303       0.00582404      -0.00071561
H        3.01203206      12.86730567       8.98594825       0.01164755       0.00551750      -0.00023367
H        2.88492346      11.31006990       8.14644168       0.01102892       0.00619787      -0.00113773
H        2.86970255      11.37319696       9.91668040       0.01144200       0.00495781      -0.00113046
H        8.39776393       8.52264043       8.31497265       0.01009992       0.00380492      -0.00151318
H        7.68635560       7.03270283       8.98976998       0.01063205       0.00458312       0.00065831
H        8.30212692       8.29562345      10.08311672       0.01015897       0.00658605      -0.00142959
O       10.37553410       8.14403288      11.87838207       0.00871445       0.00718600       0.00411656
O       11.08880578       9.41520947      10.33900161       0.01315832       0.00958610       0.00655979
O       11.55788399       9.99091215      12.48702799       0.00597203       0.00507053       0.00838504
C        9.99233680       7.77197203      13.22875412       0.00135443       0.01189592       0.00360012
C        9.12884967       6.54775403      13.09383393       0.00780210       0.00731942       0.00480662
C       11.04858114       9.24579009      11.64489280       0.00886260       0.00622833       0.00568300
C       11.67989256      10.61414880       9.81732873       0.01753531       0.01257032       0.01704772
H       10.89960583       7.57260943      13.80049203      -0.00190544       0.01996432       0.01090154
H        9.45154438       8.60945650      13.67207649      -0.00631490       0.01137224      -0.00608742
H        8.83022379       6.19316624      14.07904632      -0.00359308       0.01675798       0.00458373
H        8.22765622       6.78191610      12.53431163       0.01342717      -0.00170033      -0.00745419
H        9.66205693       5.74074566      12.59584036       0.01551582       0.00411700       0.01889475
H       11.13919378      11.48527003      10.18381304       0.01191941       0.01000373       0.01437207
H       11.56261024      10.52238577       8.74218810       0.03151824       0.01570403       0.01489598
H       12.72892503      10.67704010      10.09977853       0.01264441       0.01409340       0.03254520
O        8.05507149       1.24389704       8.41820592       0.00467986      -0.00512399       0.00274085
O        9.79439188       0.77814813       7.23241272       0.00455661      -0.00954261       0.00398177
O        7.85281591      -0.29800715       6.76536265       0.00293815      -0.00150120       0.00233203
C        6.67984348       1.01134161       8.80610737       0.00380081      -0.00240266       0.00161910
C        6.30483800       2.11198254       9.76006487       0.00456347      -0.00055966      -0.00025588
C        8.49806817       0.49020459       7.40841163       0.00161499      -0.00772738       0.00078851
C       10.42535932       0.04216445       6.17925770       0.00247812      -0.00926148       0.00256252
H        6.05864335       1.00025994       7.90956907       0.00480354      -0.00272503       0.00117359
H        6.61796754       0.03041594       9.27882101       0.00212233      -0.00146240       0.00296164
H        5.26964330       1.98455163      10.07554209       0.00430505       0.00076135      -0.00051926
H        6.92996650       2.06701076      10.65008116       0.00400490       0.00060415       0.00013618
H        6.41909044       3.09002184       9.29292388       0.00550668      -0.00142120      -0.00176495
H       10.56058067      -0.99678938       6.48269638      -0.00549644      -0.01135176      -0.00189288
H       11.38337225       0.52844354       6.02293640       0.00613759      -0.01498020       0.00773095
H        9.82862177       0.08837716       5.27260151       0.00551635      -0.00090282       0.00104085
