195
Lattice="13.278881283820512 0.0 0.0 0.0 13.278881283820512 0.0 0.0 0.0 13.278881283820512" Properties=species:S:1:pos:R:3:forces:R:3 energy=-466491.09375 stress="-0.0015930889640003443 0.00026076661015395075 -4.3196578189963475e-06 0.00026076661015395075 -0.0013289408525452018 -1.5151169463933911e-05 -4.3196578189963475e-06 -1.5151169463933911e-05 -0.0014508840395137668" pbc="T T T"
Gd      16.19924791      12.83874226      -1.05864056       0.00070682      -0.00171433       0.00074136
O        4.94722819      13.55382119      -0.09793154      -0.00001454       0.00265419       0.00465980
O        3.68948051      12.11089287       0.99653712       0.00219256      -0.00074103       0.00194269
C        5.96393481      12.32103380       1.68485572       0.00010467       0.00681275       0.00624955
C        5.98633381      11.07004596       2.30197772       0.00517316       0.00534099       0.00249606
C        7.04466981      13.19370913       1.81805114      -0.00428016       0.01143509       0.00974788
C        7.10907498      10.68434390       3.00910128       0.00716483       0.00788854      -0.00000242
C        8.15238942      12.80729407       2.54962397      -0.00437219       0.01548102       0.01159316
C        8.19557449      11.54330292       3.12750334       0.00228043       0.01325966       0.00570960
C        4.81837831      12.68225202       0.85295885       0.00064898       0.00222950       0.00486347
H        5.14433956      10.40229621       2.18323791       0.01069432       0.00012174      -0.00461487
H        6.99443228      14.17179016       1.36023529      -0.00957825       0.01451731       0.01677875
H        7.15397710       9.70589507       3.46523972       0.01255225       0.00649899      -0.00492996
H        8.99265388      13.48073504       2.65709554      -0.00744097       0.01835598       0.01447295
H        9.07204561      11.20393142       3.65981936       0.00221412       0.01749811       0.00872457
O       13.54267975       9.87739853      12.05879328       0.00007018      -0.00229561       0.00178045
O       14.27721596      11.98094994      11.94826159       0.00056911      -0.00222611       0.00676236
C       11.95925400      11.62501602      12.33957621       0.00011724      -0.00262415       0.00230454
C       11.75076717      12.98167111      12.57832581      -0.00006491      -0.00291513       0.00330657
C       10.87245151      10.75602424      12.28549690       0.00035394      -0.00281894       0.00073292
C       10.46130781      13.46564001      12.73339362      -0.00032510      -0.00338332       0.00388221
C        9.58430422      11.24082994      12.43312479       0.00036885      -0.00312331       0.00126355
C        9.37699555      12.60034062      12.63930226       0.00032148      -0.00371855       0.00381948
C       13.32696252      11.08002639      12.10263162       0.00000536      -0.00265634       0.00352741
H       12.60249908      13.64861496      12.63241908      -0.00014764      -0.00308913       0.00369469
H       11.06592197       9.70967771      12.09581112       0.00020078      -0.00237578      -0.00076616
H       10.30044941      14.51857846      12.92433431      -0.00062993      -0.00354059       0.00479238
H        8.73794098      10.56795685      12.38842600       0.00035341      -0.00286748       0.00017081
H        8.37139415      12.98215203      12.73188027       0.00070766      -0.00360048       0.00487772
O        9.53681623       8.95710711       4.49487006      -0.00493751      -0.00367159      -0.00549912
O       10.63747450       8.86410323       6.44436081      -0.00197399      -0.00435227      -0.00708300
C        8.84864200      10.38105582       6.25131007      -0.00001103      -0.00212598      -0.00464761
C        9.41468287      11.55837218       6.73726956       0.00296858      -0.00453658      -0.00272288
C        7.46811206      10.21320200       6.29569434      -0.00030802       0.00147611      -0.00557633
C        8.59588693      12.57394663       7.20937247       0.00544517      -0.00326395      -0.00149498
C        6.65318239      11.20980969       6.81193202       0.00211710       0.00279850      -0.00448154
C        7.21458622      12.40800766       7.25247416       0.00502990       0.00048846      -0.00246675
C        9.73867109       9.30893650       5.67464270      -0.00228602      -0.00339305      -0.00539321
H       10.49318337      11.66397250       6.74881572       0.00304595      -0.00759703      -0.00188860
H        7.03528456       9.28890552       5.93462474      -0.00262789       0.00341333      -0.00744363
H        9.03959179      13.49565169       7.56801842       0.00808875      -0.00564010       0.00136382
H        5.57901249      11.06753529       6.85516897       0.00185867       0.00543019      -0.00479834
H        6.58583157      13.20340148       7.63631275       0.00707531       0.00121351      -0.00062379
O        4.66909216       8.65459862       0.12342571       0.00055701       0.00734115       0.00460725
O        3.90108991       6.81580525      -0.94660357       0.02363396       0.01195800      -0.01733005
C        2.40397608       8.06365038       0.46523510       0.00398338      -0.01599109      -0.01625657
C        3.70301045       7.72815680      -0.19134369       0.01172605       0.00077504      -0.01021355
H        2.53939247       8.69474411       1.34123067      -0.00740650      -0.03260504      -0.00326806
H        1.76545055       8.59383161      -0.24971869       0.00940891      -0.00489794      -0.01273605
H        1.88562029       7.14546422       0.73286831       0.00617696      -0.02357018      -0.04056416
H        5.57413942       8.30173914      -0.02924045       0.00653782       0.01676238       0.01381764
O        4.19203183      10.75808496      11.77742561       0.00421736       0.00267911       0.00149068
O        5.70691890       9.63894994      10.55552226      -0.00239193       0.00829607       0.00573046
C        4.83574171      11.71179648       9.69654437       0.00964141       0.00184116       0.00366229
C        4.98763938      10.59159101      10.67394272       0.01329309      -0.00909203       0.00280964
H        4.19242965      11.36601393       8.88465159      -0.00208074       0.00861719       0.01021197
H        4.40440530      12.62315084      10.12176185       0.02579946       0.00669218       0.00789538
H        5.80874690      11.95156124       9.27802979       0.00819373      -0.01119278      -0.00637174
H        4.36976701      10.00941185      12.42005090       0.00281459       0.00244957       0.00346979
O        4.85623748       7.46596363       8.86068521      -0.00327983      -0.00317436       0.00435722
O        3.43777377       9.18410421       8.63340859       0.00375614       0.00305891       0.00093651
C        3.93516749       7.82962676       6.70918989      -0.00014316      -0.00334525       0.00367004
C        4.01913386       8.25205108       8.13656600       0.00114697      -0.00155348       0.00253761
H        4.86247318       8.11510093       6.20579983       0.00054218      -0.00697053       0.00305476
H        3.82262668       6.75026199       6.62511589      -0.00308762      -0.00314966       0.00561903
H        3.09160987       8.32241610       6.23609223       0.00142252      -0.00204140       0.00253426
H        4.97433085       7.86553967       9.74186282      -0.00405519      -0.00499794       0.00568116
O        9.68842366       9.04993073       8.79875511      -0.00309877      -0.00586283      -0.00682640
O       10.57017847       7.06125741       9.35401189       0.00817358       0.00127172       0.00156471
C        8.94874725       8.06388815      10.79937747       0.00123847      -0.00164544      -0.00356960
C        9.82127836       8.00354930       9.57642658       0.00188702      -0.00080356      -0.00231129
H        9.58196603       8.09715878      11.68590440      -0.00019883      -0.00451098      -0.00264938
H        8.28669887       8.92377831      10.78408611       0.00238294      -0.00067662      -0.00355701
H        8.35974413       7.15063448      10.86763408      -0.00086859      -0.00042754      -0.00605745
H       10.18989562       8.94779041       7.90456928      -0.00207682      -0.00577261      -0.00574330
O        9.09132368       7.73197142       2.08405010      -0.00449659       0.00120318      -0.00584477
O        7.37222281       8.41333356       0.79589048      -0.00969386       0.00338179       0.00363395
C        8.40325275       6.26702612       0.41623226      -0.01335361       0.00287795      -0.00331461
C        8.21002966       7.58377622       1.09021379      -0.00890350       0.00235546      -0.00154590
H        9.42722812       6.19758758       0.04082153      -0.01350397      -0.00054623      -0.00260408
H        8.27223064       5.49107335       1.17160850      -0.01572264       0.00278309      -0.00385922
H        7.68230504       6.14263100      -0.38382719      -0.01364350       0.00548441      -0.00330791
H        8.95530148       8.52287786       2.64098839      -0.00317487      -0.00088412      -0.00262085
O        6.88105974       1.47286483      11.79581470       0.01241851      -0.01482895       0.03465235
O        6.23342445       2.96595007      13.31637845       0.00431478       0.00319378       0.01190236
C        8.39482470       3.21901262      12.30302798      -0.00193018       0.00590926      -0.00116730
C        7.07529060       2.56453861      12.52686113       0.00508428      -0.00219117       0.01542011
H        9.02845821       2.61818704      11.65621490      -0.00234492       0.00390725       0.00052211
H        8.21276987       4.18895282      11.83947834      -0.01316620      -0.00021553      -0.00890225
H        8.86371630       3.38242781      13.27517373       0.00318342       0.01876412      -0.00624326
H        6.09904383       1.00725824      12.19029609       0.01368272      -0.01416127       0.04227403
O        6.94194484       5.77080109       8.10179426      -0.00333208       0.00314718      -0.00439622
O        6.97054876       5.23407697      10.27108661      -0.00283730       0.00035243      -0.00573957
C        8.74978511       4.43799532       8.86945995      -0.00198060       0.00430650      -0.00650902
C        7.47974056       5.16848962       9.16829964      -0.00316694       0.00209710      -0.00534552
H        9.04068810       4.55113894       7.82976605      -0.00641319      -0.00058497      -0.00801645
H        9.53932982       4.84419791       9.50297388      -0.00092687       0.01072475      -0.01182154
H        8.60965366       3.38608140       9.12123478       0.00289028       0.00533909      -0.00048043
H        6.16545731       6.28604168       8.40676389      -0.00324881       0.00265316      -0.00267008
O        2.14230230       2.77126308       9.42326529      -0.00312196       0.00073600      -0.00589418
O        3.28356032       1.48330939      10.81925274      -0.01053493      -0.00585133      -0.00629562
C        4.13334914       3.68778577      10.32605488       0.00055018      -0.00976714      -0.00269192
C        3.18873519       2.55614029      10.22594647      -0.00466859      -0.00489219      -0.00480947
H        3.99219749       4.39695313       9.51443752       0.00364348      -0.00694361      -0.00057086
H        3.96905324       4.21909588      11.26939249       0.00384011      -0.01150198      -0.00132608
H        5.15743564       3.32204046      10.32831988      -0.00116348      -0.01466237      -0.00447310
H        1.56839004       1.98248444       9.43232384      -0.00609350       0.00345421      -0.00616391
O        1.45041731       2.98811138       6.73185542      -0.00159907      -0.00875510      -0.00650382
O        2.54436563       4.84947693       6.14486524      -0.00964957      -0.00444263      -0.00379318
C        1.02487773       3.83679768       4.57509973      -0.00683698      -0.00593911      -0.00430411
C        1.74816542       3.98354712       5.87599561      -0.00517350      -0.00494957      -0.00456224
H        1.61195056       3.16723399       3.94304092      -0.00730348      -0.00566721      -0.00476398
H        0.03994785       3.39646102       4.71351616      -0.00647551      -0.00611112      -0.00340585
H        0.95310331       4.80377302       4.08639251      -0.00761057      -0.00597668      -0.00402582
H        1.97590038       3.13959326       7.53545370      -0.00134054      -0.00762856      -0.00697592
O       10.93417255      14.20842527       9.36792246       0.00192904       0.00090715       0.00793892
O       11.50550575      12.03660206       9.32478038       0.00080365       0.03158748      -0.00540113
C       13.18528885      13.67706362       8.82781796      -0.00375772      -0.00640202      -0.00422624
C       11.81190438      13.18708616       9.18508535      -0.01468086      -0.03765988       0.00541751
H       13.64259196      12.96960124       8.13705355      -0.00797506      -0.00924525      -0.00417659
H       13.14707032      14.67698223       8.39640358      -0.00235519      -0.00782500      -0.00622745
H       13.76025279      13.66552716       9.76446879      -0.00073661      -0.00652547      -0.00624716
H       10.11603404      13.79642078       9.68837035       0.00096828       0.00128275       0.01197015
O        8.85463728       5.52622000       5.43304633      -0.00099629      -0.00603780      -0.00034553
O        8.26802167       4.82035944       3.38394139       0.00395799      -0.00126767      -0.00339091
C        7.13064508       6.69615557       4.39623937       0.00021333      -0.00499374      -0.00105211
C        8.12651194       5.57850800       4.31792207       0.00105888      -0.00384617      -0.00171906
H        7.67902999       7.60718472       4.63570669      -0.00037509      -0.00495906      -0.00000464
H        6.59883581       6.81096909       3.45806983       0.00077473      -0.00436525      -0.00109027
H        6.43411555       6.50058941       5.21290353      -0.00000017      -0.00591804      -0.00157355
H        9.55040258       4.83815080       5.37013694       0.00024252      -0.00449939      -0.00079648
O        5.38310246       3.95666664       2.40816225      -0.00692904       0.00707614       0.00870839
O        5.46383783       5.97860965       1.43931770      -0.01219124       0.00458187       0.00402904
C        3.91431511       5.59907808       3.22865424      -0.01035422       0.00613165       0.00517356
C        4.99589391       5.22958642       2.26409515      -0.01002139       0.00590450       0.00586188
H        2.99678156       5.09255649       2.92806543      -0.01192524       0.01196132       0.00056125
H        4.13935746       5.25934558       4.23695400      -0.01481343       0.00100811       0.00422126
H        3.74548282       6.67170358       3.21614115      -0.00586971       0.00671868       0.00879886
H        5.99968602       3.75323241       1.67436845      -0.00580555       0.00704518       0.00976101
O       12.66669403       5.44947245       7.24345818      -0.00438816      -0.00156718       0.00585830
O       11.11349367       4.31133138       6.12111253      -0.00083953      -0.00371170       0.00275536
C       11.98921136       6.34813426       5.17331816       0.00245419      -0.00492364       0.00287944
C       11.86281054       5.27265109       6.18117272      -0.00072223      -0.00308615       0.00380684
H       11.42920664       7.21918651       5.54828661       0.00147741      -0.00431597      -0.00004564
H       13.02223877       6.67558486       5.07384845       0.00286609      -0.00559130       0.00567668
H       11.56466713       6.03654619       4.22296090       0.00548819      -0.00636741       0.00218958
H       12.41715772       4.77498503       7.89181078      -0.00799567       0.00167185       0.00749817
O       11.68325546       4.24505095      11.44851298       0.00337178       0.00467744      -0.02200150
O       12.33769560       5.86550774      12.84985952      -0.00736313      -0.00826412      -0.00301397
C       13.24031554       5.81186797      10.61245575       0.00953013       0.01175165       0.00420099
C       12.40554363       5.35460445      11.75759580       0.00065830       0.00210127      -0.00595188
H       14.00452061       6.50265605      10.95494580       0.00391665       0.01198082       0.01546277
H       13.69136272       4.96444620      10.09625949       0.01700265       0.01674703       0.00305071
H       12.57385818       6.32605848       9.91393535       0.01450995       0.01375951       0.00142787
H       11.12153494       4.06393978      12.21628924      -0.00359884      -0.00207083      -0.02879530
O        7.73690419       2.62033889       6.14655043      -0.00184792      -0.01116863      -0.00798279
O        6.42683259       2.34927975       7.94964061       0.00442184      -0.00022280      -0.00173926
C        5.48561678       3.27756413       5.94190566       0.00415176       0.00348103       0.00072789
C        6.56286513       2.69688719       6.79668579       0.00315506      -0.00221172      -0.00296658
H        5.40200100       4.33623777       6.19592143       0.00860136       0.00662664       0.00250717
H        5.71049078       3.18436888       4.88251488      -0.00091920       0.00282824      -0.00344589
H        4.53702124       2.80960441       6.19352953      -0.00057293       0.00810324       0.00356318
H        8.40634806       2.31377219       6.77559274      -0.00361243      -0.02181144      -0.01251423
O        0.65955196       8.91964427       6.22255544       0.00562990      -0.00162292       0.00137019
O        0.02147220      11.00964539       6.71798055      -0.00833252      -0.00134909      -0.01953024
C        0.12220579       9.34768692       8.46717190      -0.00361089       0.01436126      -0.00469816
C        0.25480504       9.87186818       7.07454824      -0.00271645       0.00290966      -0.00840354
H       -0.81970375       8.79761005       8.52589426       0.00435877       0.00148563      -0.00474542
H        0.92681646       8.65168126       8.69120266       0.00452477       0.02819952       0.00635703
H        0.09746973      10.15743803       9.18755313      -0.01964352       0.01998737      -0.01276799
H        0.58832768       9.24770749       5.30030654       0.00809088      -0.00955506      -0.00164583
O        5.47163483       0.10081926       4.74921623      -0.00314915       0.00562873       0.00216934
O        3.91841813      -0.06359869       6.36821492      -0.00309527      -0.00510344       0.00155401
C        3.28486301       0.70661420       4.17159940      -0.00457621       0.00168771       0.00488025
C        4.22452279       0.21176174       5.23031738      -0.00325206       0.00033595       0.00202024
H        3.71523286       1.57362597       3.66667428      -0.00593475       0.00239709       0.00533391
H        3.15823185      -0.07440153       3.41864853      -0.00570967       0.00316809       0.00385857
H        2.32372988       0.94486342       4.61593962      -0.00405174      -0.00008190       0.00625202
H        6.04131098      -0.29789349       5.43333278      -0.00179775       0.00445765       0.00028691
O       12.02614817      10.40042411       2.85413472       0.01612473      -0.00216603       0.02214736
O       13.68651950       9.06988401       3.54535841       0.01213288      -0.01561007       0.00354153
C       12.36642024       8.38833779       1.66434064       0.00136365       0.00630033       0.00369740
C       12.76848757       9.28767084       2.77704339       0.00975192      -0.00466469       0.00915527
H       11.29050770       8.22385187       1.68053226       0.00048459       0.01266600       0.00537567
H       12.62295437       8.84427189       0.70428215       0.00174503       0.01180242       0.00656030
H       12.88442885       7.43973251       1.75104480      -0.00400446       0.00279945      -0.00498138
H       12.33345364      10.89580914       3.62967550       0.02141368      -0.01025987       0.02543747
O        3.35623347       3.11241034       0.50889160       0.00156505       0.00237334      -0.00235444
O        2.05167475       1.31203003       0.20836678       0.00384036       0.00005606       0.00053154
C        1.05712718       3.35788715       0.92866762       0.00152910       0.00076911      -0.00562951
C        2.20002259       2.49261749       0.52675087       0.00246656       0.00106597      -0.00196949
H        1.37553368       4.16151488       1.58611968      -0.00052588       0.00378352      -0.00850762
H        0.64221995       3.82538780       0.03372346       0.00202888      -0.00295086      -0.00761566
H        0.27544323       2.75664504       1.38656196       0.00243804       0.00123250      -0.00376076
H        4.11668211       2.53741180       0.26955114       0.00253057       0.00254565       0.00126338
