196
Lattice="13.675213147032297 0.0 0.0 0.0 13.675213147032297 0.0 0.0 0.0 13.675213147032297" Properties=species:S:1:pos:R:3:forces:R:3 energy=-1026300.8125 stress="-0.00034768946352414787 -5.938412323303055e-05 0.0001765798806445673 -5.938412323303055e-05 0.0002139680291293189 1.2078632153134095e-05 0.0001765798806445673 1.2078632153134095e-05 0.0005342827644199133" pbc="T T T"
Ho      14.17800348      11.90864966       2.02052014       0.00331190       0.00709099      -0.00137486
I       12.72610665      12.96352273      -0.23395755      -0.00265637       0.00661812       0.00031427
I       14.59309239      14.00409309       3.81238797       0.03156639      -0.00161846       0.00453471
I       10.67255775      14.66639805       4.86972059       0.00860948      -0.04612761      -0.01055655
O        8.75351580      14.42170331       1.79831077      -0.03903544       0.01457790       0.01519588
C        8.04608286      13.17536859       1.76556250      -0.01786805       0.00281340       0.00126982
C        8.76910864      12.13456082       0.92555609       0.00275791       0.01996210      -0.00187302
C        7.79224121      12.68628864       3.18034761      -0.01705347      -0.01109815      -0.00335693
H        7.09399308      13.40901214       1.27525535      -0.01868057      -0.00773177      -0.00189272
H        8.16202635      11.22794848       0.85754407       0.01755271       0.01088557      -0.00950003
H        8.94558051      12.49902022      -0.08650076       0.00180440       0.02787627       0.00087000
H        9.73625560      11.88468591       1.36545859       0.00421081       0.03206304       0.00127670
H        7.19971416      11.77105728       3.17959200      -0.00717989      -0.01744054      -0.01247205
H        7.27438647      13.44097050       3.77377035      -0.02746052      -0.02130179      -0.00091518
H        8.73932702      12.50059874       3.68615799      -0.01629020      -0.00446532      -0.00219594
H        9.39610375      14.41294657       2.53529672      -0.02554965       0.00783566       0.00279444
O        5.96085899       2.39931869       3.05756459      -0.00366288       0.01922512       0.00266604
C        4.65922625       1.88075790       3.41130639       0.01962799      -0.00360818       0.00099871
C        4.69256801       1.13515613       4.73156604       0.01783533       0.00349844       0.00547743
C        3.74152828       3.08043992       3.45978599       0.01237729      -0.00390238      -0.00127205
H        4.33005820       1.20608811       2.60943654       0.01869307      -0.00573686       0.00498179
H        3.69319308       0.77319354       4.97715983       0.01916727       0.00082538       0.00630104
H        5.35926903       0.27231724       4.68751238       0.02093702       0.00532314       0.00960076
H        5.02721024       1.80244995       5.52744212       0.01489232       0.00764734       0.00302030
H        2.71285878       2.76480564       3.62993109       0.01144531      -0.01039401       0.00265087
H        3.78871692       3.63649148       2.52247813       0.00511091      -0.00945757      -0.00243300
H        4.04286861       3.74442920       4.27068743       0.00801184      -0.00201023      -0.00416489
H        6.60942077       1.68861498       2.98616829       0.02891439      -0.00838694      -0.01468874
O        6.67624373       4.62102587       4.46348064       0.00273058       0.00046986       0.00164838
C        7.70521903       5.40004563       3.83571234       0.00451070       0.00221881       0.00517380
C        8.53801850       4.53731221       2.91018156       0.00847954       0.00236806       0.00858936
C        7.07039945       6.57912347       3.11457345       0.00533387       0.00106281       0.00259230
H        8.33208839       5.78181524       4.65190597       0.00122017       0.00330006       0.00708538
H        9.34065168       5.11689980       2.45152270       0.01038358       0.00259465       0.01227240
H        8.98651670       3.69818215       3.44481717       0.00598855       0.00217031       0.01030467
H        7.92765481       4.13787586       2.09802942       0.01202233       0.00241534       0.00592989
H        7.83694522       7.23382373       2.69196431       0.00580277       0.00185289       0.00473453
H        6.44697945       7.16133022       3.79406915       0.00258672       0.00055954       0.00036006
H        6.44130017       6.21813461       2.29762822       0.00812464      -0.00004764       0.00089630
H        6.47925597       3.83150218       3.91409483       0.00670552       0.00058221       0.00182877
O       13.56171164       1.09949897       7.43532464      -0.00401992      -0.00624907      -0.00773704
C       12.93511078       1.41979513       8.66986095       0.00112426      -0.00558791      -0.00562221
C       12.44117509       2.85953907       8.66779883      -0.00293145      -0.00682050      -0.00528144
C       11.81088795       0.44717161       8.99756453       0.00576520      -0.00828379       0.00254481
H       13.72839681       1.31302766       9.41736260       0.00512272      -0.00151035      -0.00933486
H       12.03546910       3.13589330       9.64444200       0.00365598      -0.00615907      -0.00268386
H       13.24986219       3.54536157       8.41176991      -0.00662398      -0.00525336      -0.01245253
H       11.65135660       2.97236975       7.92219180      -0.00869313      -0.01004645       0.00048356
H       11.42243265       0.62370001      10.00311213       0.01130343      -0.00791739       0.00477831
H       12.17421171      -0.57841671       8.94140978       0.00845882      -0.00731318       0.00209164
H       10.99701529       0.56306329       8.27718796       0.00108664      -0.01201383       0.00750737
H       12.88326901       1.10492985       6.74187180      -0.00767908      -0.01441422      -0.00446594
O        9.12732522       2.95197646      13.78136202      -0.00582814       0.00617343      -0.00034350
C        9.83684457       2.87510450      12.55440079      -0.00318413      -0.00025001       0.00183272
C        9.00145797       2.20754188      11.46735680      -0.00078887      -0.00490284       0.00280988
C       10.19532277       4.30312899      12.18826798      -0.00201129      -0.00183415      -0.00386173
H       10.76171457       2.29673295      12.69031912      -0.00353783       0.00050893       0.00642878
H        9.54347746       2.17674667      10.51950505       0.00214209      -0.01033306       0.00459602
H        8.74560569       1.18314988      11.74505720      -0.00221879      -0.00327803       0.00729536
H        8.07172958       2.76129337      11.32092113       0.00023165      -0.00500162      -0.00284529
H       10.71106073       4.35576099      11.22863979       0.00186174      -0.00702880      -0.00219747
H       10.83267306       4.74196772      12.95609852      -0.00472748       0.00197811      -0.00391555
H        9.28179777       4.90054121      12.12378944      -0.00142261      -0.00196970      -0.01083139
H        9.08320899       2.08060852      14.21103444      -0.01378011       0.00584085       0.00046070
O       12.43196746       5.52778062       5.50353431       0.00987831       0.01783812       0.00787619
C       11.50396166       6.42183569       6.12029902      -0.00038019      -0.00375625      -0.00139087
C       10.63841170       5.71805121       7.14551981      -0.00188240      -0.00202879      -0.00213623
C       12.30836862       7.53887230       6.74987186      -0.00219515       0.00040466       0.00161058
H       10.84700047       6.84695410       5.34252316       0.00093108      -0.00152645      -0.00168079
H        9.91527178       6.41880841       7.56307127      -0.00319606      -0.00441663      -0.00229030
H       10.09945402       4.87857459       6.70026096       0.00041426      -0.00297859      -0.00434007
H       11.25386808       5.34371923       7.96350621      -0.00233653      -0.00309560      -0.00166154
H       11.65187978       8.25872870       7.23567214      -0.00741005       0.00094624      -0.00005846
H       12.92062490       8.04445440       6.00786704      -0.00324034       0.00146831       0.00424102
H       12.97143476       7.12546321       7.51220083      -0.00631898       0.00286300       0.00429338
H       11.97238133       4.71093358       5.27808091      -0.00461063      -0.01235172      -0.00361930
O        3.40131458       8.83211725       3.85181395      -0.00221130      -0.00622636      -0.00502688
C        2.50525340       7.72352807       3.60902631      -0.00194398      -0.00752085       0.00036530
C        3.19558716       6.40498698       3.86574713      -0.00040475      -0.00713772      -0.00061652
C        1.25220336       7.88446728       4.44271722       0.00149852      -0.00742943       0.00559318
H        2.25735404       7.80328938       2.54457610      -0.00697628      -0.00802464       0.00135374
H        2.51962714       5.58537521       3.62190253      -0.00098686      -0.00771935       0.00253079
H        4.09805013       6.30666904       3.26493734      -0.00203440      -0.00830566      -0.00297864
H        3.47068777       6.30871888       4.91810289       0.00258339      -0.00601786      -0.00122873
H        0.53725733       7.08320311       4.24960850      -0.00083761      -0.00554699       0.00615128
H        0.77508322       8.84632483       4.23835926       0.00312489      -0.00598101       0.00935824
H        1.50668066       7.85415739       5.50357743       0.00521731      -0.01031023       0.00457710
H        3.65708476       8.82125147       4.80933715      -0.00031196      -0.00340810      -0.00561613
O        5.87614799      11.42910775      12.32486985      -0.01001070       0.00145060       0.00489199
C        6.10311889      12.24240682      11.16712498      -0.00681980       0.00033746       0.00458407
C        7.29905549      11.74050759      10.36905119      -0.00325072       0.00087455       0.00974372
C        4.85074986      12.32521964      10.31002368      -0.00389558      -0.00271372      -0.00015479
H        6.32250085      13.23760619      11.56163450      -0.00988314       0.00121534       0.00390753
H        7.50916697      12.40317784       9.52679377      -0.00084165      -0.00007366       0.00975616
H        8.19256324      11.68487224      10.99167042      -0.00558238       0.00269997       0.01342112
H        7.09732790      10.74258998       9.96644749      -0.00042181       0.00006302       0.01019728
H        5.01236912      12.97998584       9.45121745      -0.00142647      -0.00367305      -0.00059827
H        4.01917163      12.72910340      10.88447624      -0.00656578      -0.00299615      -0.00397311
H        4.58016215      11.33400983       9.93402006      -0.00110487      -0.00354119       0.00010014
H        5.68482224      10.52450992      12.02305931      -0.00735269       0.00110336       0.00557125
O        2.30353740      10.61007024       2.44062443      -0.00761234      -0.00912276      -0.00882187
C        3.34839273      10.85716200       1.43281359      -0.00689314      -0.00385314      -0.00704303
C        2.73752491      11.87138557       0.49037844      -0.00667351      -0.00303000      -0.00624302
C        4.62427044      11.34047136       2.07524491      -0.01033163      -0.00049759      -0.00320157
H        3.52466575       9.91477164       0.90614876      -0.00330612      -0.00212970      -0.00890553
H        3.41708434      12.11064480      -0.32840609      -0.00754650      -0.00384409      -0.00690281
H        1.80519513      11.49097325       0.02881254      -0.00580728       0.00087418      -0.00773891
H        2.53541338      12.82041193       1.03151303      -0.00425931      -0.00207089      -0.00687563
H        5.37258654      11.49463765       1.29544988      -0.01149385       0.01145530      -0.00165802
H        5.00083298      10.60226119       2.78320132      -0.00518979      -0.00340801      -0.00909214
H        4.45910557      12.28417378       2.60020080      -0.01781002      -0.00629884       0.00468765
H        2.71740305       9.98627587       3.13828398      -0.00684828      -0.00705884      -0.00817797
O        4.50687289       1.66173167      11.58974209      -0.00585964      -0.00392136       0.00436509
C        4.34022601       2.43510056      12.78569660      -0.00321174      -0.00234723       0.00301665
C        5.67316744       2.96448137      13.27656967      -0.00216168      -0.00451407       0.00205421
C        3.32228871       3.54206030      12.56675162      -0.00189441      -0.00109988       0.00378573
H        3.94264029       1.71939143      13.51068507      -0.00397786      -0.00167072       0.00405174
H        5.56718447       3.49008582      14.22659152      -0.00007006      -0.00424280       0.00210443
H        6.39287201       2.16009757      13.42155110      -0.00338681      -0.00567532       0.00139818
H        6.09531452       3.66266398      12.54907059      -0.00156742      -0.00517288       0.00146355
H        3.13181400       4.08690485      13.49347537      -0.00038903      -0.00046922       0.00362249
H        2.38057741       3.13388041      12.20009487      -0.00274666       0.00016500       0.00449111
H        3.69624526       4.25823446      11.82938422      -0.00131334      -0.00185387       0.00305875
H        4.83577291       2.25752229      10.90877037      -0.00174523      -0.00410226       0.00326788
O        4.07412178       8.61025490       6.46023654      -0.00035483       0.00020760      -0.00257544
C        5.07179967       9.35882947       7.16446318       0.00045040       0.00112519      -0.00454135
C        6.45784847       8.79020522       6.90538528       0.00005364       0.00034270      -0.00517194
C        4.94726666      10.80446479       6.73387219       0.00027265       0.00056767      -0.00680052
H        4.85263457       9.28695261       8.24021242       0.00158927       0.00299546      -0.00430125
H        7.21238796       9.33285984       7.47922834       0.00096259       0.00134529      -0.00735850
H        6.49962211       7.73662564       7.18708706       0.00008492       0.00091945      -0.00287642
H        6.70532433       8.87695438       5.84557019      -0.00136398      -0.00202540      -0.00562203
H        5.66592367      11.42585531       7.26876208       0.00049782       0.00122215      -0.00790713
H        3.94509006      11.18363208       6.93289742       0.00038731       0.00082753      -0.00696038
H        5.14761336      10.89598595       5.66392663      -0.00008976      -0.00095420      -0.00692625
H        4.10962229       7.67812731       6.78120162      -0.00013252       0.00090718      -0.00053821
O       10.83983560       8.25088098       9.61009401      -0.01364046      -0.00825028       0.00420983
C       11.65981130       8.70454858      10.69784388      -0.00527572      -0.00434425      -0.00367141
C       11.12320551       9.99999001      11.27273571       0.00059763      -0.00121981      -0.00545198
C       11.79222132       7.61726380      11.75112719       0.00147264       0.00004959      -0.00010395
H       12.63684372       8.88339181      10.24128638      -0.00863165      -0.00726188      -0.01213770
H       11.75298773      10.36728065      12.08306912       0.00880532       0.00377091      -0.01424266
H       11.06967249      10.77565725      10.50892800      -0.00766745      -0.00576399      -0.00949959
H       10.12012042       9.84289884      11.67866750       0.00486220       0.00103106       0.00595441
H       12.45348657       7.93644091      12.55954978       0.00710554       0.00305355      -0.00583711
H       12.18909080       6.70105048      11.31442860      -0.00209402      -0.00205132       0.00117974
H       10.81498512       7.39122038      12.18559032       0.00427550       0.00264121       0.00750721
H        9.93760352       8.20696288       9.94204976      -0.01115355      -0.00789264       0.01190493
O       12.32134695      11.00032895       3.14393324       0.01349169       0.02572098       0.01439875
C       11.66949508       9.75440295       3.61889557       0.01776194       0.02006882       0.00335306
C       10.23088874      10.03227028       3.98299969       0.01680338       0.01253490       0.00440381
C       11.81242781       8.70520378       2.54335324       0.02341489       0.03051808      -0.00618151
H       12.21822824       9.45084944       4.51198252       0.01759544       0.01373641       0.00159031
H        9.79784552       9.13837444       4.43641674       0.01937779       0.00943413       0.00074281
H       10.15232609      10.84628959       4.70626938       0.01573350       0.01003234       0.00715803
H        9.64650565      10.28803779       3.09937201       0.01627519       0.01554257       0.00551990
H       11.48671336       7.74244398       2.94271183       0.02266114       0.02569331      -0.01998833
H       12.85061347       8.58729052       2.22486328       0.02406630       0.03011073       0.00017341
H       11.19550484       8.94581693       1.67611075       0.02872735       0.04000561      -0.00698660
H       11.95228330      11.73657158       3.66971548       0.01455659       0.02372152       0.01912057
O        5.47902680       8.64010269      11.85765693      -0.00499312       0.00225678       0.00427735
C        6.40559436       8.03314027      12.78247889      -0.00479352      -0.00099981       0.00060713
C        6.26972602       6.52498181      12.75877387      -0.00666843      -0.00082606      -0.00094004
C        7.82261957       8.48929134      12.49423217      -0.00445294      -0.00233278       0.00039037
H        6.09434376       8.41885173      13.75681898      -0.00343548      -0.00189160       0.00195676
H        6.94218900       6.05960945      13.48149355      -0.00682306      -0.00260165      -0.00229377
H        5.24877111       6.21831962      12.98592560      -0.00700507       0.00029089      -0.00059494
H        6.53746471       6.13881435      11.76974076      -0.00806535       0.00025706      -0.00180236
H        8.51366259       8.09717082      13.24308657      -0.00409755      -0.00468992      -0.00091960
H        7.88202036       9.57732646      12.49297762      -0.00278792      -0.00252894       0.00195256
H        8.14496890       8.11541901      11.51686069      -0.00589240      -0.00126981      -0.00053795
H        5.62645908       8.24527043      10.99091052      -0.00582337       0.00245392       0.00071549
O        5.74535166       4.08902493       6.90089747      -0.00183021       0.00077221      -0.00156230
C        6.70886278       3.71203841       7.89262429      -0.00232673      -0.00181890      -0.00191367
C        7.78569729       2.83254551       7.28671230      -0.00307554      -0.00248152      -0.00268236
C        7.27221789       4.95068210       8.57394942      -0.00120333      -0.00321835      -0.00034773
H        6.14664414       3.12860614       8.63178992      -0.00302806      -0.00218415      -0.00291511
H        8.51809727       2.53936682       8.04073695      -0.00446805      -0.00484222      -0.00222558
H        7.35719925       1.92881391       6.85409205      -0.00412203      -0.00100540      -0.00466401
H        8.31338243       3.35979279       6.49023228      -0.00142039      -0.00168358      -0.00123599
H        7.97484430       4.67935180       9.36520046      -0.00138615      -0.00469736      -0.00064518
H        6.46483052       5.54899981       9.00141493      -0.00086540      -0.00315323       0.00041986
H        7.80393099       5.56510647       7.84631486      -0.00092197      -0.00261425       0.00047687
H        6.20848731       4.31476275       6.05814356      -0.00133450       0.00192724      -0.00088641
O        4.11230500       6.12778831       7.49666213       0.00190920       0.00277986       0.00490636
C        2.98262821       5.72476336       8.28822709      -0.00129190       0.00316450       0.00053120
C        2.98345898       4.22572879       8.51774940      -0.00289464       0.00320387       0.00039715
C        3.00894506       6.51004347       9.58711734      -0.00527986       0.00323626       0.00058156
H        2.07915787       5.99605262       7.72746406       0.00067639       0.00362614      -0.00253078
H        2.12148910       3.92974849       9.11645187      -0.00508596       0.00363775      -0.00253859
H        2.95145744       3.67736919       7.57683702      -0.00004425       0.00334682       0.00020874
H        3.88721628       3.92801502       9.05586927      -0.00484560       0.00266219       0.00346395
H        2.12840591       6.29377324      10.19445931      -0.00720176       0.00342741      -0.00224467
H        3.03296328       7.58204652       9.38501354      -0.00433462       0.00321865       0.00058774
H        3.89805124       6.24762822      10.16634275      -0.00712268       0.00300409       0.00331451
H        4.67997139       5.34943202       7.27121812      -0.00084500       0.00177222       0.00176767
