200
Lattice="14.094809866228333 0.0 0.0 0.0 14.094809866228333 0.0 0.0 0.0 14.094809866228333" Properties=species:S:1:pos:R:3:forces:R:3 energy=-679001.3125 stress="-0.0025789360515773296 -0.0005027558363508433 -0.0005462632980197668 -0.0005027558363508433 -0.002552830846980214 0.0006441387813538313 -0.0005462632980197668 0.0006441387813538313 -0.0022612446919083595" pbc="T T T"
Ho      14.20358645      14.01438508      -0.75212980      -0.00961899       0.00264287      -0.00078255
S        7.51289920      11.80209554       2.97856458       0.00342192       0.00487232       0.00215377
N        7.50349548      14.59409224       3.32370164       0.00630070       0.00682473      -0.02130952
C        7.48479530      13.42270836       3.18379153       0.00588401       0.00581884      -0.01305995
S        7.28152822      12.36429655      10.21054815      -0.01617590      -0.00195101       0.00063719
N        5.32488458      10.32422127       9.94655434      -0.01012962       0.00338319      -0.01858517
C        6.12027789      11.16926373       9.97931823      -0.01978016      -0.00588524      -0.00977272
S        6.47351069      13.84997848       8.90789427      -0.01024076       0.00531323       0.00803660
N        8.62619382      13.93871891       7.07718098       0.00348843       0.00128731      -0.00865170
C        7.73982215      13.90596303       7.82559693      -0.03889439       0.00303885       0.02937865
S        3.92485534       5.64403492       9.95593176       0.00004411       0.00403172       0.00228319
O        2.50227323       5.18895058       9.74391223       0.00013363       0.00313085       0.00512163
C        4.78102088       4.19551173      10.62227538       0.00258431       0.00430787      -0.00129032
C        3.90995675       6.64988472      11.44916257       0.00278508       0.00163764       0.00356358
H        4.83402963       3.46083399       9.81708640       0.00332395       0.00561348      -0.00223960
H        4.21486404       3.80574332      11.46958878       0.00368144       0.00221974      -0.00171752
H        5.78725818       4.46603103      10.93912375       0.00195035       0.00585365      -0.00133146
H        4.90558534       7.01638986      11.68938462       0.00290754       0.00215241       0.00145006
H        3.49810243       6.07926296      12.28165995       0.00575560      -0.00011086       0.00357483
H        3.28098066       7.50937799      11.22370737       0.00155170       0.00125030       0.00673961
S       12.49122574      11.61200178       9.03010159       0.00354370       0.00647986      -0.00082088
O       12.19756461      11.21451413      10.45081043       0.00378847      -0.00245556      -0.00372088
C       14.01024113      12.58086951       9.04246730       0.00481021       0.00430217       0.00536342
C       11.40435621      12.98498688       8.62937390       0.00477183       0.01045263       0.00928576
H       14.80519129      11.93919647       9.41201694       0.00334911       0.00128136       0.00273195
H       13.86077365      13.46905312       9.66120674       0.00634176       0.00078115       0.01047076
H       14.22682441      12.85986303       8.01058630       0.00612171       0.00988689       0.00734295
H       11.60625936      13.27992908       7.60013576       0.00475931       0.01842138       0.01180361
H       11.55984592      13.81097240       9.32271845       0.00562993       0.00501736       0.01501641
H       10.38136220      12.63143673       8.71131994       0.00434962       0.01176653       0.00743096
S        5.81735677       7.67791148       4.33319491       0.02298868      -0.00386822      -0.01853561
O        4.72620387       6.85998551       4.95737835       0.00976658       0.00135374      -0.03497756
C        7.36688763       6.82631188       4.61747268       0.01321268      -0.01263049       0.00436628
C        6.09809417       9.11055846       5.37416942       0.01305500      -0.00766283      -0.01145285
H        7.30694897       5.89787068       4.05149133       0.01671935      -0.01077509       0.00160105
H        7.43624624       6.63441266       5.68794830      -0.00511253      -0.01504322       0.00479892
H        8.19499210       7.44544413       4.27096771       0.02123175      -0.01581451       0.01859664
H        6.86110874       9.73034107       4.90239980       0.01902676      -0.00725191      -0.00041699
H        6.38255310       8.78856612       6.37642053       0.00121150      -0.01122274      -0.00952472
H        5.17065873       9.68104034       5.37584024       0.01342575      -0.00726306      -0.01999890
S        5.16185968       3.41052035       2.91194553      -0.00969625       0.00332999      -0.00531167
O        6.44740104       3.93035717       3.47277979      -0.01060033       0.00212318      -0.00288719
C        5.59541458       2.46552366       1.44622395      -0.00704305       0.00588803      -0.00574559
C        4.38688926       4.81361749       2.10080061      -0.00878376       0.00361997      -0.00521398
H        6.19385224       1.62646729       1.80716044      -0.00483264       0.00725500      -0.00678836
H        6.18428483       3.09818340       0.78192294      -0.00849063       0.00831251      -0.00434095
H        4.68292649       2.11375118       0.96358754      -0.00571592       0.00432748      -0.00668565
H        3.49880432       4.48457266       1.56224479      -0.00715766       0.00367546      -0.00762734
H        5.11477411       5.27900880       1.43341379      -0.00745779       0.00419165      -0.00308146
H        4.08201304       5.49937358       2.89140564      -0.00955065       0.00323312      -0.00549561
S        3.52553474      12.54775654       4.97711836       0.00682096      -0.00962257       0.00400626
O        3.70641065      11.13021588       4.54555930       0.00031423      -0.00993681       0.00316343
C        3.65872929      12.57336359       6.76881568       0.00706401      -0.01157377       0.00376511
C        1.74774434      12.82924655       4.89931215       0.00840545      -0.00059409       0.00444664
H        4.68291600      12.29364685       7.00509513       0.00460564      -0.02029592       0.00308136
H        2.95782275      11.85463353       7.19834901       0.00153062      -0.00602569       0.00343360
H        3.48275984      13.59036666       7.12194778       0.01578351      -0.01042157       0.00424537
H        1.49913607      13.83145758       5.24870779       0.01414242       0.00018757       0.00575811
H        1.23457652      12.07489871       5.49343047       0.00460120       0.00118119       0.00318477
H        1.47369282      12.72056787       3.85182152       0.00717296       0.00322790       0.00457644
S        9.57047563      10.09858743       8.00669799       0.00797725       0.00554037       0.00776327
O        8.24357965       9.62149900       8.51180935       0.00934577       0.00245643       0.00732708
C        9.29644791      10.71314616       6.34652359       0.00827165       0.00385099       0.00713944
C       10.57652760       8.67827746       7.50045882       0.01056364       0.00734609       0.01058763
H        8.58929077      11.53565407       6.40795250       0.00756335       0.00294705       0.00627001
H        8.90282594       9.90523344       5.73362105       0.00983118       0.00277612       0.00794370
H       10.24575157      11.07069762       5.94735011       0.00808693       0.00427325       0.00745567
H       11.49485225       9.07513429       7.06740662       0.01076432       0.00737485       0.01234074
H       10.04284600       8.08489486       6.76050823       0.01333883       0.00682210       0.00931932
H       10.80673091       8.09700170       8.39021995       0.00878251       0.00794665       0.01137982
S       12.01425874       6.84768153      12.64224230       0.00716281      -0.00134254       0.00096805
O       12.80661168       5.58970538      12.77958459       0.00638539      -0.00139201       0.00144710
C       11.07182603       6.64426353      11.11540828       0.00997072       0.00036789      -0.00065947
C       13.14381847       8.09850452      11.99530101       0.00880262      -0.00138438       0.00445226
H       10.32095796       5.88415986      11.32361420       0.00991388       0.00003670      -0.00293985
H       11.74714163       6.30721718      10.32806491       0.01107815       0.00167569       0.00002247
H       10.59291136       7.58629137      10.84592555       0.01024692       0.00050277      -0.00012666
H       12.59689640       8.98223751      11.66102903       0.00975926      -0.00167385       0.00290493
H       13.70789349       7.66340903      11.16920739       0.01086635      -0.00132065       0.00606610
H       13.81765183       8.36274255      12.80822498       0.00638925      -0.00144230       0.00629564
S        5.70024150       2.41672519       6.26930210      -0.01662320       0.00458583       0.00810122
O        5.50153175       1.72414755       7.61408623      -0.01375951       0.00991434       0.01068342
C        7.47027037       2.69988290       6.09558097      -0.01665229      -0.00064264       0.00209732
C        5.19544759       4.10370560       6.58365950      -0.01032500       0.00747120       0.00200941
H        7.88536590       1.84378394       5.56993054      -0.01905948      -0.00361958       0.00550214
H        7.88800683       2.78007845       7.09784756      -0.01445197       0.00286964       0.00070454
H        7.61339585       3.60076539       5.50574724      -0.01574659      -0.00368948      -0.00198850
H        5.34398425       4.71602910       5.69622877      -0.01243797       0.00198027      -0.00204326
H        5.76597148       4.52287994       7.41185939      -0.00540075       0.01001579      -0.00289233
H        4.13508294       4.07310124       6.82848778      -0.00906494       0.01146731       0.00718940
S       12.00206652       5.62126850       2.61578917      -0.00581491      -0.00772071      -0.00454986
O       12.30813599       6.82751490       1.77918685       0.00824356      -0.00679612       0.00223279
C       12.67573948       5.93413115       4.26524533      -0.00840685      -0.01639001      -0.00202560
C       13.21421847       4.38674943       2.10053404      -0.01340067      -0.01545396      -0.00206542
H       12.02605661       6.68518719       4.71285727       0.01190588       0.00618309      -0.01344529
H       13.70741786       6.27335368       4.18370910       0.00141576      -0.04808899       0.00214162
H       12.63319108       5.00632261       4.83688623      -0.04340845      -0.00801305       0.00635474
H       13.15897884       3.51518228       2.75352260      -0.02500197      -0.01746501      -0.00606481
H       14.20450738       4.83999061       2.16021479      -0.01114535      -0.02186918       0.00471538
H       12.93751230       4.12430906       1.08073179      -0.00977416      -0.00915933      -0.00428942
S        2.10313980       8.83095160       8.58834407      -0.00074536      -0.00222826      -0.01303482
O        1.57808094      10.18931846       8.22750170      -0.00522578      -0.00405467      -0.01264393
C        3.60212846       8.59494945       7.63995224      -0.00650471      -0.00292269      -0.02186775
C        1.09042463       7.63397180       7.69931882      -0.00458431      -0.00572553      -0.00383097
H        4.36221116       9.22667372       8.09394139      -0.00468138      -0.00077419      -0.02858223
H        3.39705483       8.89582347       6.61337428      -0.01162027      -0.00736377      -0.02204961
H        3.93235958       7.55790131       7.67288807      -0.00556814      -0.00227191      -0.01810538
H        1.43629651       6.63326484       7.95746859      -0.00273301      -0.00488254      -0.00333951
H        1.16740345       7.81640550       6.62780499      -0.01127974      -0.00755868      -0.00431861
H        0.06528280       7.77493762       8.03768814      -0.00273561      -0.00640759       0.00129610
S        9.40349939      11.91946104      13.67323944       0.00092137      -0.01149726      -0.00407517
O        8.31110519      12.84000247      13.24475870       0.00322068      -0.00774443      -0.00079435
C       10.95715761      12.62992503      13.05316368       0.00239053      -0.00896758       0.00287113
C        9.40133041      10.50552285      12.54510459       0.00230478      -0.00387460      -0.01281571
H       11.08785078      13.56837942      13.59341176       0.00483330      -0.01467550       0.01182175
H       10.89118579      12.79269701      11.97730983       0.00095549       0.00187673       0.00477454
H       11.76886685      11.93094516      13.27318723       0.00104214      -0.01258542      -0.00589030
H       10.21037215       9.83549481      12.84039203       0.00149641      -0.00581605      -0.01533336
H        9.54486071      10.84246535      11.51890880       0.00404948       0.00219844      -0.01031210
H        8.44517661      10.00062766      12.67499306       0.00200351      -0.00428523      -0.01761460
S       10.61893630       9.52207747       3.50859816       0.00411789       0.00684047       0.00067872
O       10.31485389       8.26490325       4.27270646       0.00326520       0.01195312       0.00837117
C       10.19021999       9.20693203       1.79606150       0.00245804      -0.00388479       0.00333804
C       12.40703611       9.56891453       3.30646170       0.00346428       0.00028223      -0.00143819
H        9.10540526       9.12141003       1.75306798       0.00255762      -0.00152968       0.00424293
H       10.69577180       8.30015480       1.46463903       0.00035079      -0.00701141       0.00933429
H       10.49174601      10.08332503       1.22428162       0.00427682      -0.00919653      -0.00335949
H       12.66510967      10.43007991       2.69051410       0.00597288      -0.00682814      -0.00994413
H       12.73019174       8.63759528       2.84244709      -0.00058957      -0.00465623       0.00616299
H       12.82619039       9.71542462       4.29992080       0.00498341       0.00751158      -0.00341225
S        9.32081542       2.97496890       1.46976171      -0.01366425      -0.00406849      -0.01530254
O       10.16101563       3.94158196       0.69823627      -0.00236320      -0.01323402      -0.01420629
C        9.88975490       2.92952641       3.18373744      -0.03596190       0.01200978      -0.00856471
C        9.97014257       1.35452070       1.03029056      -0.01456419      -0.01021099       0.00850361
H        9.67946090       3.89811632       3.62874124      -0.03964533       0.01667412      -0.02128800
H       10.96227013       2.72687108       3.20734367      -0.03702922       0.00968614       0.00755098
H        9.31515370       2.14913967       3.68234168      -0.04461692       0.01799501      -0.00987497
H        9.50036132       0.57822304       1.63208278      -0.02577425      -0.00023880       0.01193173
H       11.05440681       1.40537828       1.15614779      -0.01625867      -0.01401420       0.02109045
H        9.72633238       1.20055231      -0.01755208      -0.00327119      -0.02015831       0.00765510
S       12.15797476      13.67873855       4.63733465       0.00916278       0.00319588       0.01202989
O       12.69603033      12.46567129       5.32886217       0.00333083      -0.00208926       0.00645494
C       10.47072751      13.31755303       4.17692767       0.00525093       0.01659939       0.01639695
C       12.82044618      13.66926593       2.94078917       0.00398871       0.00392792       0.01063144
H        9.87265447      13.30830312       5.08479496       0.00882932       0.01484764       0.01853324
H       10.42270855      12.34815613       3.67988766      -0.00309518       0.01987262       0.01107550
H       10.09096881      14.10339801       3.53009664       0.00859006       0.02285285       0.02231273
H       12.35067597      14.48264465       2.39063069       0.00655110       0.00735389       0.01388393
H       12.59579029      12.71024416       2.47229874      -0.00188144       0.00600797       0.00963855
H       13.89291847      13.83416813       2.99554413       0.00472154      -0.00111663       0.00788226
S        1.34297997       7.59332158       2.46055190      -0.00939977       0.01251745      -0.01486683
O        1.61440185       6.26628378       3.10390066      -0.02421224       0.00627267      -0.02200031
C        2.31613568       7.59742158       0.94556786      -0.00412905       0.01217964      -0.01136139
C        2.25844874       8.80566058       3.40853272       0.00162554      -0.00425828      -0.00493422
H        1.89173123       6.80198108       0.33457708      -0.00718249       0.01790327      -0.01623218
H        3.36258978       7.39134874       1.16410685      -0.00632681       0.00461691      -0.00887525
H        2.21380558       8.54753978       0.42419052       0.00391071       0.01506163      -0.00718786
H        2.21447808       9.78196545       2.93176506       0.02029013      -0.00210108      -0.00118110
H        3.28528988       8.47958418       3.55246278      -0.00494626      -0.02188742       0.00130168
H        1.76760096       8.87310671       4.37762040      -0.00365759       0.00055524      -0.00821619
S        8.79133777       1.22388806      11.75792523       0.01085757      -0.01001740      -0.00055301
O        9.09453623       0.36958530      10.56438222      -0.00453974      -0.00895077      -0.00516403
C        6.99775422       1.27589419      11.98907701       0.01336879      -0.00191021       0.01496183
C        8.94657998       2.91916008      11.17189883       0.01311595      -0.00917006       0.00314921
H        6.69847382       0.27586376      12.29005199       0.01090262      -0.00115193       0.01410586
H        6.51774975       1.56752027      11.05547303       0.00664394       0.00407619       0.02057394
H        6.77687720       1.98349252      12.78789538       0.02407416      -0.00391720       0.01928458
H        8.52504337       3.60680362      11.90668047       0.02967247      -0.01042774       0.01318897
H        8.42726890       2.97544960      10.21737733      -0.00095209      -0.00052630       0.01171590
H       10.00657495       3.13255733      11.04704911       0.01220980      -0.01556533      -0.01202101
S        5.97723177       9.88404615       0.14198113       0.00233686       0.00619030      -0.00300694
O        5.43281774       8.89641441      -0.84601496       0.00244319       0.00528073      -0.00180900
C        4.91439558       9.80610934       1.58224263       0.00027174       0.01045412      -0.00442964
C        5.45085908      11.52985167      -0.36502559       0.00378209       0.00508630      -0.00716142
H        5.03786743       8.81566753       2.01246997      -0.00216666       0.01133277      -0.00224305
H        3.88877456       9.95759032       1.24985967       0.00144364       0.01102201      -0.00717835
H        5.21259809      10.56154939       2.30948031       0.00060546       0.01149890      -0.00584610
H        5.70841784      12.21437445       0.44377995       0.00461410       0.00748140      -0.00975949
H        4.37936837      11.50331747      -0.56431688       0.00383781       0.00565131      -0.00690572
H        6.01173515      11.80155103      -1.25355337       0.00413696       0.00165486      -0.00772426
S        7.88667830       6.86717592       8.58015417       0.00180960      -0.00010097      -0.00032282
O        6.59750304       6.80767501       7.82743013       0.00061083      -0.00042945       0.00195992
C        8.39326939       5.14537892       8.73905347      -0.00186351      -0.00041121       0.00682375
C        7.44264948       7.16706426      10.29898607       0.00541249       0.00726286      -0.00105125
H        8.69112850       4.82595130       7.74219400      -0.00243672      -0.00570527       0.00861120
H        7.55149568       4.54420502       9.08330068      -0.00295037       0.00308504       0.00975103
H        9.24286190       5.06235574       9.41416725      -0.00225784       0.00087084       0.00724526
H        8.33215006       7.21076615      10.92349978       0.00701353       0.01028197      -0.00384228
H        6.77531053       6.37730697      10.64017217       0.00661609       0.00876044       0.00431909
H        6.93598619       8.13033211      10.31155517       0.00557762       0.00710568      -0.00413541
S        0.25924779       3.00756547      11.44191362       0.00121215       0.00249553      -0.00169465
O       -0.23146739       1.91575754      12.41233347      -0.00225967       0.00085792      -0.00592703
C        1.58102050       2.22582273      10.52255277      -0.00092226       0.00218137      -0.00375150
C        1.23841707       4.11837741      12.42203391       0.00372845      -0.00526398       0.00400200
H        1.15185879       1.40133868       9.95629359      -0.00312395       0.00669692      -0.00827229
H        2.34236693       1.86062659      11.21645183      -0.00322302      -0.00372488      -0.00477040
H        1.99623672       2.98998399       9.86238502       0.00218223       0.00385815       0.00050673
H        1.68751212       4.79885647      11.69459399       0.00665278      -0.00344507       0.00811070
H        1.98941616       3.54565972      12.96762755       0.00074035      -0.01077664       0.00195834
H        0.54627731       4.65297252      13.06652366       0.00488687      -0.00657511       0.00602341
