196
Lattice="18.97105283967484 0.0 0.0 0.0 18.97105283967484 0.0 0.0 0.0 18.97105283967484" Properties=species:S:1:pos:R:3:forces:R:3 energy=-2048155.25 stress="-0.0004410379333421588 -0.0001428168179700151 -0.00023338590108323842 -0.0001428168179700151 -0.0006781043484807014 5.792818956251722e-05 -0.00023338590108323842 5.792818956251722e-05 -0.00035266627673991024" pbc="T T T"
K       20.19912985      17.86233262      -1.27813368       0.01330173      -0.03854354       0.00030821
Br      17.16233181      17.04356534      -0.16970750      -0.00482544       0.00512174       0.03554526
O       18.56072378      16.19569155      -0.06686025      -0.00885296      -0.01092327       0.00141594
O       17.58020790      18.46742716      -0.88311768       0.00549614      -0.01116335      -0.00493950
O       16.11009452      16.25970220      -1.10815802      -0.00848329      -0.00135684      -0.00142121
O       16.56614500      17.31815383       1.29957017       0.00990731      -0.00309461      -0.02649331
Cl      11.16760674       5.76510811      12.70396418       0.00375694      -0.01512558      -0.00030720
Cl      10.73099496       7.41364967      15.04623689      -0.00279671       0.00368804      -0.01224059
Cl      11.07577825       4.55094544      15.33518313      -0.00346471       0.00659800       0.00823447
Cl       8.65308945       5.60820815      14.14274214       0.00056118      -0.00406853      -0.00627813
C       10.40484156       5.83684819      14.31590808      -0.00042598      -0.00133619      -0.00308673
Cl       7.65328705      15.23488763      -0.15187558       0.00976993      -0.02405414      -0.01139817
Cl       7.63151690      12.44126915       0.61767753       0.00085272      -0.01539606       0.01480657
Cl       7.53174387      14.51227205       2.65057591      -0.00992678       0.00347058      -0.00693399
Cl       9.96737380      14.07336476       1.14635120       0.00105608      -0.01459342       0.01340463
C        8.19857610      14.05938550       1.06874448       0.00145403      -0.01311957       0.00290089
Cl       3.34101580       1.29092032      18.92587369       0.01367421       0.00392587      -0.00292140
Cl       0.51463311       1.80559263      19.31953854       0.01044831      -0.01898242       0.00202753
Cl       2.46711305       3.91545787      19.79566623      -0.00718217      -0.00379607      -0.00080571
Cl       2.29494839       1.65767106      21.60387146       0.01862805      -0.00553733      -0.00131321
C        2.14536693       2.18270744      19.92573334       0.00898518      -0.00690683      -0.00116094
Cl       9.23972855      10.92017289      13.15713586       0.00147873      -0.00260309      -0.00970215
Cl      11.34129837       9.45142789      11.80892458       0.00042999      -0.00295115      -0.00708688
Cl      11.61659138      12.30383163      12.22298024       0.00636554      -0.00549436       0.00298099
Cl       9.67505862      11.30428267      10.31994430       0.01353863       0.00691105      -0.00684625
C       10.47729256      10.99529139      11.87269123       0.00440129      -0.00092006      -0.00655839
Cl       2.49351120       3.10239043      15.52120884      -0.00441492      -0.00075859       0.00939699
Cl       3.47651891       5.66429527      16.47880500      -0.00234222       0.00060192      -0.00013344
Cl       0.64248269       5.06481009      16.58850729      -0.00326589       0.00177198      -0.00114065
Cl       1.93211643       5.52258555      14.02901670       0.00214093      -0.00550093      -0.00164950
C        2.13418903       4.84610614      15.65129218      -0.00234361      -0.00056896       0.00106233
Cl       3.82190551      13.76182517       4.83430748       0.01350908       0.01247826       0.00413042
Cl       3.07719938      14.01519952       2.04242428      -0.01643522      -0.01301336       0.00821191
Cl       1.94228051      11.89004182       3.66307898       0.00557703      -0.00074530       0.03486590
Cl       4.73873156      11.80065891       2.90743949       0.00105751       0.00366440       0.01022619
C        3.39227646      12.86423128       3.35698402       0.00083059       0.00036556       0.01491027
Cl       7.40324142       8.86946236       0.64715106      -0.00281936      -0.00212374      -0.01033963
Cl       4.98702218       8.17761842       2.08514641       0.00034338       0.00410140      -0.00408429
Cl       5.97796097       6.42583651      -0.00110989      -0.00301692      -0.00565550       0.00158978
Cl       4.82865515       9.00315443      -0.69174560      -0.00419584      -0.00880575      -0.00662857
C        5.79268983       8.12126502       0.51286085      -0.00229585      -0.00385877      -0.00499412
Cl      -0.18054112      10.54934379      13.89252135       0.01252189      -0.01119503       0.00575086
Cl       1.26062459       8.96427967      15.85288324       0.00044781      -0.01164116       0.00876264
Cl      -1.16737833       7.93780898      14.65242388       0.00489929      -0.01088637      -0.00342306
Cl      -1.30244794      10.12712889      16.53906719      -0.00400105      -0.01799873       0.00132737
C       -0.35127217       9.39901083      15.23592830       0.00295992      -0.01269550       0.00316945
Cl      11.16580519      17.43200951       2.30164890       0.00200576      -0.01815772       0.00315729
Cl      13.11917100      15.80463320       0.89650479       0.00784722      -0.01070416       0.00991067
Cl      13.79557467      16.99155452       3.43694082       0.00695848       0.01238492      -0.00304806
Cl      13.47893461      18.67185437       1.08866764      -0.01218602      -0.00575340      -0.00915757
C       12.89891933      17.22567816       1.93658738       0.00226636      -0.00319171      -0.00093730
Cl       2.91305478      18.06496950       5.62415824       0.00016132       0.00626951       0.00485179
Cl       0.91446651      16.04655179       6.19835313      -0.00293091       0.00169769      -0.01060411
Cl       0.74889866      18.63825118       7.47553232      -0.00176668      -0.00282043      -0.00178875
Cl       2.84764303      16.78048210       8.22461521      -0.00719130      -0.01674356      -0.00554818
C        1.84674414      17.38337338       6.88054029      -0.00258417      -0.00290775      -0.00257119
Cl       5.97937315       1.00988729       3.87315417       0.00196829      -0.01052027       0.00908822
Cl       6.66946165      -0.70780020       1.64106373       0.01184949      -0.00352469       0.00790274
Cl       8.73481431       0.79962021       3.00408150       0.00258344       0.01206079       0.00438334
Cl       6.80821347       2.17491979       1.34173155      -0.01121375      -0.00418231       0.00757542
C        7.04658397       0.81946626       2.46815642       0.00171186      -0.00125765       0.00776154
Cl      11.73861938       0.92119124       9.44867869      -0.01267359      -0.01160988      -0.00071652
Cl      12.76869887       2.18629829       7.05519098       0.00625484      -0.02173495       0.00214976
Cl      14.31895782       2.22350763       9.51074420      -0.01643708      -0.00511175       0.01414980
Cl      11.90850456       3.81533863       9.29036128      -0.02001898      -0.01220950      -0.01669429
C       12.67898317       2.28352127       8.81800059      -0.01039402      -0.01248141       0.00019955
Cl       4.91621778      -1.69748913      17.50704600       0.00037791       0.01794200      -0.00215100
Cl       7.59602366      -0.91201259      16.75542773      -0.00087437       0.00225638      -0.01392063
Cl       5.34767603       0.79437122      16.07983545       0.00480611       0.01014179      -0.01149597
Cl       5.72088160      -1.73394039      14.71517616      -0.00828262       0.00747417      -0.00843211
C        5.91154033      -0.87818548      16.25079701      -0.00107513       0.00836197      -0.01035776
Cl       2.10118396       9.00622792       7.11603774       0.00155213       0.02020882       0.00789519
Cl      -0.37690726       9.92613083       5.92228289      -0.00137502       0.00478828       0.00467417
Cl      -0.33634017       7.49443530       7.49128589       0.01287761       0.00142056      -0.00011104
Cl       0.94159514       7.56217518       4.89089013       0.01574012       0.01770622       0.00122973
C        0.57841971       8.49612475       6.35375606       0.00721770       0.01076513       0.00359908
Cl       5.08874018       4.72936685       3.48446805      -0.01037914       0.00325722       0.00519538
Cl       6.25027663       4.18788586       6.08521916      -0.00062373       0.00415614      -0.00063452
Cl       5.35940890       6.86797813       5.42113832      -0.01179008       0.00288677       0.00632471
Cl       7.71721037       5.76411845       4.14373679      -0.01288393       0.01308876      -0.00327952
C        6.10350703       5.38053262       4.78346937      -0.00887359       0.00619626       0.00225566
Cl      17.05017217      11.94272396       3.50341365      -0.01120068       0.01991242       0.01853240
Cl      18.03925736      14.67234842       3.45140372       0.01603851       0.00835425      -0.02281663
Cl      15.76390713      13.92770047       1.83021981       0.00981241       0.00511084      -0.01253477
Cl      18.39780714      12.95976580       1.14285888       0.00004324      -0.03240421       0.00438470
C       17.30978809      13.37737136       2.47755214       0.00435096       0.00138887      -0.00275921
Cl       1.73274032       7.68028131      10.82578715      -0.00475729       0.00051251       0.01009064
Cl       2.59935316      10.44399360      10.64892492      -0.00627610      -0.00017834       0.00545355
Cl       4.41095324       8.30809387       9.90727137      -0.00355697      -0.00024757       0.01454791
Cl       3.70424673       8.70557690      12.69097630      -0.01294020       0.00825047       0.01363149
C        3.11285229       8.79282171      11.01536854      -0.00587960       0.00136664       0.01115443
Cl       8.91548383      18.38621960       7.84144720      -0.00307050       0.01484516      -0.01362707
Cl       8.23658609      15.58403970       8.13939996       0.02410497       0.01033628      -0.01080957
Cl       8.55713858      16.71735364       5.49217037      -0.00657918       0.01448652      -0.01232314
Cl       6.27108499      17.45421158       7.11674905      -0.00086886      -0.00670631       0.00552280
C        7.99267996      17.03618355       7.14998185       0.00291106       0.00849731      -0.00810463
Cl      14.39191291       7.42448352      11.04421046      -0.00681423       0.00653264       0.00870325
Cl      16.95044580       8.69611936      10.57339589      -0.00071627      -0.00656210       0.01372430
Cl      15.07023132       9.88141511      12.42869919      -0.00683152       0.01498133      -0.00583538
Cl      14.51298235       9.92268040       9.58168440       0.01027229      -0.00855830      -0.01154366
C       15.22623338       8.98557118      10.91158552      -0.00095704       0.00180729       0.00145041
Cl       9.09265262      -0.38051470      12.45435153       0.00768611       0.00955346      -0.01265390
Cl       8.63451221       1.70659084      14.41777045       0.00175124      -0.00589745      -0.00203860
Cl       9.25003121       2.40339847      11.67590986       0.00096735       0.01185542       0.00037688
Cl      11.30087994       1.27217318      13.36796091       0.00366080       0.00986001      -0.00372669
C        9.56916264       1.25225673      12.97854947       0.00385593       0.00762999      -0.00473826
Cl       7.58988354       9.92884264       4.51635265      -0.00126283       0.00717002      -0.00833118
Cl       5.66123548      10.38735333       6.62928328       0.00194210      -0.00064934      -0.00406535
Cl       7.43732068      12.52454222       5.81126962      -0.00333197       0.00416422      -0.00165126
Cl       8.49189158      10.25225532       7.25262542       0.00317997       0.00275159      -0.00997651
C        7.30107650      10.77590305       6.05129482       0.00000583       0.00353730      -0.00610431
Cl       2.68882951       5.34585654       7.59631829       0.00178817       0.00226241       0.01163527
Cl       1.66522288       4.05803985       5.20840173       0.00075236       0.00705361       0.00936049
Cl       0.41500224       3.55589900       7.77372303       0.00388798       0.00148118       0.01118898
Cl       3.05812329       2.50254973       7.20649474       0.00191763       0.00241223       0.00317448
C        1.95977583       3.86569943       6.94929220       0.00193695       0.00346265       0.00847072
Cl      17.29046368       3.28557841      14.25081844       0.00903004       0.00820035      -0.01095647
Cl      17.50167592       5.51109285      12.40278279      -0.02665888      -0.00034186      -0.02210174
Cl      14.97805389       4.12473344      12.72128984      -0.01288915      -0.01468476       0.01169737
Cl      17.20789116       2.82252682      11.38722984      -0.01772472      -0.00625724      -0.00794098
C       16.74090458       3.93937951      12.69869165      -0.01272554      -0.00414698      -0.00767391
Cl      13.61398702      11.33970293       6.06999020       0.00728717       0.00964771      -0.00728965
Cl      11.28339300      13.02277715       6.49143738       0.00228664      -0.00832149       0.01163208
Cl      11.17963384      10.86939404       4.55726020       0.00697306       0.00641292      -0.00431892
Cl      12.79420829      13.21829009       4.02204161      -0.00984786       0.01683730       0.00617313
C       12.21134310      12.11686596       5.28085938       0.00088238       0.00708694       0.00279840
Cl       8.11571630       5.18223659      10.36610201      -0.00893475       0.00093400      -0.00747675
Cl       7.95297082       8.01334588      10.93131993       0.00060642       0.00106370      -0.00378343
Cl       7.20976128       6.99971390       8.30992322       0.00150156       0.00682972      -0.00615704
Cl       9.98917220       7.02057264       9.12366315      -0.00033027      -0.00410178      -0.00113770
C        8.31165345       6.80785500       9.68673609      -0.00175774       0.00137603      -0.00466642
Cl      11.47331904      14.23086859      15.54368622       0.02038799      -0.00506055       0.01380995
Cl      10.82774123      16.53800357      17.17875858      -0.00450832      -0.00457610       0.00074196
Cl      11.64701488      16.90171373      14.42603280      -0.00774698      -0.00891030      -0.00112146
Cl      13.57439144      16.03243696      16.41019142       0.00117040       0.02230698       0.00252417
C       11.89627910      15.92340585      15.88934375       0.00199290       0.00132139       0.00365234
Cl      16.74073763      13.87695874      12.87621005       0.00056040      -0.01397234      -0.00762004
Cl      15.85694725      16.01489940      11.11312422       0.01051153      -0.00905025      -0.00500801
Cl      13.96749444      14.71165371      12.86993912       0.00525838       0.00104780      -0.00315103
Cl      15.06139176      13.28097097      10.59521938      -0.00629263      -0.00398719      -0.00514221
C       15.40265899      14.46911739      11.85968590       0.00233272      -0.00687280      -0.00514867
Cl      15.60574720       6.96795325       0.76078540      -0.00410980       0.03052187      -0.00850660
Cl      15.18840316       8.58404735       3.12894847      -0.00147352       0.01058662       0.00574452
Cl      15.83000116       9.85937354       0.61224523      -0.01186943       0.03177196       0.01435876
Cl      17.84546136       8.31234505       2.01025449      -0.00393945       0.02552847      -0.00358988
C       16.11447162       8.43094112       1.62508525      -0.00490924       0.02480414       0.00233222
Cl      16.09041511       3.58035322      18.26634034       0.00725287      -0.00254802      -0.02608433
Cl      14.56447424       5.43662178      16.64286504      -0.00417203      -0.01045877      -0.02268420
Cl      13.27274918       3.99916017      18.80935489       0.01119220      -0.00736123      -0.00798136
Cl      14.08937858       2.58489546      16.41306265      -0.00729780      -0.01002097      -0.00762075
C       14.50345936       3.90124431      17.53198808       0.00167982      -0.00670373      -0.01620406
Cl      13.02653083       8.92603520      17.41539052      -0.00061598       0.00041866       0.00411149
Cl      14.18012869      11.46391827      16.61137045      -0.00426114      -0.00019783      -0.00090152
Cl      11.99211053      11.40518477      18.51093125      -0.00515807       0.00059822       0.00023162
Cl      11.51492019      10.73324449      15.73188309      -0.00152034      -0.00560021       0.00093493
C       12.67914145      10.63142576      17.07382899      -0.00267708      -0.00103574       0.00232437
Cl      15.30264305       1.31949297       3.94502146       0.00461310       0.01585867       0.00975430
Cl      16.47448386       1.48213466       6.58691784       0.00857770       0.00637737       0.01003677
Cl      18.17817204       1.47195433       4.24260069       0.00323105       0.00153163       0.00679401
Cl      16.77878473      -0.93959762       5.01594738      -0.01013230       0.00717854       0.00881145
C       16.68068925       0.82826360       4.94198189       0.00219086       0.00750346       0.00897832
Cl      16.54490027       5.57563186       5.04482850       0.00445741       0.00426288       0.00887561
Cl      15.07802595       7.64314061       6.48239835      -0.00121965       0.00026500       0.01148905
Cl      15.39462010       5.01592281       7.64357959      -0.00709219      -0.00495389       0.00050366
Cl      13.66976106       5.38742324       5.33841723       0.00429595       0.00726488      -0.00706860
C       15.17420546       5.90515429       6.12112808       0.00062186       0.00249863       0.00363889
Cl       1.19598618      14.02054859      14.32563301       0.00604159       0.00959943       0.00324661
Cl       3.34496947      14.62645951      16.18005466      -0.00861758       0.00987712       0.01537929
Cl       3.19542277      12.01488235      14.94119700       0.01534888       0.01476520      -0.00014199
Cl       1.23795883      12.78953061      16.94435054       0.00319892      -0.01454438      -0.00672066
C        2.23334997      13.34614596      15.59536846       0.00375694       0.00460032       0.00247448
Cl       4.50826969      14.35646006      11.24911206      -0.01456273      -0.01870954      -0.00199218
Cl       7.38930196      14.23021874      11.56365506      -0.01443273       0.00128347       0.00473677
Cl       6.09508299      12.77950404       9.40562577       0.00381931      -0.00585279       0.00041807
Cl       5.76640789      11.89887260      12.14398971       0.00321541      -0.01098019      -0.00218576
C        5.94089584      13.31628655      11.09025578      -0.00657007      -0.00803524       0.00010443
Cl      18.31994983      11.59250642       9.39074824       0.00616780      -0.00188196       0.00265005
Cl      20.52570016      12.72487602       7.88377148      -0.00607896       0.00940134      -0.00627099
Cl      18.94151697      14.41186504       9.62596363      -0.01426592       0.00341523      -0.01198521
Cl      17.79052344      13.37194804       7.17172325      -0.01330209      -0.01630599      -0.00332695
C       18.89575964      13.02361182       8.52036719      -0.00690669      -0.00170631      -0.00512758
Cl       2.07454583      -1.35913536      14.40751200       0.02333260       0.02350932      -0.00882003
Cl      -0.58581569      -0.44272482      15.13364376       0.01942819       0.00504243       0.00211829
Cl      -0.22268005      -2.05328116      12.76037996       0.02454108       0.01677299      -0.00687271
Cl       0.76824378       0.66538236      12.80434491       0.00311198       0.02418646       0.00635651
C        0.49624520      -0.79054573      13.75667864       0.01821300       0.01696986      -0.00127083
Cl       3.76770721       0.63193899      10.37930134      -0.00607598      -0.00202903       0.00615986
Cl       6.09531163       2.10329645       9.48531463       0.00068381      -0.01252334       0.00530019
Cl       5.58767140       1.78107808      12.32395086       0.00070217      -0.01455168       0.00541461
Cl       3.88523228       3.51072849      10.74082429       0.00888491      -0.00375044       0.00718385
C        4.82867124       2.00970138      10.73487756       0.00106409      -0.00779045       0.00619773
Cl      14.31895027      15.10150051       7.18955386       0.01022160       0.00323856       0.00029701
Cl      12.62835417      16.01584221       9.36409620      -0.00726643      -0.01929078      -0.00387925
Cl      12.17045363      16.98471306       6.68095180      -0.00363603      -0.01483579      -0.00390229
Cl      14.53379484      17.82517768       8.12814471      -0.01942652       0.00109768       0.01140700
C       13.41224568      16.48311627       7.83952006      -0.00537205      -0.00765312       0.00067783
