189
Lattice="12.967567612976273 0.0 0.0 0.0 12.967567612976273 0.0 0.0 0.0 12.967567612976273" Properties=species:S:1:pos:R:3:forces:R:3 energy=-122046.7734375 stress="-0.0017706772778183222 -0.00010254600420012139 -0.000272878838586621 -0.00010254600420012139 -0.003311906475573778 -0.00012061143934261054 -0.000272878838586621 -0.00012061143934261054 -0.0015765530988574028" pbc="T T T"
K       12.85930676      13.22398864      -0.53068532      -0.00179968       0.01998834      -0.02198558
S       10.87988703      11.22885096       2.10734729      -0.01198900       0.02203204       0.01617250
F       13.24504818      12.26681105       2.66224374       0.00712737       0.01416193      -0.01765218
F       13.30228608      10.18501042       2.10828261       0.01090250       0.00173991      -0.00086686
F       12.58408554      10.76980392       4.08072773      -0.00397937       0.02300944      -0.00365042
O       10.28765711       9.93092830       2.29724342       0.01147106       0.00985551      -0.02553067
O       11.21916869      11.55165422       0.71218294       0.02024817       0.00938639      -0.03967446
O       10.29359730      12.32146179       2.85201935       0.01136479      -0.01082158      -0.04247290
C       12.58376674      11.08616584       2.79564479      -0.00240946       0.01614489      -0.01273590
O       10.35269659      12.60294193      11.35256435      -0.00103416       0.00506416      -0.00995713
C       10.43428983      11.87332152      10.12330955      -0.00573471      -0.00173581      -0.01103948
C       11.82776577      11.28844355       9.93070709      -0.00794798      -0.00701880      -0.00868800
C        9.36329023      10.80116838      10.03870766      -0.00896898       0.00070858       0.00506662
H       10.25711462      12.61979203       9.34276660      -0.00671574      -0.00877470      -0.01512590
H       11.91206070      10.78562042       8.96730577      -0.01334291      -0.01523532      -0.00472622
H       12.58383526      12.07848001       9.93908248      -0.00636413      -0.00901328      -0.01920859
H       12.04923389      10.56030327      10.71716549      -0.00655323      -0.00128746      -0.00292782
H        9.31942430      10.39104381       9.02870042      -0.01430160      -0.01018549       0.00969040
H        8.38464823      11.21515429      10.29244996      -0.00630976       0.00544344       0.00533887
H        9.57171964       9.98843452      10.73965550      -0.00854395       0.00734655       0.01272310
H       10.27633661      11.98975862      12.10384299       0.00442935       0.01596957      -0.01548851
O       12.91900728       7.49830301       6.81498027      -0.00539267      -0.00566238      -0.01384419
C       11.85395265       8.17806513       7.48545498       0.00308675      -0.00038189      -0.00650045
C       11.19173354       9.18007302       6.55795648       0.00478587       0.00591302      -0.00001335
C       10.86132877       7.19331145       8.08526320       0.00051498       0.00510091      -0.00211257
H       12.34863671       8.70902006       8.30494863       0.01144680      -0.00528982      -0.00793803
H       10.37567967       9.71224237       7.04845454       0.01290354       0.01259854       0.00633509
H       11.91212736       9.91597628       6.20644708       0.00796551      -0.00043979      -0.00547992
H       10.78538647       8.67355136       5.67787049      -0.00688821       0.00988391       0.00323619
H       10.04357999       7.72755637       8.57696943       0.00484943       0.00942752       0.00006183
H       11.33707115       6.54094643       8.81575949      -0.00068919       0.00356965      -0.00329925
H       10.43087869       6.56246490       7.30466212      -0.00503531       0.00707716      -0.00053589
H       12.59197552       7.23207525       5.94624891      -0.00776081       0.00868677      -0.01764860
O        7.85699628      11.86513022       1.17530832      -0.00651169       0.00545198      -0.02685750
C        6.99594227      10.81941652       0.72958489      -0.01044697       0.00531027      -0.01406495
C        7.10149385       9.57375260       1.59181242      -0.00134300       0.00642514      -0.01398385
C        5.56226971      11.31908063       0.63083525      -0.01111889       0.00525284       0.00042908
H        7.35197559      10.57360872      -0.27789211      -0.02294485       0.00259280      -0.01813513
H        6.49675927       8.77478823       1.15866739      -0.00435655       0.00534847      -0.00728868
H        8.13543208       9.24347306       1.68034839      -0.00029597       0.00752205      -0.02335073
H        6.72228340       9.76955610       2.60038435       0.00795171       0.00744113      -0.01106480
H        4.92486537      10.57362078       0.14903523      -0.01609331       0.00563020       0.00668286
H        5.52470013      12.23983978       0.04811937      -0.01730698       0.00496686       0.00079662
H        5.15947215      11.52411937       1.62629171      -0.00100207       0.00500212       0.00427829
H        7.99184089      11.79071360       2.12628565       0.02371213      -0.00562789      -0.03008855
O        4.41028328      10.31816104       4.62218763      -0.00054884      -0.01108503       0.00122529
C        3.37705671       9.70059282       5.41140865      -0.00255024      -0.00449225       0.00262900
C        2.27386890       9.18768807       4.51258191      -0.00436240      -0.00450242       0.00520843
C        3.94046826       8.59769706       6.28854478      -0.00694793      -0.00287813       0.00743711
H        2.99751459      10.51342290       6.03588063      -0.00029218      -0.00085649      -0.00067389
H        1.41473344       8.86106739       5.09980690      -0.00464775      -0.00039736       0.00682853
H        1.96552292       9.97336854       3.82923599      -0.00308387      -0.00637025       0.00239718
H        2.63496049       8.32988078       3.93720401      -0.00666479      -0.00740176       0.00806209
H        3.14524413       8.14663003       6.88511318      -0.00859098       0.00333740       0.00977019
H        4.71711240       8.97587574       6.95235592      -0.00514264      -0.00310569       0.00495026
H        4.36225701       7.81218876       5.65632789      -0.01094585      -0.00771222       0.01110902
H        4.63228935       9.69595940       3.92136836       0.00253137      -0.01667741       0.00755177
O        7.12969301       0.28234751       8.27690782       0.00520089      -0.01140267       0.01031891
C        6.43678805       1.30600695       9.01441584       0.00734027      -0.00858262       0.00771588
C        5.28798870       0.68020853       9.78778625       0.00511312      -0.00389129       0.00796217
C        7.39392281       2.05990213       9.91308648       0.00800306      -0.00900507       0.00730276
H        6.04918779       1.97968194       8.24594302       0.00985873      -0.00909775       0.00639009
H        4.78128141       1.42876665      10.40239041       0.00697384      -0.00159276       0.00632204
H        4.56937074       0.20714084       9.11721590       0.00417331      -0.00255985       0.00817721
H        5.66839239      -0.08150540      10.47393345       0.00206235      -0.00404395       0.00923073
H        6.86186670       2.81766927      10.49122075       0.00940461      -0.00500041       0.00310940
H        8.17173279       2.54660617       9.32461039       0.01039344      -0.01372261       0.00681774
H        7.86620719       1.37964477      10.62903689       0.00402909      -0.00825366       0.01056103
H        7.56755118      -0.28462942       8.92219400       0.00202904      -0.01235438       0.01060534
O       12.37163347       7.75222061       3.39042202       0.01405263      -0.00166243       0.01185378
C       11.74148068       7.03420215       2.32589318       0.01259749       0.00307921       0.00906223
C       12.13913232       7.55445802       0.95401518       0.01240888       0.00774568       0.01072532
C       12.04224140       5.55384329       2.45784476       0.01011601       0.00215334       0.00166337
H       10.67298603       7.20502676       2.47815573       0.01346260       0.00404346       0.01011980
H       11.68630640       6.93686474       0.17598506       0.00952782       0.01261187       0.00942151
H       11.81358131       8.58170012       0.81345303       0.01428748       0.00880432       0.01573283
H       13.22476607       7.49946565       0.82746541       0.01155874       0.00743891       0.00712091
H       11.45406401       4.99520670       1.72566619       0.00628264       0.00778767       0.00079830
H       11.78893794       5.19954771       3.45612897       0.01183864      -0.00267636       0.00046444
H       13.10505235       5.36454232       2.27299220       0.00850599      -0.00036802      -0.00291550
H       13.31048919       7.81486145       3.18698462       0.01345810       0.00037313       0.01118112
O       11.70113938       2.79828412      -0.08155381      -0.02409422      -0.00470954      -0.01025990
C       11.00899314       2.09613760       0.99208861      -0.01263980       0.00232740       0.00158401
C       11.92755989       2.00834455       2.19422086      -0.00266716       0.01032954      -0.00634104
C        9.65070118       2.69469386       1.28534085      -0.00988877       0.00375587       0.00948815
H       10.81502492       1.09742214       0.59694544      -0.01379897      -0.00085324       0.00862862
H       11.48487451       1.38573626       2.96828929       0.00395466       0.01518108       0.00102395
H       12.89372809       1.56777995       1.93687156      -0.00478587       0.00842434      -0.01098453
H       12.13701345       3.00232195       2.59232704       0.00021961       0.01273303      -0.01452454
H        9.07992445       1.99105612       1.89223665      -0.00412833       0.00900121       0.01967020
H        9.09737235       2.85811174       0.36160999      -0.01835766      -0.00102077       0.01433794
H        9.71905037       3.64033187       1.82655683      -0.00317962       0.00734448       0.00289523
H       12.09833784       3.58587109       0.30921763      -0.03215905       0.00622296      -0.02290282
O       10.69730850       3.70100198       4.85873855       0.00044549      -0.00360203      -0.00313795
C       10.02088052       2.74542419       5.69368132       0.00256920      -0.00047773       0.00223799
C        8.68122761       2.38086029       5.08552498       0.00171888      -0.00394224       0.00661716
C       10.88621364       1.52001058       5.93334637       0.00361675       0.00104421       0.00487337
H        9.84681085       3.28280997       6.62413358       0.00492878       0.00300968       0.00042182
H        8.09097836       1.78017426       5.77768396       0.00389023      -0.00203178       0.01005238
H        8.11925228       3.27945380       4.83437383       0.00029495      -0.00570382       0.00422966
H        8.83212276       1.79760650       4.17432476       0.00034405      -0.00743712       0.00909801
H       10.42320707       0.85661839       6.66330380       0.00629567       0.00489931       0.01028724
H       11.87738530       1.81110794       6.27867308       0.00471109       0.00263652      -0.00016700
H       10.98700762       0.93282004       5.01794341       0.00013207      -0.00366496       0.00780831
H       10.80162862       3.28197324       3.99992589       0.00223324      -0.00790421      -0.00036321
O        8.82927880      12.01779975       6.41798805       0.00472865       0.00152218       0.00101835
C        8.10551154      11.27128440       5.43811398       0.00638950      -0.00311139       0.00244191
C        7.38471898      10.10848969       6.09250379       0.00272715       0.00149548       0.00758201
C        7.13972221      12.16933642       4.68162993       0.00801623      -0.00563270      -0.00316212
H        8.86464437      10.88943865       4.75021516       0.00608629      -0.00671035       0.00643906
H        6.88215917       9.49436430       5.34432801       0.00357574      -0.00130169       0.00940243
H        8.08957590       9.48737663       6.64320345       0.00062604       0.00307444       0.01200978
H        6.62088974      10.47768368       6.78050502       0.00211617       0.00594451       0.00360399
H        6.52436657      11.59587759       3.98813367       0.00990331      -0.00901049      -0.00198665
H        7.68037329      12.94165402       4.13830605       0.00955433      -0.00952654      -0.00649052
H        6.44977678      12.64770223       5.38290614       0.00723983      -0.00203369      -0.00714982
H        8.18899194      12.57265061       6.88738439       0.00465133      -0.00542039       0.00465696
O        2.28200648       2.73870885       9.77049916       0.00455558      -0.01995993       0.01305318
C        2.49349384       3.94968647      10.51502338      -0.00606090      -0.01370353       0.00595231
C        2.83591403       3.63606109      11.95683742      -0.00409354      -0.00386807       0.00714743
C        3.55227938       4.80793734       9.85140576      -0.01314536      -0.00789464       0.00237083
H        1.53037921       4.46609623      10.47241850      -0.01012111      -0.02245834       0.00405068
H        2.91814082       4.54742932      12.54921616      -0.01477671      -0.00075404       0.00321262
H        2.07305390       3.00845774      12.41986677       0.00237826      -0.01011462       0.00906534
H        3.79163233       3.11200803      12.03205651       0.00043456       0.00601725       0.01031300
H        3.72306446       5.72730192      10.41533840      -0.02275452      -0.00334130      -0.00264004
H        3.26292641       5.06748666       8.83351137      -0.01417346      -0.01540766       0.00085405
H        4.50151342       4.26325545       9.81932929      -0.00789224       0.00135089       0.00672110
H        3.14491039       2.34099742       9.61708491       0.00835511      -0.00503939       0.00199840
O        3.39099490       2.68324065       1.89878588      -0.00944066       0.00502020       0.01427773
C        4.23679507       1.73956417       2.58910303      -0.00473557       0.00099507       0.00297946
C        5.35925236       2.46250393       3.31054332      -0.00243157      -0.00236741       0.00227100
C        3.41247319       0.86491248       3.51281191       0.00127140      -0.00693971       0.00024346
H        4.66437189       1.13017361       1.78974784      -0.00772648       0.00733232      -0.00329044
H        6.01555399       1.75522067       3.81875406       0.00087906      -0.00459358      -0.00554146
H        5.95876200       3.04037432       2.60555473      -0.00665558       0.00241111       0.00299655
H        4.95234029       3.13733318       4.07208272       0.00025530      -0.00753851       0.00784408
H        4.02514287       0.10185031       3.99550810       0.00482763      -0.00869463      -0.00741535
H        2.61715429       0.36283499       2.96070340       0.00033973      -0.00493650       0.00013711
H        2.95246820       1.47315815       4.29900236       0.00331421      -0.01352081       0.00622085
H        2.83731702       3.10664618       2.56391679      -0.01716554      -0.01161462       0.01787734
O        3.80887637       6.20024085       3.43941071       0.01011622      -0.01153922       0.00212115
C        4.81190910       6.74576887       2.57531442       0.00396165      -0.00534771      -0.00055447
C        6.19905699       6.42176329       3.09773735       0.00754452      -0.00217943      -0.00815627
C        4.59680356       6.27235090       1.14895192      -0.00124145      -0.00127512      -0.00089747
H        4.64604165       7.82754593       2.61604013       0.00051758      -0.00615203       0.00395138
H        6.97793496       6.82489798       2.44945003       0.00287724       0.00476737      -0.00919870
H        6.33811758       6.83445865       4.09630134       0.00968854      -0.00694682      -0.00677469
H        6.33393045       5.33830033       3.15105496       0.01244336      -0.00158881      -0.01421067
H        5.32507940       6.72923460       0.47237451      -0.00544307       0.00195549      -0.00280526
H        3.59916031       6.54342984       0.80219733      -0.00328454      -0.00284795       0.00427973
H        4.68925336       5.18354723       1.09562630       0.00072394      -0.00079349      -0.00439065
H        3.98710917       5.25571080       3.50998229       0.00110000      -0.01426706      -0.01916471
O       10.71042817       3.98770548       9.99309515       0.03661096       0.01504213       0.02450776
C       11.39080475       3.11635667       9.06848454       0.00642353       0.01259559       0.00769010
C       12.30308526       3.93436084       8.17478812       0.00316530       0.00935131       0.00200751
C       12.13695672       2.03559377       9.82148368       0.00258899      -0.00329688      -0.01158169
H       10.62013567       2.63711765       8.45450482      -0.00692523       0.02605626       0.01347983
H       12.94402848       3.28262210       7.58165286      -0.00889327       0.00651066      -0.00649185
H       11.73661797       4.56313065       7.49184469       0.00277939       0.01573795       0.00896960
H       12.94497201       4.57313172       8.78155021       0.01339218       0.00109306      -0.00179221
H       12.63552200       1.36466986       9.12021632      -0.01264675      -0.00113036      -0.02363613
H       11.43368183       1.46888708      10.43393475       0.00146432      -0.00257261      -0.01240402
H       12.90532856       2.48683314      10.45300410       0.01225773      -0.01721153      -0.01461143
H       10.89141898       3.66380455      10.88373993      -0.02361797      -0.03874049       0.01309908
O        7.12396104       4.42849950      12.54179954      -0.00035805       0.00856633      -0.00229323
C        8.03059680       5.12206064      11.67580495       0.00146283       0.00898820       0.00054020
C        7.27542768       5.95734103      10.65675901       0.00406972       0.00820279      -0.00161326
C        9.02227351       5.96773757      12.45311650      -0.00073925       0.00895616       0.00316679
H        8.57239051       4.33141006      11.15544529       0.00325471       0.00913671       0.00201094
H        7.97643473       6.45666642       9.98388051       0.00530848       0.00653229      -0.00122496
H        6.59344091       5.33867940      10.07210725       0.00399804       0.00806530      -0.00130481
H        6.68687100       6.73419831      11.15456956       0.00419055       0.00941998      -0.00342281
H        9.74186192       6.41996943      11.76805206       0.00411490       0.00477401       0.00581218
H        9.56446864       5.35866630      13.17517346      -0.00627477       0.00979248       0.00767760
H        8.51485868       6.77364029      12.99246639      -0.00185192       0.01135322      -0.00205955
H        6.60347687       5.08569097      13.01434235      -0.00023551       0.00855425      -0.00179251
O        7.91761619       4.50282842       7.41780858      -0.00124785       0.00036344       0.00878817
C        7.08062332       5.31898265       6.59024980      -0.00003481      -0.00383776       0.00349984
C        5.61677430       4.97586391       6.80136168      -0.00007790      -0.00628042      -0.00139445
C        7.35209595       6.79061988       6.81432723      -0.00407101      -0.00279379       0.00036629
H        7.36557519       5.06026968       5.56782736       0.00431679      -0.00609052       0.00554526
H        4.98128073       5.51704865       6.09638653       0.00246796      -0.01227812      -0.00799739
H        5.45127557       3.90481211       6.67617737       0.00350522      -0.00724716       0.00363862
H        5.31024626       5.25750870       7.80889410      -0.00614504      -0.00134345      -0.00475809
H        6.67622796       7.40502046       6.22315182      -0.00225879      -0.00607776      -0.00492521
H        8.37573898       7.04831000       6.54932981      -0.00347754      -0.00160732       0.00495472
H        7.18603735       7.05478551       7.86257495      -0.00989724       0.00020135      -0.00149632
H        7.98949976       4.92507896       8.27995220      -0.00734226       0.00193968       0.00809833
