182
Lattice="13.373294545626191 0.0 0.0 0.0 13.373294545626191 0.0 0.0 0.0 13.373294545626191" Properties=species:S:1:pos:R:3:forces:R:3 energy=-87094.53125 stress="-0.0014266407815739512 -0.000292611017357558 0.00013576667697634548 -0.000292611017357558 -0.001160085084848106 0.000345132066286169 0.00013576667697634548 0.000345132066286169 -0.0013161998940631747" pbc="T T T"
K       11.67221687      13.59353192       2.52029510      -0.00403035       0.03362327       0.02511728
Cl      13.58828676      13.95110727       0.67507604       0.01764085       0.00651680       0.04394020
C        4.52728901       3.59649589       4.09521443       0.00526202       0.00410587       0.01854477
C        3.29261427       4.48947180       4.06997172      -0.00827336      -0.00594592      -0.01060576
C        4.20926679       2.11654214       4.27831707      -0.01346409      -0.00784153      -0.00913832
C        3.61968843       5.96875720       3.89414692       0.00177228       0.00216976       0.01850064
C        5.45678514       1.24223709       4.31472125       0.00293416       0.00522971      -0.00080173
C        2.38212630       6.85320739       3.84764894      -0.02108660      -0.01498586      -0.00301572
H        5.09418740       3.73202241       3.16622923      -0.00623386       0.00050985      -0.01173654
H        5.19091826       3.92409157       4.90387365      -0.01464459      -0.00253779      -0.00306255
H        2.72854303       4.35338516       5.00049288      -0.01232585      -0.00709989      -0.00102767
H        2.62565493       4.16785758       3.26176837       0.00265910      -0.00543486       0.00898182
H        3.64165595       1.98498127       5.20561886      -0.00359082      -0.00613788      -0.00082144
H        3.55107466       1.78569349       3.46878010      -0.00160091      -0.00561134       0.00429949
H        4.27016920       6.29390995       4.71292316      -0.01595411      -0.00997563      -0.00310227
H        4.20367822       6.10230062       2.97717246      -0.00620291      -0.00183603      -0.01070419
H        6.02605182       1.33777904       3.38665351      -0.00410020       0.00090735       0.00151718
H        5.20736337       0.18725856       4.44430131      -0.00207940      -0.00420523      -0.00120313
H        6.11537681       1.53217008       5.13774880      -0.00433122      -0.00111414      -0.00238912
H        1.71726313       6.55796839       3.03300842      -0.00835790      -0.00336429       0.00728409
H        1.81604663       6.78421717       4.77924785      -0.00992185      -0.00468001       0.00273688
H        2.64425697       7.90087560       3.69789756      -0.01123277      -0.00112829       0.00505832
C        9.79440217      11.45435782      12.15101714       0.00370741       0.01313102      -0.00241879
C        8.34904179      10.99431860      12.03032376       0.00315145       0.00195730      -0.00543120
C       10.78599961      10.30036288      12.25956826       0.00578590       0.01043326      -0.00259700
C        7.31974128      12.11348472      11.94530263       0.00158121       0.00566471      -0.00313907
C       12.22076524      10.76617866      12.44670678       0.00329298       0.02243996       0.00573725
C        5.89988575      11.56444721      11.95878239       0.00333080      -0.00356305       0.00212165
H       10.06139122      12.08227190      11.29341508       0.00149477       0.01208706       0.00004816
H        9.90093314      12.10126790      13.03330644      -0.00127742       0.00734299      -0.00158456
H        8.10505814      10.36189255      12.88721238       0.00579843       0.00381051      -0.00690684
H        8.24450033      10.34937083      11.15007372       0.00715633       0.00749618      -0.00531986
H       10.49671541       9.65687025      13.09729531       0.00508697       0.01007217      -0.00695726
H       10.70139846       9.67295957      11.36410501       0.01256701       0.01675488      -0.00444648
H        7.45714194      12.80403666      12.78509590       0.00254001       0.00391282      -0.00701445
H        7.49110868      12.70166396      11.03718313      -0.00341890       0.00065155      -0.00533226
H       12.55316191      11.37906226      11.60717657       0.00681531       0.01782656       0.00847058
H       12.91008358       9.92660070      12.54524693       0.00683953       0.01884149       0.00960991
H       12.33587205      11.39607551      13.33057233      -0.00328580       0.01702313       0.00591281
H        5.76688141      10.82563955      11.16713815       0.00072080      -0.00246586       0.00787897
H        5.69024564      11.06666798      12.90704807       0.00616322       0.00497743       0.00540167
H        5.14834094      12.34105385      11.82168029      -0.00006326       0.00002608       0.00126989
C       11.69128000       7.06096221       7.14753869      -0.00132334       0.00094825      -0.00333309
C       10.46645874       7.93610324       7.38993637      -0.00782216      -0.00201173      -0.00409739
C       11.34130188       5.70853175       6.54188130      -0.00648075      -0.00073734      -0.00566289
C       10.78823276       9.31132682       7.96400887      -0.00342405       0.00029686      -0.00302887
C       12.54459257       4.80267178       6.32588155      -0.00074568       0.00333720      -0.00477972
C        9.54659992      10.15881440       8.20366885      -0.00937733      -0.00455713      -0.00489592
H       12.39170669       7.58276747       6.48443884      -0.00503621       0.00023670      -0.00227325
H       12.22438242       6.90704926       8.09328555      -0.00540538      -0.00066233      -0.00434512
H        9.78094830       7.41473024       8.06830164      -0.00368567      -0.00085402      -0.00445840
H        9.91919342       8.06142384       6.44696797      -0.00435880      -0.00135430      -0.00298390
H       10.61918856       5.20795336       7.19501730      -0.00277629      -0.00023791      -0.00646788
H       10.82743592       5.87168864       5.58892378      -0.00319844       0.00094899      -0.00436500
H       11.34366007       9.19440824       8.90116962      -0.00682606      -0.00050234      -0.00409374
H       11.46406956       9.83588438       7.28004949      -0.00685367      -0.00050552      -0.00261307
H       13.28124024       5.27443911       5.67189039      -0.00415614       0.00175662      -0.00456807
H       12.25715616       3.85376945       5.86930971      -0.00353283       0.00065146      -0.00803837
H       13.04062100       4.58025892       7.27113834      -0.00416896       0.00025759      -0.00685847
H        8.96167673      10.25903768       7.28751303      -0.00424108       0.00011262      -0.00413401
H        8.89656746       9.70366664       8.95257914      -0.00775752      -0.00473765      -0.00770117
H        9.79955073      11.16222390       8.55202032      -0.00770231      -0.00205119       0.00020466
C        4.18709353       6.54130198       9.24748782       0.00160430       0.00825673      -0.00005385
C        5.54966530       6.33751769       9.89694476       0.00321437       0.00089002       0.00266662
C        3.28659160       5.32700828       9.44010679       0.00348462       0.00173372      -0.00054958
C        6.50307759       7.51772802       9.77619778       0.00223003       0.00677586       0.00478896
C        1.92396614       5.44712730       8.77721938       0.00471938       0.00779521      -0.00716208
C        7.86114740       7.21580692      10.39306571       0.00160637      -0.00362313       0.00556555
H        3.70260512       7.43088419       9.66749635       0.00278293       0.00336325       0.00259246
H        4.31461816       6.73964791       8.17587260       0.00313370       0.00756777       0.00284496
H        6.02385745       5.45265560       9.45628468       0.00204079       0.00631526      -0.00044346
H        5.40868532       6.10222083      10.95829253       0.00166965       0.00113450      -0.00011539
H        3.80135723       4.44171617       9.05066869       0.00390561       0.00600609      -0.00094578
H        3.15882482       5.14737444      10.51209551      -0.00012290       0.00354479      -0.00337139
H        6.62131808       7.78397843       8.72027159       0.00295714       0.00770479       0.00763050
H        6.06050243       8.39160204      10.26532187       0.00407027       0.00173354       0.00865239
H        1.36987544       6.30646052       9.15919399       0.00331782       0.00271167      -0.00731149
H        1.32058344       4.55630816       8.95886687       0.00409876       0.00241910      -0.00777575
H        2.01707837       5.57320089       7.69611164       0.00754852       0.00486160      -0.00441898
H        7.75725400       6.95971642      11.44752677       0.00184057      -0.00684690       0.00150713
H        8.33317151       6.36524508       9.89581250       0.00183994       0.00394502      -0.00057022
H        8.54618286       8.06142832      10.32561061       0.00345537       0.00155751       0.01025648
C        0.86052101      10.86738838       6.33197043      -0.00417183      -0.00241053      -0.00158769
C        0.94155023      10.78712130       7.85135676      -0.00172141       0.00342941       0.00117767
C        0.89759273      12.28710622       5.77862392      -0.01140039       0.00104854      -0.00002781
C        1.06909733       9.35948386       8.36944632       0.00331796       0.00066689       0.00015466
C        0.76752768      12.32482616       4.26059618      -0.01048312      -0.00384196      -0.00136235
C        1.12173335       9.28807098       9.88677216       0.00375235       0.00789002       0.00232273
H        1.68317954      10.29432684       5.89193431      -0.00147676       0.00399679       0.00035319
H       -0.05837050      10.37306224       5.99185329      -0.00055209      -0.00517125       0.00094087
H        0.04956604      11.25023315       8.29064833      -0.00263047      -0.00109356      -0.00012212
H        1.79042130      11.38049143       8.20761082      -0.00421804       0.00403658      -0.00267360
H        0.10056695      12.87929691       6.24383180      -0.01559773      -0.00562687      -0.00232221
H        1.83612948      12.76697453       6.07543308      -0.01548624       0.00449252      -0.00056059
H        0.22433918       8.77294569       8.00434963       0.00626475      -0.00123402       0.00307468
H        1.96200106       8.89097032       7.94129078       0.00459784       0.00630867       0.00223316
H        1.58605161      11.79120367       3.77445418      -0.01004303      -0.00106190       0.00035024
H        0.78271553      13.33891702       3.85215338      -0.00852916      -0.00140044      -0.00236966
H       -0.15210838      11.81781337       3.94231361      -0.00919241      -0.00085313      -0.00275443
H        1.99704012       9.81051416      10.27902880      -0.00198208       0.01491322       0.00017986
H        0.24222742       9.75967970      10.32385563       0.00006367      -0.00513811       0.00099567
H        1.15875161       8.25902996      10.24799083       0.01671702       0.00488283       0.00278808
C        5.21484527      10.56519131       5.91426934       0.00718379       0.00621217      -0.00588712
C        4.36765974      10.49937255       4.64984665      -0.00378186       0.00211301      -0.00316823
C        4.36914121      10.83921328       7.14822479       0.00310791       0.00909442      -0.00404944
C        5.16782653      10.22671631       3.38709854      -0.00107217      -0.00066020      -0.00590195
C        5.15199778      10.94189283       8.44492464       0.01482359       0.01168719      -0.00838572
C        4.32376023      10.18301443       2.12279953      -0.01379919       0.00100711      -0.00017503
H        5.76041717       9.62178125       6.04465254       0.00543378       0.00981009      -0.00497873
H        5.97643867      11.34711960       5.80612934       0.00051196       0.00784069      -0.01039229
H        3.81939046      11.44245557       4.53749855      -0.00260717      -0.00178218      -0.00360770
H        3.60507195       9.72148346       4.77119916       0.00338718       0.00013500       0.00135183
H        3.80199740      11.76170298       6.98847918       0.00536317       0.00659612      -0.00437087
H        3.62545927      10.04324799       7.24065763       0.00862812       0.00856209      -0.00012340
H        5.93711560      10.99796783       3.28479714      -0.00555834      -0.00010180      -0.00941533
H        5.70373770       9.27914090       3.50397380      -0.00437307       0.00147870      -0.00749643
H        5.70918403      10.02435955       8.64049861       0.01200468       0.01487766      -0.00709242
H        4.48415091      11.11058811       9.29083970       0.01242885       0.01395493      -0.00390635
H        5.86854333      11.76622318       8.42053417       0.00884530       0.01261836      -0.01170009
H        3.53226169       9.43504835       2.19919753      -0.01002987       0.00159566       0.00317993
H        3.84957872      11.14659554       1.92851722      -0.00971963      -0.00093174       0.00035577
H        4.92999549       9.92868746       1.25234379      -0.01424849      -0.00199495      -0.00572385
C        5.74960984       3.09166267      12.15210427      -0.00668059       0.00331652       0.01355194
C        4.87454764       1.85593331      11.99485266       0.00780095      -0.01906151      -0.02125202
C        7.18675018       2.76378445      12.54048108       0.00076941      -0.01483482       0.00613733
C        3.43144799       2.15728531      11.60755326      -0.00913802      -0.01496047       0.02033080
C        8.07505423       3.99548100      12.62167040      -0.00452954      -0.00296637       0.00363339
C        2.61583162       0.90320758      11.33283373       0.01867113      -0.01747319      -0.02389559
H        5.75186256       3.65161208      11.21005809       0.00163071      -0.00784528       0.00382611
H        5.31291420       3.76424721      12.90075088      -0.00013576      -0.00836520      -0.00116608
H        4.88739731       1.27600164      12.92476704      -0.00287033      -0.01354286       0.01491493
H        5.32244864       1.20905266      11.23009561      -0.00540854      -0.00007908       0.00520739
H        7.19008173       2.23996557      13.50254784      -0.00543550      -0.00266410       0.00711280
H        7.60156290       2.06030824      11.81222909      -0.00247236      -0.00866771       0.01375708
H        2.95028575       2.73210312      12.40514482       0.00906320      -0.01897170      -0.00805962
H        3.43129347       2.79700285      10.72101662      -0.00230366       0.00387318      -0.00300136
H        8.08545035       4.53180313      11.67094975       0.00415351      -0.01486603       0.00274789
H        9.10632644       3.74267772      12.87357617       0.00022978      -0.01072647       0.01058650
H        7.70742283       4.68859063      13.38085316      -0.00170931      -0.00561300      -0.00246553
H        3.05083734       0.32920241      10.50906075       0.00228594       0.00440749       0.00363517
H        2.56553198       0.26582287      12.21453927       0.00069445      -0.02273317       0.00547215
H        1.58665771       1.14801850      11.07439360      -0.00766146      -0.01071351      -0.01091124
C        7.96726313       3.96477479       7.60155598      -0.00329027      -0.01222502       0.00460297
C        7.84908475       4.56312970       6.20902916      -0.00111920      -0.01232007       0.00047517
C        8.82959676       2.71223003       7.66529060      -0.00140405      -0.01504782      -0.00134158
C        7.07350869       5.87297321       6.18757186      -0.00024652      -0.00790475       0.00866517
C        8.93495155       2.15347362       9.07650518      -0.00161316      -0.01145852       0.00172204
C        7.11643956       6.54696949       4.82802226       0.00486441      -0.00541244       0.00780225
H        8.38572726       4.71990848       8.27860101      -0.00181992      -0.01541230       0.00253616
H        6.96697555       3.73821178       7.99042374      -0.00124845      -0.01346059       0.00178859
H        7.37493196       3.84270838       5.53282095      -0.00393355      -0.00796926       0.00289851
H        8.85008750       4.73804852       5.80431633      -0.00290984      -0.01234991       0.00313568
H        8.41236039       1.95278979       6.99497475      -0.00377573      -0.01335111       0.00221756
H        9.82892132       2.94505042       7.28081544      -0.00384900      -0.01415963      -0.00112850
H        6.03669202       5.69327812       6.49440511       0.00025097      -0.00840574       0.00397736
H        7.49721262       6.54960044       6.93743651       0.00020091      -0.01393917       0.00924486
H        9.35900030       2.89507757       9.75781291       0.00226043      -0.01449755      -0.00148688
H        9.56313772       1.26269149       9.11993694       0.00105979      -0.01509054      -0.00153397
H        7.94736215       1.88770311       9.45977108       0.00233048      -0.01299348       0.00242055
H        8.14314733       6.80367495       4.56213368       0.00375855      -0.00464786       0.01193638
H        6.72918095       5.89206395       4.04417835       0.00330663       0.00166860       0.00703634
H        6.52920949       7.46697140       4.81058810       0.00501695      -0.00104025       0.01325301
C        8.47932420       9.85414123       2.21762612       0.00443086       0.00283512      -0.00206763
C        8.72540989      10.31459938       3.64966677       0.00576765       0.00330314       0.00149542
C        8.28345370       8.34972297       2.08675346       0.00737298      -0.00199685       0.00686863
C        8.78472020      11.83323103       3.76567531       0.00410855       0.00725207      -0.00866964
C        8.00650324       7.88261950       0.66660992       0.00377323       0.00161926       0.00416589
C        9.07853300      12.33879692       5.17159904       0.01495016       0.00768149      -0.00900978
H        7.59418502      10.36679417       1.82282547       0.00461391      -0.00227839       0.00051812
H        9.31919603      10.17476943       1.58880324       0.00304434      -0.00008415      -0.00044048
H        9.66313946       9.88212771       4.02011059       0.00587627       0.00796153      -0.00125462
H        7.93423571       9.93472242       4.30464560       0.00758702       0.00679655       0.00023083
H        9.16568552       7.83333269       2.48005036       0.00782534       0.00295718       0.00258110
H        7.45085507       8.05101174       2.72606503       0.00972617       0.00047085       0.00696921
H        9.54096191      12.19102994       3.05355587      -0.00159569       0.00278392      -0.01378217
H        7.83870197      12.25908031       3.41539784       0.00233626       0.00292628      -0.00093076
H        7.10863243       8.35689899       0.26183894       0.00394319      -0.00336097       0.00792656
H        7.85312541       6.80371349       0.63151671       0.00376766      -0.00388271       0.00821756
H        8.83153524       8.12019505      -0.00660349       0.00162105      -0.00308501       0.00463162
H        8.27898001      12.04563784       5.85513658       0.01926172       0.01360492      -0.00471492
H       10.00609137      11.91597125       5.56764678       0.01586904       0.01161128      -0.01557592
H        9.15039892      13.42893914       5.21499811       0.01582096       0.01167813      -0.01381331
