198
Lattice="13.19806069179259 0.0 0.0 0.0 13.19806069179259 0.0 0.0 0.0 13.19806069179259" Properties=species:S:1:pos:R:3:forces:R:3 energy=-337423.03125 stress="-0.00034737001988105476 0.000463907970697619 0.00015995729336282238 0.000463907970697619 -0.0004538638750091195 0.00021360901882871985 0.00015995729336282238 0.00021360901882871985 -4.463553523237351e-06" pbc="T T T"
La      11.58570484      13.76388973      -0.65710828      -0.00436139       0.01321840      -0.00016940
P       11.81547796       7.11872557       1.88156874       0.02850364      -0.01123226       0.01257285
O       10.49182103       7.56929459       2.49750741      -0.01639819       0.00221652      -0.00042927
O       12.44284364       8.48426738       1.14335947      -0.00839072       0.00165665      -0.00693852
O       12.85712779       6.67865812       2.87048272      -0.01833797       0.01391691      -0.01205277
O       11.58935064       6.15322667       0.69516609       0.00240458      -0.00299978      -0.00023913
O        3.40361908       8.89785934       5.06245857       0.00742684       0.00274551      -0.01224416
C        2.74732100      10.08462796       5.54627452      -0.00368431      -0.00566697      -0.00552888
C        3.78511898      11.16425449       5.80473925      -0.00969535      -0.00111336      -0.00160778
C        1.66671728      10.53337092       4.57931965      -0.00624293      -0.00844209      -0.00420839
H        2.29289594       9.80748824       6.50037413      -0.00342733      -0.01105417      -0.00631773
H        3.31019770      12.08338793       6.15404236      -0.01445498      -0.00521286       0.00296315
H        4.48245208      10.82741205       6.56915835      -0.00729141      -0.00043529      -0.00360821
H        4.33804375      11.39394010       4.89231198      -0.01200832       0.00477499      -0.00142780
H        1.13806560      11.39999616       4.98317706      -0.01084416      -0.01257604      -0.00141814
H        0.94187230       9.74020709       4.38858761      -0.00292048      -0.01144004      -0.00569586
H        2.11336044      10.82812620       3.62441841      -0.00786991      -0.00394829      -0.00359554
H        3.16959061       8.78665660       4.13538614      -0.03077196      -0.02167059       0.00054932
O       11.10120529      11.77016437      -0.51160162      -0.00458524       0.01179549      -0.00323859
C       10.68831310      11.70222466       0.86771449       0.00060050       0.00766005      -0.00208305
C        9.65042246      10.62431558       1.08030530       0.00003394       0.00792152      -0.00219827
C       11.92370102      11.54992302       1.74051883       0.00324413       0.00176600      -0.00680718
H       10.18710644      12.69142245       1.11813049       0.00297980       0.00671349       0.00408434
H        9.19000110      10.74077711       2.06185203       0.00681908       0.00204254       0.00164340
H        8.87489700      10.68813678       0.31552654      -0.00501893       0.01406204       0.00356393
H       10.11174480       9.63566182       1.05592388      -0.00128630       0.00780609      -0.01165448
H       11.66918693      11.62556187       2.79760403       0.00656915      -0.00250074      -0.00571746
H       12.66973225      12.33538171       1.51918467       0.00345016       0.00178069      -0.00627312
H       12.36966933      10.56680837       1.56407365       0.00093610       0.00219813      -0.01232871
H       12.02142016       8.56800761       0.27322201       0.00205047      -0.00488375      -0.00498590
O       12.32784719       2.03995222       1.26374090      -0.00068063       0.01548922      -0.00304539
C       11.62291596       2.33951508       2.56724349      -0.00416940       0.00550622      -0.00232279
C       12.22135347       1.49601535       3.66618569      -0.00167847       0.00156096      -0.00569499
C       11.72427321       3.81568958       2.80006172      -0.01173367       0.00346994       0.00783402
H       10.58994399       2.03412811       2.37820466      -0.00280055       0.00113299      -0.00500883
H       11.75782404       1.78556541       4.61121909      -0.01078434      -0.01121455      -0.00619349
H       12.05950739       0.42972922       3.52000194       0.00976702       0.00137556      -0.01626913
H       13.29043399       1.69161550       3.75805042      -0.00434889       0.01209418       0.00216798
H       11.16958291       4.10238114       3.69293259      -0.01798809      -0.00450398       0.00598428
H       11.35231974       4.40915788       1.95902661      -0.01125046       0.00710481       0.00775835
H       12.75747409       4.13077216       2.96909949      -0.01451010       0.00845820       0.01279289
H       12.87471368       2.82220598       1.10244917      -0.01050305       0.02132452      -0.00252913
O        6.66547649       1.48021503       1.53653853       0.00128239      -0.00661561      -0.00373140
C        7.78742264       1.80050169       2.34756717      -0.00105435      -0.00386450      -0.00214112
C        7.71318405       3.26848159       2.73680616      -0.00732681      -0.00507075       0.00201760
C        7.89744902       0.88676065       3.55673265       0.00278558      -0.00600025      -0.00399405
H        8.69377610       1.65193487       1.72942067      -0.00032383       0.00190812      -0.00230083
H        8.62886870       3.60646311       3.22764692      -0.00759219      -0.00201148       0.00049201
H        7.54825601       3.89705682       1.86278101      -0.01286311      -0.00395218       0.00397961
H        6.87376378       3.42877516       3.41457489      -0.00615676      -0.01116318       0.00488742
H        8.77439110       1.14310475       4.15622896       0.00212434      -0.00416037      -0.00407760
H        7.97191464      -0.16027333       3.25838729       0.00615717      -0.00523289      -0.00622670
H        7.01379155       0.98908480       4.18978201       0.00274648      -0.01051149      -0.00325417
H        6.25808080       0.64474887       1.84513166      -0.00069074      -0.00513526      -0.00070418
O        3.26593362       0.51866510       3.65258261       0.00275272       0.00330809      -0.00381009
C        3.61752504       1.85630545       3.22685440       0.00220923       0.00399843      -0.00229587
C        3.39867726       2.02107461       1.73741790       0.00000186       0.00652280      -0.00167018
C        2.87893726       2.89906540       4.03973027       0.00278544       0.00206387       0.00054246
H        4.68857153       1.91737528       3.43116201       0.00263131       0.00366409      -0.00368555
H        3.77896999       2.98840658       1.41012525      -0.00238582       0.00805199      -0.00006481
H        3.92494451       1.24357508       1.18784851       0.00065655       0.00849363      -0.00391702
H        2.32971464       1.97073526       1.50062129      -0.00025104       0.00526336      -0.00008365
H        3.19963396       3.89754637       3.73681234      -0.00000347       0.00288826       0.00015598
H        3.05690819       2.77551654       5.10793905       0.00597894       0.00125673      -0.00005020
H        1.80373862       2.84223464       3.85353861       0.00251494      -0.00025380       0.00339856
H        2.32158864       0.39305287       3.50687715       0.00214761       0.00453418      -0.00202014
O        4.61501547       4.40347911       6.90980351      -0.00338399      -0.01192939       0.00812395
C        5.68572543       4.18750422       5.97014523      -0.00266653      -0.00658230       0.00778204
C        6.55501807       5.42000399       5.82376356      -0.00580171      -0.00438547       0.00584215
C        6.45608128       2.99105100       6.48250564       0.00077212      -0.00367981       0.00971544
H        5.24949770       3.94453217       4.99281201      -0.00108826      -0.00850464       0.00767756
H        7.34304022       5.26591016       5.08544592      -0.00807537      -0.00452162       0.00344366
H        5.96723822       6.28079083       5.49750692      -0.00796627      -0.00565520       0.00606377
H        7.03209819       5.66137456       6.77392613      -0.00250532      -0.00247016       0.00373022
H        7.29930275       2.77411217       5.82764014       0.00056633      -0.00421631       0.00923018
H        5.81638659       2.10897875       6.53605885       0.00212616      -0.00432092       0.01338497
H        6.84267860       3.20564253       7.48066764       0.00131189       0.00057789       0.00846472
H        4.14973976       5.20421067       6.64607609      -0.00900004      -0.01353499       0.00808755
O       12.05086950       0.31874096      10.07311969       0.01418930      -0.00690377       0.00582588
C       12.94151904       1.21433496       9.30216771       0.01033419      -0.00370215       0.00511175
C       12.37269884       1.44954933       7.92751003       0.00761493      -0.00281049       0.00629202
C       13.06823022       2.46035081      10.14737265       0.00638575      -0.00424820       0.00697540
H       13.90624504       0.70447914       9.23129302       0.01228401      -0.00022490       0.00382444
H       13.02946396       2.11756523       7.37211786       0.00774395      -0.00414073       0.00474115
H       12.28350248       0.51016903       7.37595264       0.00425388      -0.00246200       0.00611054
H       11.40155045       1.94146028       7.98040015       0.00870799      -0.00073566       0.00840405
H       13.90576345       3.07517431       9.81332402       0.00406942      -0.00105655       0.00549822
H       13.31306562       2.19870611      11.19464833       0.00966994      -0.00405898       0.00604993
H       12.15656999       3.06160967      10.11702422       0.00508431      -0.00640745       0.00682265
H       11.66604206      -0.35546508       9.50133342       0.03995427      -0.02734089       0.01192540
O        9.39745078       1.14355945      11.69633609      -0.00830531      -0.00091103       0.00572455
C        9.07717465       2.54889375      11.33578888      -0.00461564      -0.00145310       0.00167153
C        8.72175105       2.61955298       9.87235745       0.00089678      -0.00448100       0.00005445
C        8.01639321       3.04434701      12.27857416      -0.00681096       0.00503090      -0.00356027
H       10.02199164       3.07830780      11.52083700      -0.00403823      -0.00307827       0.00370291
H        8.55058611       3.66075586       9.59817615       0.01092413      -0.00420645      -0.00509974
H        9.52181713       2.22796122       9.24409810      -0.00042754      -0.01494961       0.00488707
H        7.80879374       2.05656915       9.66648357      -0.00324877       0.00240497      -0.00004451
H        7.67938517       4.03256338      11.97894699      -0.00394885       0.00402871      -0.01063427
H        8.40948707       3.11674299      13.28915662      -0.00991860       0.01018518      -0.00283965
H        7.15936798       2.37106853      12.29858398      -0.00769106       0.00634299      -0.00261135
H        8.63548053       0.57411775      11.52038127      -0.00166774      -0.00486368      -0.01264846
O       12.22070485       4.64360881       7.66816041      -0.00160831      -0.00111994       0.02709034
C       11.48338388       5.72072359       7.02588510       0.00458655      -0.00725332       0.00838342
C       10.03052028       5.62772909       7.44514284       0.00159138      -0.00942427      -0.00351566
C       12.10871025       7.05697155       7.36224430      -0.00192782      -0.00293922       0.00505263
H       11.54979379       5.57084886       5.94478628       0.01395730      -0.01257877       0.00908935
H        9.45793681       6.36576406       6.88438890       0.00403811      -0.01653907      -0.01532939
H        9.63130213       4.63639469       7.21764686       0.00838322      -0.01343402       0.00169718
H        9.92941398       5.80865033       8.51661529      -0.00742923      -0.00101835      -0.00572252
H       11.53421411       7.85088081       6.88758201       0.00070415      -0.00776994      -0.00653063
H       13.12940378       7.10854000       6.97896572       0.00118402      -0.00278101       0.01236421
H       12.12259701       7.21698214       8.44485686      -0.01060574       0.00409393       0.00389898
H       12.91235225       5.06044242       8.18943617       0.03665840      -0.00058408      -0.02593279
O        4.04261529       6.23038952       2.23322716      -0.01872015      -0.01074962       0.01110858
C        3.05124854       6.66332751       1.27709500      -0.00833178      -0.00077724       0.00437659
C        2.05102858       5.55093563       1.00788354      -0.01349729       0.00677723      -0.00662160
C        2.36412092       7.92636569       1.74977635      -0.00261110       0.00311160       0.00402781
H        3.63127000       6.86489076       0.37059193       0.00023592      -0.00116704       0.00954670
H        1.35730492       5.82594351       0.21046511      -0.00491318       0.01233784      -0.01237187
H        2.58428029       4.63947245       0.73652134      -0.01660340       0.00362911      -0.00364666
H        1.43744149       5.39434506       1.89872604      -0.02279650       0.01007529      -0.01184279
H        1.63490992       8.27736783       1.01926937       0.00482830       0.01050583       0.00002623
H        3.10053682       8.70944834       1.93477947       0.00164898      -0.00298811       0.01185520
H        1.76803371       7.71017939       2.64246852      -0.01169290       0.00310060      -0.00131005
H        3.64293756       6.33896338       3.10238871      -0.02366798      -0.00664585       0.00830095
O        7.79136042      11.57751687       9.75905166       0.01509234       0.01630870       0.01623738
C        6.94555466      11.53453238      10.91403440       0.00472739       0.00986224       0.00896277
C        6.14602673      12.81762745      11.02698830      -0.00804150       0.00271797       0.00072772
C        6.02551230      10.32817111      10.91341870       0.01623675       0.00126559       0.00313593
H        7.64662468      11.44947502      11.75223685      -0.00153801       0.01787720       0.01525059
H        5.60173661      12.87659771      11.96969680      -0.01538117      -0.00167551      -0.00323300
H        6.78484749      13.70009415      10.95511704      -0.01540041       0.00841023       0.00549718
H        5.42380369      12.88296244      10.20982851      -0.00268510      -0.00530740      -0.00493945
H        5.42959919      10.30510331      11.82709026       0.01011435      -0.00289438      -0.00076690
H        6.59235519       9.40174196      10.84376126       0.02582575       0.00648847       0.00873316
H        5.33964325      10.39080055      10.06401379       0.02160782      -0.00667606      -0.00182363
H        7.22823193      11.52508410       8.97818014       0.02215362       0.00916726       0.01134032
O        5.33222742      12.43800086       2.30080511       0.00125819      -0.00149846       0.00287229
C        5.10196386      11.39252517       1.34370135       0.00223532      -0.00105119       0.00226116
C        5.49428009      10.05307266       1.93356753       0.00120713      -0.00128692       0.00250143
C        3.67363206      11.43201071       0.82643453       0.00281423      -0.00077513       0.00086193
H        5.78570094      11.61683462       0.51782495       0.00301352      -0.00071432       0.00288302
H        5.33810441       9.24325937       1.21804576       0.00159291      -0.00072570       0.00181429
H        6.54457840      10.06139177       2.21734114       0.00112657      -0.00156358       0.00294122
H        4.90919815       9.83756384       2.82949796       0.00056562      -0.00147072       0.00199011
H        3.49407789      10.63458962       0.10398468       0.00398875       0.00038294      -0.00053933
H        3.45442491      12.38889891       0.34913798       0.00293250      -0.00001658       0.00223178
H        2.96624061      11.28603917       1.64632667       0.00214513      -0.00239276       0.00004798
H        4.50867503      12.65409778       2.77854005      -0.00008878       0.00109565      -0.00035153
O        2.97671724       3.81490150       9.90271823      -0.00317341       0.00784720      -0.01344615
C        3.58551708       3.56895733      11.17835062      -0.00947535       0.00397229      -0.01111560
C        4.25683677       2.20926211      11.20295119      -0.00982153       0.00361854      -0.01175915
C        4.55876534       4.66815929      11.56510451      -0.01105064       0.00280225      -0.00361557
H        2.74767836       3.57621385      11.88231690      -0.01249859       0.00237353      -0.01493153
H        4.71556069       2.01953455      12.17564593      -0.01375243       0.00147648      -0.01030466
H        3.54759250       1.40759485      10.98720486      -0.00904663       0.00413678      -0.01616284
H        5.04640742       2.17532618      10.44758097      -0.00683659       0.00497104      -0.00862831
H        4.96050528       4.49316325      12.56563876      -0.01465644      -0.00073369      -0.00280744
H        4.07032632       5.64077887      11.55492059      -0.01162359       0.00258593      -0.00176287
H        5.39625828       4.69272428      10.86217162      -0.00853962       0.00568330      -0.00048532
H        3.66754201       3.84116419       9.22710533      -0.00037646       0.00549003      -0.01087581
O        3.89414158       8.97056154       8.32304769       0.01004130       0.01342180       0.00632352
C        4.85019066       7.96809298       7.93078353       0.00415277       0.00874029       0.00138669
C        6.18655987       8.60961615       7.59560174       0.00520045       0.00486845      -0.00186246
C        4.96389316       6.91147819       9.00935797       0.00391575       0.00773770       0.00050920
H        4.43582658       7.53471049       7.01625119       0.00067347       0.00986794       0.00241172
H        6.90944764       7.85849209       7.27674339       0.00053229       0.00330417      -0.00825061
H        6.07206941       9.32633022       6.78317464       0.00402725       0.00849222       0.00131318
H        6.59898634       9.11715683       8.46822830       0.01052476       0.00015314      -0.00167327
H        5.66670066       6.12988983       8.72114349      -0.00053006       0.00479171      -0.00275373
H        3.99859190       6.43861817       9.19901120       0.00273332       0.01103956       0.00349785
H        5.32142328       7.35830349       9.94294712       0.00926789       0.00538678      -0.00046960
H        3.84885506       8.96143832       9.28239290      -0.00838636      -0.00655031       0.00411408
O       11.00056240       7.73696245      11.98507372       0.02247727      -0.01383960      -0.01080877
C        9.64971468       7.55273740      11.63795552       0.01737177      -0.00087413      -0.00085568
C        9.34515903       8.35572117      10.38615859       0.01973988       0.00599092       0.00094205
C        9.37909636       6.06533482      11.44109008      -0.00124022       0.00335813      -0.00137912
H        8.98921044       7.90242176      12.45156332       0.02656823       0.00599808       0.00348109
H        8.33013451       8.15683576      10.03327927       0.01512399       0.01506292       0.00540040
H        9.44253401       9.42628617      10.57076867       0.02957941       0.00325558       0.00369426
H       10.03964885       8.08121108       9.58990947       0.01253781       0.00013784      -0.00158724
H        8.35262736       5.89241307      11.10680787      -0.00447360       0.01481339       0.00507167
H        9.55654191       5.54752062      12.38523012      -0.00150087       0.00086585      -0.00173676
H       10.07237469       5.67340178      10.69086977      -0.00886498      -0.00446719      -0.00543116
H       11.22424118       7.03244471      12.70083921       0.01605321      -0.01296460      -0.00553296
O        9.84627686       7.59013724       4.96858089       0.00153181      -0.00580120      -0.00656861
C        9.30845993       8.87226343       5.14808734       0.00224587      -0.00365257      -0.00139780
C       10.35346560       9.95092048       4.85397298       0.00310767      -0.00526685      -0.00102232
C        8.06571389       9.06597508       4.28307591       0.00281769      -0.00196572      -0.00065428
H        9.01592693       8.95305699       6.20754284       0.00317234      -0.00539182      -0.00099975
H        9.92363030      10.95365813       4.94323528       0.00344858      -0.00467426      -0.00014948
H       11.19581045       9.86933138       5.54321686       0.00318129      -0.00495132      -0.00001097
H       10.72787598       9.79784356       3.84099502       0.00347095      -0.00426430      -0.00010225
H        7.64844143      10.07138491       4.39071765       0.00251178      -0.00174846       0.00236696
H        7.29340321       8.34398757       4.55157644       0.00205888      -0.00234435      -0.00137913
H        8.33814984       8.89188329       3.24099238       0.00125474       0.00061046      -0.00052318
H       10.15774515       7.52379118       3.99531786      -0.00299285      -0.00436662      -0.00135566
