191
Lattice="13.2475626237221 0.0 0.0 0.0 13.2475626237221 0.0 0.0 0.0 13.2475626237221" Properties=species:S:1:pos:R:3:forces:R:3 energy=-394470.125 stress="-0.0020296897273510695 -0.0002985868777614087 0.00016405602218583226 -0.0002985868777614087 -0.0023784583900123835 0.00019002682529389858 0.00016405602218583226 0.00019002682529389858 -0.0014570384519174695" pbc="T T T"
La      13.13043592      12.23124180      -0.85725799      -0.00144997       0.00308301      -0.00724171
P        3.32328492      12.14888014      10.62896199       0.01716524       0.01439703      -0.01523317
F        3.26801105      10.89890377      11.51128107      -0.00743965      -0.01797938      -0.03869426
F        2.13731409      12.31665061       9.65754649       0.02950895       0.02764694      -0.02816880
F        0.24966568      10.17261188      12.04415058      -0.00835257      -0.00059202       0.00448953
F        4.34603308      13.29308592      10.78599777      -0.00834250      -0.00700080      -0.00678967
F        4.19991466      11.46723068       9.53888032       0.01623327       0.00849500      -0.00249761
F        2.42898876      12.93287658      11.76351477       0.01142204      -0.02850485      -0.02081853
P       11.14964360      11.65818012       8.90436183       0.00857608       0.01205744       0.00196793
F       12.65069622      11.65469565       8.56277149       0.00637758       0.00312846       0.01338840
F       10.39828990      12.84075981       9.54163111      -0.00961822      -0.00089812       0.00789928
F       10.79933146      12.20718580       7.46763135       0.02316231       0.02801944       0.00544840
F       11.49530117      11.12068917      10.38541988      -0.00597963       0.00154236       0.00178248
F       12.81875937      13.49885308      10.69178281       0.00154493      -0.01006287      -0.02001891
F       10.39114441      10.34852785       8.62430130       0.00519496       0.01527655      -0.01464552
P       11.92352925      11.20662802       4.32701288      -0.01430378      -0.01747186       0.00752307
F       10.56892999      11.92981170       4.40683731      -0.01583505      -0.02293527      -0.00514979
F       12.02091517       9.92613063       3.46682403       0.00140503      -0.03202695       0.02953440
F       11.75241398      13.06900161       0.51333429       0.01066181       0.02676214      -0.00863340
F       13.16456389      11.71093288       5.10902490      -0.02143186       0.00863534      -0.00345933
F       11.53121740      10.31503506       5.58884078      -0.01163889       0.00296599       0.02077514
F       12.36049302      12.08126656       3.08655191      -0.02508702      -0.03533214      -0.00949764
O       11.52943368       1.48605447       4.15762614      -0.00352028      -0.01267275      -0.00620845
C       10.26781728       2.70719317       2.57327197       0.00188279      -0.00167811      -0.00157249
C       11.69947322       3.24135054       2.58416327       0.00402264      -0.00801790      -0.00039668
C       10.20797687       1.99878010       3.91663333      -0.00096646      -0.00522631      -0.00378978
C       12.43852996       2.06783353       3.20889779      -0.00057710      -0.01240933      -0.00303602
H        9.51878031       3.49355339       2.49133177       0.00572014       0.00194745       0.00085241
H       10.13859322       1.98925149       1.75882994      -0.00096795       0.00143600      -0.00370999
H       12.07566537       3.50408749       1.59570870       0.00468902      -0.00775876       0.00005651
H       11.75744001       4.12633016       3.21945271       0.00798714      -0.00934792       0.00108612
H        9.94726615       2.70958919       4.70907839       0.00262988      -0.00610512      -0.00194764
H        9.50260004       1.16351985       3.94528924      -0.00479677      -0.00185108      -0.00600930
H       12.68261652       1.31829647       2.44635669      -0.00295065      -0.01092622      -0.00518852
H       13.34872600       2.35034762       3.74417537      -0.00012121      -0.01658653      -0.00163314
O        9.16246138      10.94130865       1.38188342       0.00316727      -0.00280182       0.00608224
C        7.52055244      12.66303577       1.60755432       0.01071396       0.00367075       0.01402882
C        6.86158673      11.28682751       1.68399726       0.00578332       0.00621506       0.01348722
C        8.93013122      12.34023755       1.10781094       0.00905418      -0.00049895       0.01148318
C        8.03984540      10.42531587       2.09598209       0.00366735       0.00128318       0.00953594
H        6.99547641      13.35513958       0.94746265       0.01195844       0.00622734       0.01575203
H        7.56191547      13.11784742       2.59899183       0.01409755       0.00213666       0.01451108
H        6.04733261      11.24278850       2.40513411       0.00669080       0.00808264       0.01475529
H        6.49123168      10.98332262       0.70220104       0.00257678       0.00901356       0.01386312
H        9.02656073      12.48491033       0.02692755       0.00822604       0.00272401       0.01214790
H        9.70693891      12.93423302       1.58798065       0.01191452      -0.00531927       0.01242828
H        8.20451273      10.50569236       3.18196945       0.00719791       0.00020121       0.00879198
H        7.93319881       9.36871910       1.83832255      -0.00111577       0.00202051       0.00901496
O        1.93279558       4.96759143      11.36814303       0.01539448      -0.00125325      -0.00888575
C        3.01425408       2.92814188      11.73259923       0.00216162      -0.00380045       0.00428197
C        1.58269910       2.61223013      11.30399351       0.00259012      -0.00069493      -0.00006980
C        2.83801149       4.33939169      12.26638897       0.00483254      -0.00243413       0.00044480
C        1.09890766       3.95980065      10.76693371       0.00483046       0.00157124       0.00083575
H        3.41498598       2.23647083      12.47351748      -0.00236654      -0.00478111       0.00620018
H        3.68069969       2.93377558      10.86692876       0.00453484      -0.00635135       0.00635955
H        1.49262414       1.82883295      10.55578550       0.00426250       0.00048083      -0.00125973
H        0.98568629       2.30909247      12.17203831      -0.00023565      -0.00155488      -0.00209671
H        2.41486099       4.30676501      13.28224023      -0.00351268       0.00172628      -0.00280273
H        3.75337556       4.93420849      12.29552664       0.00687948      -0.00640878       0.00614044
H        1.21716871       4.01729505       9.68041482      -0.00383259      -0.00001293      -0.00004160
H        0.05426592       4.16282848      11.01416164       0.00786972       0.00734326       0.00987397
O        4.16524318       0.06075428       4.73325847      -0.00523237      -0.01094782       0.00732321
C        4.79720753       2.31550762       4.70822152      -0.00561166      -0.01032352       0.00534517
C        3.27255887       2.26389036       4.63886631      -0.00502846      -0.01047152       0.00636220
C        5.15345586       0.93721648       4.18311249      -0.00520877      -0.01116383       0.00838946
C        2.98545815       0.82337211       5.05355408      -0.00425725      -0.00950927       0.00924353
H        5.24168600       3.12620391       4.13018327      -0.00597140      -0.01203528       0.00303431
H        5.12563923       2.41203488       5.74460367      -0.00587167      -0.00735535       0.00459874
H        2.77388781       2.98243456       5.28832305      -0.00572193      -0.00869545       0.00412336
H        2.93972105       2.44268222       3.61305533      -0.00589497      -0.01334943       0.00600991
H        5.10586381       0.91929611       3.08344758      -0.00302346      -0.01358511       0.00853866
H        6.13654333       0.57998616       4.49410870      -0.00599831      -0.01093303       0.01099601
H        2.80752741       0.74785253       6.13039882      -0.00116648      -0.00598512       0.00796282
H        2.12325129       0.39460567       4.53350022      -0.00599021      -0.01063566       0.01477322
O        9.99432045       5.48386088       4.32620118      -0.00767297      -0.00707048       0.01429224
C        8.48523430       7.20946575       4.91662050      -0.00510967       0.00137144      -0.00146675
C        9.71303083       7.81767375       4.23912769      -0.00016502      -0.00732982       0.00008458
C        9.02536403       5.84627287       5.32606193      -0.01349247       0.00011998       0.00628919
C       10.26252280       6.61685386       3.48673576      -0.00258264      -0.01326048       0.00828932
H        8.12098678       7.77649773       5.77246459      -0.00453411       0.00679728      -0.00486189
H        7.66651358       7.10604008       4.19845822      -0.00349800       0.00313286      -0.00335050
H        9.49247214       8.65888566       3.58509835       0.00589801      -0.00971557      -0.00506483
H       10.42921480       8.14687617       4.99215195      -0.00138043      -0.00703477       0.00109369
H        9.51949011       5.90045591       6.30082062      -0.02012119       0.00087990       0.00931746
H        8.26152326       5.06677444       5.37082921      -0.01742783       0.00400704       0.00308589
H        9.74140347       6.48925300       2.52705737      -0.00115910      -0.01684815       0.00808364
H       11.33562155       6.66042726       3.29187920      -0.00205773      -0.01757972       0.01042655
O       13.39562618       2.80701467       7.33626103       0.00725645       0.01898482      -0.00917008
C       11.12825365       3.46541222       7.34146571       0.00403321       0.00924158      -0.00501633
C       11.19002450       1.95133190       7.49204451       0.01067698       0.00978953      -0.00636113
C       12.49282450       3.76530657       6.75041820       0.00262183       0.01533887      -0.00577397
C       12.62973211       1.76019646       7.95594665       0.01256132       0.01336928      -0.00989407
H       10.31579024       3.81461029       6.70891730       0.00250132       0.00555402      -0.00496224
H       11.01872564       3.93927216       8.31756557       0.00189854       0.00847702      -0.00497788
H       10.46116200       1.57201168       8.20397360       0.01438378       0.00422492      -0.00533214
H       11.03283456       1.46488665       6.53000094       0.01137983       0.01018329      -0.00666550
H       12.47898279       3.62829650       5.66341116       0.00112103       0.01734987      -0.00637984
H       12.86043136       4.76887370       6.97404358      -0.00172544       0.01708823      -0.00471088
H       12.70796318       1.84264002       9.04520621       0.01481162       0.01092718      -0.01012397
H       13.06109424       0.80131355       7.65638722       0.01484166       0.01629001      -0.01378305
O       10.70172847       5.15334589      12.59660613       0.00477979      -0.00715488      -0.00103869
C        8.98310953       3.81661770      11.67222569      -0.00151643      -0.00100559       0.00261533
C        8.35763073       4.96239806      12.46804558       0.00409859      -0.00166663       0.00787178
C       10.39580707       3.79636051      12.23940325       0.00155950      -0.00559141      -0.00557190
C        9.51444388       5.94875388      12.51253343       0.00630409      -0.00461452       0.00574275
H        8.47088503       2.86258335      11.79444112      -0.00276177      -0.00014123       0.00307646
H        9.00551655       4.06091171      10.60676019      -0.00706394       0.00154707       0.00295976
H        7.46495318       5.38447459      12.00855060       0.00314189       0.00119053       0.01229602
H        8.09955941       4.62629077      13.47555447       0.00743705      -0.00326554       0.00808948
H       10.44819784       3.17239119      13.13652320       0.00656150      -0.00930923      -0.00841939
H       11.14541486       3.43890369      11.52845754      -0.00321648      -0.00224610      -0.01231188
H        9.54075874       6.55241937      11.59401869       0.00364599      -0.00231096       0.00721794
H        9.48868006       6.62921772      13.36557957       0.01135008      -0.00620845       0.00728679
O       10.96720507       6.47269266       8.33075944      -0.00110143       0.01204374      -0.00048354
C       12.25368412       7.57154436       9.93322383       0.01264137       0.00280237      -0.00603354
C       12.67591674       8.11358573       8.56627594       0.01536697      -0.00315043      -0.00783142
C       11.73025498       6.21384722       9.51388547      -0.00124697       0.00672778      -0.00161925
C       11.58320654       7.56703829       7.63573938       0.01271930      -0.00047594      -0.00725053
H       13.06381281       7.52802623      10.65790751       0.01403692      -0.00403907      -0.00805332
H       11.44247721       8.17052331      10.35746289       0.01932013       0.01115681      -0.00490408
H       12.76558651       9.19559697       8.52833650       0.01913390      -0.00336233      -0.01078059
H       13.64991062       7.69989129       8.29498914       0.01415864      -0.00769445      -0.00566925
H       12.56695633       5.54067530       9.28304898      -0.00851172      -0.00234896      -0.00149189
H       11.08186477       5.72789345      10.24028374      -0.00485253       0.01524761       0.00083700
H       10.80145934       8.30036095       7.42851038       0.02114934       0.00600266      -0.01567980
H       11.98529877       7.21854190       6.67775400       0.01281849      -0.01241040      -0.00307351
O        0.68875193       6.04919032       3.21871419      -0.00281674       0.00596198       0.01617381
C        2.93215512       5.37044490       3.06476209      -0.00715649      -0.00110398       0.00248170
C        2.76449000       6.62005246       2.20229710      -0.00630802       0.00055146       0.00453502
C        1.49628594       4.87859371       3.15938716      -0.00816101       0.00292294       0.00506370
C        1.41577662       7.16285168       2.66994508      -0.00541025       0.00246582       0.00590028
H        3.60998890       4.63434551       2.63210643      -0.01023596      -0.00210656      -0.00062604
H        3.30569365       5.63438275       4.05814837      -0.00432854      -0.00359516       0.00193334
H        3.56438672       7.34640103       2.32595845      -0.00518909      -0.00071995       0.00451860
H        2.71890731       6.35595317       1.14477779      -0.00742865       0.00198214       0.00432098
H        1.23461711       4.28209116       2.27188024      -0.01313479       0.00967947       0.00223535
H        1.28585292       4.28252668       4.04756121      -0.00680839      -0.00154373       0.00215662
H        1.53797625       7.91054090       3.46094572      -0.00451482       0.00762480       0.00047407
H        0.83774156       7.60557088       1.85801340      -0.00786975      -0.00282916       0.00444895
O        6.03143568      10.84763998      11.61045264      -0.00874405       0.01591473       0.00826620
C        8.19816109      11.04831139      10.63258670      -0.00183648      -0.00922963       0.01488024
C        7.92854132       9.60682212      11.07273522      -0.02034134      -0.00584731       0.01209608
C        6.94664908      11.81537948      11.08156800       0.00460270       0.00647701       0.00707494
C        6.40893445       9.57134664      11.06514108      -0.02130914       0.00997151       0.01075165
H        9.10283711      11.45030879      11.08019578      -0.00003316      -0.02029306       0.02143276
H        8.27908914      11.10617152       9.54768433       0.00751945      -0.00781396       0.01538211
H        8.38240255       8.87092165      10.40749669      -0.02848161      -0.01045956       0.01162858
H        8.31112486       9.44717844      12.08326959      -0.02327197      -0.01184764       0.01228371
H        7.14156036      12.54449788      11.87000050       0.00851142       0.00502881       0.00632185
H        6.49559440      12.33406334      10.23107778       0.01227427       0.00678766       0.00582498
H        6.01446995       9.46649405      10.04491811      -0.02198181       0.01119856       0.01205719
H        5.97121065       8.80150451      11.70072129      -0.02823648       0.01662171       0.01368740
O        2.44462524       9.59993683       1.40038900      -0.00447855       0.00679627      -0.00509496
C        1.96247002      11.85442281       1.47883437      -0.00351317       0.00721776       0.00269511
C        3.42966716      11.72379490       1.89456439      -0.00167173       0.00573730      -0.00703004
C        1.42753154      10.47827209       1.83949250      -0.00296706       0.00616944       0.00037724
C        3.70959818      10.22359025       1.66824794      -0.00365995       0.00543135      -0.00594112
H        1.42826379      12.68846071       1.94047555      -0.00079993       0.00585106       0.00668298
H        1.95761917      11.95319483       0.38951967      -0.01019395       0.01084959       0.00178880
H        4.08988155      12.35787481       1.30208789      -0.00408126       0.00442478      -0.01190294
H        3.55535549      11.99988280       2.94231808       0.00462338       0.00710461      -0.00805107
H        1.28572785      10.40870980       2.92805555      -0.00027593       0.00362283       0.00035796
H        0.49836717      10.18413340       1.34548416      -0.00423029       0.00848988       0.00185747
H        4.34921041      10.03578723       0.80538374      -0.00437108       0.00430857      -0.00681788
H        4.16975352       9.76571246       2.55255681      -0.00355695       0.00574096      -0.00657383
O        6.73577436       5.55202307       7.81619948       0.00293739       0.00654608      -0.00196275
C        6.01502098       4.39267233       9.74541563       0.00212660       0.00235417      -0.00533503
C        4.98845379       4.18751541       8.63260793       0.00377047       0.00246762      -0.00678311
C        6.75527268       5.62795980       9.24697347      -0.00040331       0.00470895      -0.00193694
C        5.81860035       4.53590402       7.40480882       0.00439671       0.00626992      -0.00512540
H        5.56584474       4.53941567      10.72692508       0.00116274      -0.00120371      -0.00546598
H        6.68991851       3.53537235       9.80234177       0.00369856       0.00402963      -0.00659090
H        4.58176432       3.17686113       8.59027590       0.00528675       0.00225976      -0.00884145
H        4.15551883       4.88391339       8.75639326       0.00288410       0.00100741      -0.00588022
H        6.23690784       6.54303806       9.56447541      -0.00426787       0.00266680      -0.00165290
H        7.79620202       5.68902199       9.57011446      -0.00140435       0.00773941       0.00054219
H        6.38865431       3.66265932       7.06254397       0.00602919       0.00778762      -0.00677567
H        5.22737679       4.91348675       6.56613781       0.00449118       0.00769481      -0.00442794
O        4.20103816       9.15368993       8.07843742      -0.01152229      -0.00354157      -0.01087102
C        4.36526742       8.21869466       5.91152015       0.00117835       0.00310456      -0.01251704
C        3.11821360       9.09828231       5.98408875      -0.00242007      -0.00292848      -0.01511919
C        4.64929623       7.97833653       7.38866378      -0.00343321       0.00088350      -0.01235926
C        3.45305290       9.98072507       7.17634205      -0.01101470      -0.00284013      -0.01234448
H        4.21920122       7.29136975       5.35878906       0.00743362       0.00413387      -0.01534510
H        5.18969816       8.76718343       5.44892108       0.00055170       0.00809065      -0.00827750
H        2.93263543       9.67685699       5.07909648      -0.00145110      -0.00131986      -0.01466970
H        2.23602000       8.48706245       6.19461971      -0.00093830      -0.00665507      -0.02007663
H        4.08266327       7.11407796       7.76079551      -0.00094363      -0.00264904      -0.01657249
H        5.70400848       7.80951731       7.60647575      -0.00321168       0.00511063      -0.00850344
H        4.06740269      10.83571927       6.86502311      -0.01211494      -0.00146291      -0.00875005
H        2.57105497      10.35836081       7.69884085      -0.01313382      -0.00761081      -0.01488444
