197
Lattice="14.054207000135742 0.0 0.0 0.0 14.054207000135742 0.0 0.0 0.0 14.054207000135742" Properties=species:S:1:pos:R:3:forces:R:3 energy=-529775.875 stress="-0.0016922007780522108 0.00018465699395164847 0.00065529317362234 0.00018465699395164847 -0.0023929558228701353 -0.0008408966823481023 0.00065529317362234 -0.0008408966823481023 -0.0025624034460633993" pbc="T T T"
La      13.81785854      13.75239212      -1.18730670       0.01197541       0.00266868      -0.01972699
N       14.00520019      14.52447377      10.76533436       0.00500055      -0.00614858      -0.02364051
C       14.10294170      13.52313106      10.13243510       0.00318262      -0.00731671      -0.02090728
N       11.07032526      13.61167366      14.61028535       0.03073317       0.01020356      -0.01528943
C       11.58008062      13.94458178      13.61511749       0.00833007      -0.00896107      -0.00074019
N       10.14912418      14.89670761       6.87611854       0.00522113       0.00596926      -0.00534225
C        9.15743542      15.15485635       6.31212700       0.00980103      -0.00325382      -0.01754272
S        2.81217253       8.24726004       2.84437248      -0.00744569       0.00233936       0.00532019
O        2.14482513       7.08286242       3.49591262      -0.00533634       0.00208247       0.00697559
C        4.54993851       8.19817873       3.38791477      -0.00809801       0.00663531       0.00555956
C        2.37293908       9.70322195       3.79797352      -0.01121899       0.00274074       0.00182623
H        5.14244952       7.63667627       2.66949842      -0.00933237      -0.00139736       0.01108089
H        4.53304882       7.68183876       4.34614189      -0.00719643       0.01715064       0.01098700
H        4.95692569       9.19926306       3.50621870      -0.00740767       0.00751129      -0.00571755
H        2.96580983      10.54996580       3.45794968      -0.01549222       0.00393669      -0.00201211
H        2.58622648       9.51856300       4.84844487      -0.00827193       0.00712381       0.00179809
H        1.30528496       9.87259587       3.67644868      -0.01190756      -0.00182236       0.00339932
S        7.80015008      12.98949326      11.21274447       0.02131084       0.02271390       0.01349568
O        8.30510898      14.32893094      11.63353471       0.00775433       0.02060306       0.03500456
C        6.01479577      13.15045827      11.02115207       0.02381879       0.01491572      -0.01136540
C        7.76070607      11.97559834      12.70941155       0.00345129       0.00815913       0.00270194
H        5.83296100      13.66640349      10.08065380       0.03464235       0.02491945      -0.00767983
H        5.61972101      13.70511854      11.86737438       0.00837202       0.00212958      -0.01031697
H        5.56295991      12.16395647      10.99152410       0.03058161       0.01284763      -0.03071623
H        7.31130523      11.00826373      12.47719174       0.00458383       0.01114427      -0.01044723
H        7.19869216      12.48016648      13.49420767      -0.00508864       0.00238341       0.00006786
H        8.80005813      11.83409698      13.00026514      -0.00053509       0.00420640       0.01370841
S        4.20965628      11.40605767      -0.27580856      -0.00590688      -0.00346971      -0.00901532
O        4.86093112      12.72957156      -0.05430251      -0.00979370       0.00011945      -0.02004427
C        2.66880235      11.48364764       0.66670834      -0.00505421      -0.00033286      -0.00813949
C        5.04913449      10.23265372       0.79714626      -0.00327885       0.00632232      -0.00055581
H        2.01168868      12.19559725       0.14088064      -0.00416077      -0.00169612      -0.01047382
H        2.89421129      11.88147895       1.65698161      -0.00525658       0.00262227      -0.00952838
H        2.18952816      10.50542052       0.72417082      -0.00564325       0.00017442      -0.00511916
H        4.50851655       9.28675499       0.78335089      -0.00286257       0.00610395       0.00760536
H        5.10236912      10.65920518       1.79876446      -0.00271966       0.01404257      -0.00402428
H        6.05706311      10.08738108       0.41298870      -0.00380257       0.00353758      -0.00037538
S        6.15287730       3.11624871      14.12253033      -0.00184602       0.00971174       0.01114595
O        5.60856035       4.34589481      13.46803656      -0.00537354       0.00799572       0.01096153
C        7.70015374       2.68438222      13.32825708       0.00090659       0.01741633       0.01375365
C        5.18269895       1.73971330      13.49734063       0.00584561       0.00511891       0.00924435
H        8.36677520       3.53591444      13.43000525      -0.00024584       0.01718010       0.02056459
H        7.53757631       2.46988701      12.27675511       0.00407774       0.02425514       0.01219255
H        8.10358934       1.79660192      13.81407234       0.00071552       0.01508824       0.00896935
H        5.59598433       0.80025283      13.85434007       0.01390633       0.00706212       0.00474575
H        5.18509018       1.78198584      12.40909629       0.00232990       0.00832274       0.00947204
H        4.16468747       1.85514890      13.86416390       0.00616837      -0.00393736       0.01236398
S        4.67492028       8.71885750       8.74002924      -0.00472724      -0.00087851       0.00547203
O        3.28828530       8.25043814       9.07551905      -0.00424528       0.00338411       0.01202688
C        5.09429673       9.92428192      10.00502580       0.00498279      -0.00009871       0.00135273
C        4.53549109       9.96221061       7.43604076      -0.00621758      -0.00385237       0.00321358
H        5.13349067       9.40251087      10.95738468       0.00465308       0.00122823       0.00186417
H        4.29936838      10.67087970      10.02127904       0.00919199       0.00398806       0.00246020
H        6.06043065      10.36355578       9.74867422       0.00654472      -0.00594198      -0.00239297
H        5.46507170      10.52905556       7.38779563      -0.00548346      -0.00568890      -0.00034977
H        3.68863629      10.60288658       7.67915126      -0.00426404      -0.00160027       0.00366139
H        4.34778000       9.46744731       6.48694501      -0.00960581      -0.00608340       0.00529166
S        8.51399094       6.57463144      11.51689382      -0.00379324      -0.00783730       0.00077409
O        7.91115028       5.21803172      11.61543814      -0.00509775      -0.00831676      -0.01503181
C        8.66918135       7.19964240      13.19678031      -0.01442844      -0.02266958       0.00668061
C        7.16255807       7.65749366      11.03441180       0.00020671      -0.00376341      -0.00000867
H        9.47571580       6.64251042      13.66906146      -0.01761886      -0.02737636       0.00609012
H        7.73895159       7.04472906      13.73862563      -0.01826137      -0.02739518      -0.00154521
H        8.91293542       8.26140192      13.17585210      -0.01393343      -0.02283383       0.01840914
H        7.49117061       8.69593833      11.07748555      -0.00005576      -0.00423813       0.01106322
H        6.31705214       7.46998741      11.69864609      -0.00430392      -0.00870015      -0.00757512
H        6.92081599       7.41741141      10.00052254       0.00718291       0.00454162      -0.00346880
S        9.44528045       9.44065683       2.34481926       0.00374067       0.00273234      -0.00714505
O        8.26195143       8.72003520       1.76470457      -0.00026858       0.00925207      -0.00650722
C        9.12181530      11.18638592       2.15906396       0.01201722       0.00439411      -0.00333454
C       10.80450976       9.34705790       1.16189886       0.00109962      -0.00167574      -0.00905114
H        8.34706892      11.46742242       2.87482286       0.01674639       0.00729555       0.00052361
H        8.79303447      11.36440576       1.13583241       0.00713674       0.00656190      -0.00116391
H       10.03785798      11.73165588       2.37447096       0.01620287      -0.00089801      -0.00837185
H       11.60103026       9.98625257       1.54373319       0.00396162      -0.00457208      -0.01027856
H       10.45626242       9.68615019       0.18577524       0.00056079       0.00022130      -0.00812530
H       11.13462203       8.31124444       1.10885330      -0.00280297      -0.00259143      -0.01028429
S       12.74057666      12.30944691       4.14706965       0.00360358       0.00163186      -0.00299722
O       12.22174525      11.11419164       3.40134195       0.01503217      -0.00100267      -0.00619954
C       12.72356102      11.89593813       5.89849676      -0.00381711       0.00068946      -0.00372738
C       11.41641334      13.51683420       4.19374829      -0.00328207      -0.00599793      -0.00870634
H       13.41486218      11.06362527       6.03229563      -0.00108080       0.00372152      -0.00041275
H       11.71030530      11.61554056       6.18791722      -0.00405529      -0.00410651      -0.00983236
H       13.04737918      12.76803290       6.46812840      -0.01092977       0.00168344      -0.00172497
H       11.68122136      14.32996582       4.86954303      -0.01229061      -0.00636560      -0.00495008
H       10.50902058      13.03995592       4.56684552      -0.00241420      -0.01236396      -0.01523752
H       11.27288039      13.87979719       3.17758687       0.00038176      -0.00433936      -0.00832750
S        9.21038704       4.55687083       8.92018762       0.00833857      -0.00601915      -0.00029564
O        8.21531666       4.87492090       7.83080690       0.00813794      -0.00641224       0.00023115
C       10.67025693       3.86633046       8.14498962       0.01124036       0.00278166      -0.00230199
C        8.64858471       3.03112688       9.67858094       0.01495565      -0.01111704      -0.00593990
H       11.19764414       4.69094334       7.67246434       0.00949438       0.00580308       0.00147756
H       10.38643252       3.07635850       7.45111127       0.01491885       0.00422695      -0.00515456
H       11.27907930       3.45234488       8.94972057       0.01228498       0.00239027      -0.00354271
H        9.36957783       2.73346363      10.43758828       0.01441786      -0.01000528      -0.00520566
H        8.54681705       2.26230433       8.91231882       0.02080840      -0.00905657      -0.00866559
H        7.70971156       3.26892994      10.16738896       0.01265379      -0.01841591      -0.00737232
S        3.30408287       3.65556674       9.69645929       0.01211560      -0.00686669       0.01284051
O        2.60272315       2.62116276      10.51629855       0.02188402      -0.00664949       0.02112150
C        4.99487170       3.75700240      10.29733197       0.01529366       0.00272004       0.00183821
C        2.79690833       5.26922737      10.30229564       0.00797580      -0.00723523       0.00963256
H        5.44247139       2.78322662      10.10368665       0.01721393       0.00324538       0.00447239
H        5.01134035       3.99153459      11.36426841       0.02098430       0.00819165       0.00038826
H        5.53393269       4.51939162       9.73376168       0.00932263       0.00106711      -0.00565802
H        3.44466590       6.04480170       9.89571735       0.00231132      -0.00560315       0.00410198
H        2.82661390       5.25846987      11.39333774       0.01345251      -0.00354035       0.00934437
H        1.78639101       5.44225128       9.94139927       0.00546445      -0.01315363       0.01443418
S        9.51324683      11.23786753       8.26858338      -0.01812363      -0.00361675       0.00622535
O        8.07919140      11.58750009       8.46307097      -0.01529074      -0.00329751       0.02975604
C        9.94679848       9.95690148       9.47322707      -0.00326943      -0.00056833       0.00307089
C       10.54504483      12.53374498       8.98724176      -0.00566107      -0.00417578      -0.01178432
H        9.38064844       9.06894486       9.20168084      -0.00780347      -0.00018503       0.01260242
H        9.68180298      10.30512603      10.47379193       0.01019845       0.00295448       0.00517818
H       11.01713182       9.76099909       9.40637176      -0.00465836      -0.00235187      -0.00995213
H       11.58305281      12.19856728       8.93949885      -0.00716318      -0.00657577      -0.02472029
H       10.24678985      12.71194235      10.02079184       0.00867611      -0.00213885      -0.00828615
H       10.41294374      13.43141208       8.37597615      -0.01012216      -0.00488314      -0.01119748
S        7.88688395       8.02409384       6.56205307       0.00256062       0.00159144      -0.00440633
O        7.61890278       8.60159084       7.91609060       0.00051218      -0.00115347      -0.00366366
C        7.55014944       9.32057391       5.35786886      -0.00491446       0.00150979      -0.00168177
C        6.48811178       6.95947000       6.18961089       0.00817823      -0.00511706      -0.00333935
H        8.33035763      10.07397097       5.45291381      -0.01218630       0.00817013       0.00332788
H        6.59012519       9.79112379       5.55774595      -0.00978677      -0.00794274      -0.00381942
H        7.57373551       8.88169672       4.35894784       0.00232943       0.00514442      -0.00281887
H        6.59300577       6.56379592       5.18076707       0.00579707      -0.00041345      -0.00523055
H        5.56103512       7.51937963       6.29518452       0.00567979      -0.01075172       0.00356825
H        6.54180553       6.15072594       6.91484576       0.01589908      -0.00735575      -0.00659294
S        2.97102101       4.29349308       1.10501479      -0.01436305      -0.00139832       0.00343746
O        2.36782947       5.44012909       0.36617335      -0.01329923      -0.00246549       0.00156665
C        1.88994711       3.92939700       2.50577732      -0.01816350      -0.00148803       0.00044787
C        4.31602189       4.92228127       2.13645212      -0.01831073       0.00035208       0.00695354
H        0.99229120       3.44760719       2.12395965      -0.01758311      -0.00023038      -0.00203696
H        1.65517085       4.87402433       2.99554439      -0.01832015      -0.00187400       0.00078150
H        2.42697725       3.26242184       3.18234589      -0.02089476      -0.00274003       0.00107419
H        4.77254889       4.07058772       2.64202130      -0.01866058       0.00141977       0.00877223
H        3.89606360       5.61360997       2.86286784      -0.02127011       0.00068229       0.00475611
H        5.02527896       5.38909850       1.45770736      -0.01724694       0.00039886       0.00837931
S        2.50533828      12.63123593       5.69231503      -0.00892723       0.01696222      -0.00057197
O        3.83304723      12.19426670       5.16004760      -0.01562667      -0.00075132      -0.00195146
C        1.95853743      13.98634750       4.63820094       0.00784548       0.02505797       0.00139058
C        2.82472690      13.63055118       7.16109584       0.00810765       0.01154810      -0.00152421
H        1.74541222      13.55548825       3.66146067       0.00405332       0.02962524       0.00041184
H        2.75729401      14.72719175       4.57683816       0.01561645       0.01652190       0.00376150
H        1.04338084      14.41298014       5.04741018       0.01220005       0.03416298       0.00119377
H        1.87352625      13.91391395       7.61398006       0.01360008       0.02939755      -0.00224481
H        3.41944995      14.49919025       6.88173905       0.02406593      -0.00023749      -0.00308622
H        3.37850172      12.99692116       7.85063335      -0.00374848       0.00262152      -0.00069200
S       11.18217397       6.92498522       5.92928075       0.02165866      -0.00783029       0.00950170
O       11.76309749       6.75956366       7.30615469       0.04550058      -0.00018119      -0.00009632
C       12.44129338       6.35035659       4.77577551       0.01024896       0.00997203      -0.01060885
C       11.32398166       8.67056722       5.55975079      -0.00908701      -0.00692868       0.00388826
H       12.51024623       5.27081611       4.89991904       0.03827051       0.01343721      -0.00142205
H       13.38508074       6.84664228       4.99615383       0.00343485       0.03293344      -0.03591628
H       12.11872502       6.58073326       3.76087918      -0.01799095      -0.00894649      -0.00517908
H       11.11826587       8.86478204       4.50930590      -0.03677844      -0.01431685       0.00826372
H       12.34243369       8.96197292       5.81216666      -0.00808245       0.00778977      -0.02021480
H       10.59660555       9.19446581       6.17822678      -0.00208251      -0.01481936       0.01813628
S       12.21649353       6.00325370      12.29105889       0.00284219       0.00524747       0.01268673
O       11.07727384       5.07800580      12.04152869       0.00237155       0.00369000       0.02137873
C       12.00267551       7.43090151      11.19756542       0.00027643      -0.00265223       0.00368536
C       13.64634884       5.34017505      11.42759055       0.00116056      -0.00090951       0.01475796
H       11.18028370       8.02272814      11.59262148      -0.00163868      -0.00258821      -0.00070032
H       11.75665384       7.07922221      10.19432747       0.00235625      -0.00909652       0.00573966
H       12.91961056       8.01983397      11.19709552      -0.00145059      -0.00022356       0.00090852
H       14.48363973       6.01757653      11.58478266       0.00182208      -0.00061506       0.00913293
H       13.40577681       5.23029015      10.36887748      -0.00041632      -0.00768030       0.01605295
H       13.88866730       4.37438291      11.86483574       0.00105818       0.00222801       0.02131210
S        5.43407793       3.49303090       5.56486784       0.00682405      -0.00844526      -0.00127983
O        4.75635393       2.55022613       4.60973999       0.00474983      -0.00853992       0.00050879
C        7.14247145       3.69388226       5.03210985       0.00589871      -0.01035620      -0.00396197
C        5.83999030       2.56297959       7.04841464       0.00846055      -0.00763100      -0.00145489
H        7.12353415       4.12202342       4.03107182       0.00452859      -0.01159647      -0.00426581
H        7.64416251       2.72464813       5.06465593       0.00560133      -0.01047537      -0.00367286
H        7.64014859       4.35594973       5.74211049       0.00715424      -0.00981218      -0.00560479
H        6.44587722       3.21539490       7.67900144       0.01374650      -0.00945549      -0.00485380
H        6.41652648       1.68164691       6.76224454       0.00325492      -0.01028423      -0.00285816
H        4.90331172       2.30533493       7.53762149       0.00961982      -0.00311498       0.00276194
S        1.30069279       8.46134365       6.97825523      -0.00829673       0.00678740       0.00832140
O        0.30695034       8.86591292       5.92896556      -0.00578511       0.01062712       0.00756121
C        1.55232251       6.68243704       6.79698019      -0.01256152       0.00677162       0.00693725
C        0.37702480       8.41206222       8.52393025      -0.00939989       0.00555386       0.00720286
H        1.88751816       6.53842470       5.77007759      -0.00309299       0.00667159       0.01028775
H        0.60922938       6.16506405       6.97407957      -0.01642862       0.01093164      -0.00291786
H        2.32008230       6.37151672       7.50206577      -0.02068479       0.00340516       0.01407175
H        1.00270830       7.95939500       9.28808572      -0.00868313       0.00701809       0.00726739
H       -0.54432507       7.86093088       8.32710255      -0.00721028       0.00299980       0.00575921
H        0.16653234       9.44674012       8.79222989      -0.01215072       0.00492673       0.00698316
S        6.96546805      -0.10314770       4.25334307      -0.01257575      -0.01614833      -0.00597543
O        7.43266611      -1.52076063       4.35889248      -0.01158690      -0.01584744      -0.00659068
C        5.66989291      -0.09503994       3.00196666      -0.01640892      -0.01795103      -0.00156516
C        8.19032022       0.77980077       3.25811704      -0.01687080      -0.01573557      -0.00977427
H        4.85075980      -0.67777674       3.41927223      -0.01376990      -0.01957887       0.00102790
H        6.03644389      -0.54538162       2.08002465      -0.01823124      -0.01630747      -0.00298944
H        5.35485281       0.93650918       2.84895621      -0.01851954      -0.01853536      -0.00018115
H        7.74537354       1.69873371       2.87782786      -0.01923551      -0.01605921      -0.00734637
H        8.50477422       0.13550535       2.43593001      -0.01989670      -0.01493044      -0.01124986
H        9.01444229       1.01524872       3.93007636      -0.01481980      -0.01541784      -0.01261429
