193
Lattice="14.223167692377219 0.0 0.0 0.0 14.223167692377219 0.0 0.0 0.0 14.223167692377219" Properties=species:S:1:pos:R:3:forces:R:3 energy=-380115.15625 stress="-0.0009545499924570322 0.00030615947616752237 -0.0001626105877221562 0.00030615947616752237 -0.001394293736666441 -7.924183591967449e-05 -0.0001626105877221562 -7.924183591967449e-05 -0.002519566100090742" pbc="T T T"
La      13.98304579      12.77009966       0.73747273      -0.01122731      -0.01418173      -0.00188443
Cl       0.88477274      12.70810214       4.41922759      -0.02685833      -0.02376890       0.00446042
O       -0.02693376      12.83348383       3.15353860      -0.01630211      -0.02339959      -0.00284028
O       -0.02411628      12.62660881       5.56214758      -0.03900945      -0.01402664      -0.00536180
O        1.66901063      13.94472927       4.44666316      -0.01982045      -0.02877927       0.00921342
Cl       2.23483409      12.84315422      11.96442299      -0.02483976      -0.00455952      -0.00900555
O        3.50174403      12.70209120      12.70982207      -0.02717733      -0.02813867      -0.00890279
O        2.37294873      13.92228273      10.97356422      -0.00896874       0.00304353       0.00281656
O        1.20287592      13.32932703      12.99317831      -0.01890773      -0.00241363      -0.00406069
Cl      10.68127649      13.35405465      14.73865499      -0.01433498       0.01259597      -0.01242208
O       11.99108397      14.24087773      14.58312904      -0.00438929      -0.00163388      -0.00014418
O       13.41834128      10.99315829      14.66303131      -0.02521849      -0.00771511      -0.01309901
O       10.15772343      12.83293134      13.41000215      -0.01735938       0.03409296      -0.01956093
C       10.18245789       2.25097374       3.30367695       0.00123395      -0.00599474       0.00285775
C       11.22334330       2.57998329       2.43385963       0.00008007      -0.00353941      -0.00894743
C       10.27633769       2.65642997       4.63494255       0.00105570      -0.01061805      -0.00797400
C        9.01684319       1.43499797       2.82736408       0.00540498      -0.01065603      -0.00325646
C       12.32734823       3.29044087       2.88760142      -0.00071674       0.00214056       0.00301888
C       11.38109527       3.36474373       5.09227736       0.00031403      -0.00432402       0.00218055
C       12.41124602       3.68691836       4.21747167      -0.00165325      -0.00347774      -0.00934932
H       11.18218197       2.24916800       1.40303706      -0.00043409       0.00123255      -0.00244986
H        9.47418181       2.40633769       5.32045581       0.00340666      -0.01248396      -0.00206092
H        8.13217971       1.59625943       3.44361034       0.00685936      -0.01826224       0.00208472
H        8.76753675       1.65946664       1.79045088      -0.00025646      -0.00754270       0.00009355
H        9.25704556       0.37008091       2.86687973       0.01076821      -0.00928876      -0.00826883
H       13.12995331       3.52808349       2.20027282      -0.00235258       0.00322823      -0.00412893
H       11.43811691       3.66335691       6.13232153      -0.00007816      -0.00754535      -0.00412451
H       13.27364733       4.23844351       4.57074868      -0.00288533       0.00058696      -0.00213017
C        3.59021872       3.09420640      13.82790598       0.00152445      -0.00688457       0.00640523
C        4.96641258       3.08605005      14.06137491      -0.00552581      -0.01366538       0.00702600
C        2.95375136       4.32483611      13.68511672      -0.00098240      -0.00668941       0.00660065
C        2.81564633       1.82376727      13.70109968      -0.00651529      -0.00345090       0.00312936
C        5.68456675       4.27309468      14.13812774       0.00447149      -0.01206605       0.00990824
C        3.66695209       5.50929523      13.74363817       0.01035073      -0.00512323       0.01063165
C        5.03695104       5.49056069      13.97429720       0.00176866      -0.01310357       0.01055607
H        5.47901839       2.13511898      14.15720984      -0.00452233      -0.01259264       0.00718297
H        1.88821147       4.35048633      13.48675746       0.00422250      -0.00157095       0.00642803
H        1.97378160       1.93683832      13.02103474       0.00492372      -0.00516164      -0.00991556
H        3.42870130       1.00747980      13.32383196      -0.00557356      -0.00999172       0.01902475
H        2.41607328       1.50821288      14.66728598      -0.02280536       0.00698022      -0.00095621
H        6.75531108       4.24583714      14.30501762      -0.00018823      -0.01808004       0.01198089
H        3.15302170       6.44826223      13.59331518       0.00872703      -0.00568272       0.01122844
H        5.59156151       6.42161247      14.00827542       0.00897694      -0.01321946       0.01334091
C        6.53488639       5.55312783       3.63996288       0.00156972      -0.01404965      -0.00365393
C        6.64086511       4.23953734       4.09391624      -0.00950028      -0.01949023      -0.01091892
C        5.42804499       6.29641730       4.03900470      -0.00113181      -0.01445767       0.00937802
C        7.54570254       6.13993877       2.70340699       0.00165907      -0.00984715       0.00424768
C        5.64558074       3.67251554       4.87953961       0.00059944      -0.01941325      -0.01834874
C        4.42154339       5.73369087       4.81237148       0.00648522      -0.01379418       0.00032789
C        4.52228382       4.41331193       5.22899546      -0.00504114      -0.02112152      -0.00478336
H        7.52049047       3.66616532       3.82960289      -0.00835460      -0.02012939      -0.02329322
H        5.35130332       7.33192499       3.73277745       0.00782112      -0.00927235       0.01705515
H        7.68786996       7.20633895       2.87654375       0.00428854      -0.01181197       0.01245095
H        8.51270127       5.64384727       2.78809251       0.00093450      -0.01226059       0.00237670
H        7.20623842       6.02639486       1.67043594       0.00457059      -0.00139692       0.00266808
H        5.74687743       2.65124876       5.22572933      -0.00764782      -0.02410588      -0.02375925
H        3.56064133       6.33259687       5.08534664       0.00564978      -0.01529383       0.01240345
H        3.74514601       3.97244783       5.84118551      -0.00005447      -0.02176871      -0.01091857
C       11.88477866       3.35560911      11.12059409      -0.00341785       0.00071581       0.00778404
C       12.39629574       2.11289484      10.74093469       0.00488642       0.00279355       0.00562362
C       10.54989963       3.43043966      11.51612092       0.00438341       0.00088231       0.00662677
C       12.75234765       4.58049950      11.09012197      -0.00208738       0.00196433       0.00453166
C       11.59520019       0.97942519      10.75309006      -0.00283838      -0.00108467       0.00741687
C        9.74449131       2.29717256      11.52633861      -0.00190444      -0.00390296       0.00912656
C       10.26438371       1.06765217      11.14529556       0.00779746       0.00025505       0.00761539
H       13.43889407       2.02917143      10.45469303      -0.00036211       0.00202702       0.00667732
H       10.13866114       4.38796079      11.81748048      -0.00063457      -0.00211600       0.00863214
H       12.34463909       5.37232639      11.71795688      -0.00394019       0.00195985       0.00388646
H       13.76365121       4.35668044      11.43063886      -0.00171283       0.00517927       0.00352113
H       12.83782399       4.97827844      10.07425827      -0.00500147       0.00042807       0.00400436
H       12.01487770       0.01918079      10.48230337       0.00411125       0.00119492       0.00705008
H        8.70982210       2.37441025      11.83900985       0.00324070      -0.00264694       0.00879285
H        9.65430213       0.17617310      11.18453046       0.00435199      -0.00297229       0.01362406
C       10.05451707       7.75349358       6.41190216       0.00944367       0.00862570      -0.00148326
C       11.02008590       7.49209560       7.38324333       0.00766023       0.00730847       0.00124909
C        9.72687141       9.08475856       6.15118659       0.01271735       0.00987370      -0.00050378
C        9.36980232       6.64671911       5.67315618       0.01028419       0.01027551      -0.00336231
C       11.62515785       8.52517791       8.08873925       0.00680815       0.00454845       0.00188094
C       10.32825676      10.12063208       6.85258409       0.01201164       0.00727352      -0.00017119
C       11.27869192       9.84556076       7.82807235       0.01043467       0.00627646       0.00320670
H       11.29996137       6.46323390       7.58300815       0.00511844       0.00625408       0.00088717
H        9.00675064       9.30812284       5.37261141       0.01393483       0.01092334      -0.00238541
H        9.14550625       6.95087067       4.65306478       0.01620515       0.00991106      -0.00472879
H        9.98234376       5.74616832       5.63447335       0.00742555       0.00833957       0.00057876
H        8.42375239       6.37928107       6.15287417       0.00725946       0.01362412      -0.00767761
H       12.37384202       8.30020043       8.83848179       0.00572811       0.00379658       0.00355417
H       10.06850760      11.14663882       6.62529397       0.01544438       0.00827409       0.00019603
H       11.75569545      10.65430341       8.36554907       0.01046490       0.00462071       0.00279739
C        3.22071583       8.57803645       1.05279687      -0.01715539       0.01983267      -0.01222169
C        3.23682236       7.40480093       1.80257782      -0.00767614       0.00964266       0.01028733
C        1.97903870       9.09625894       0.67831000      -0.00510077       0.00098670      -0.00826824
C        4.50423803       9.21306859       0.60308618      -0.01081941       0.00438091      -0.01047708
C        2.06446079       6.74581718       2.14643723      -0.01785424       0.02864211       0.00386336
C        0.79858282       8.44440511       1.01275258      -0.01462381       0.01813500      -0.01397261
C        0.84089608       7.26045860       1.74242972      -0.00358625       0.00707205       0.00745436
H        4.18380135       6.95570786       2.05944130      -0.01349574       0.02428694       0.01228872
H        1.92258892      10.01917384       0.10887455      -0.00887411       0.00319736      -0.02417171
H        4.44127453      10.30066974       0.60095107      -0.01560561       0.00583890      -0.03072808
H        5.33632404       8.92037744       1.24621090      -0.01265240       0.01995940      -0.00514978
H        4.75310481       8.91195139      -0.41856587      -0.00703769      -0.01029540      -0.00527221
H        2.12099866       5.81133641       2.69274174      -0.01247347       0.02473676       0.02054597
H       -0.13661097       8.90212533       0.71192256      -0.00809386       0.00430968      -0.01271939
H       -0.07697582       6.74165294       1.99265872      -0.01089102       0.01921192       0.00459564
C        7.95990168       9.65539557      11.71752266       0.02033366       0.00223061       0.00929124
C        8.31196580      11.00334216      11.70726271      -0.00812733       0.00093383       0.00429812
C        6.62352847       9.31710046      11.48449981      -0.00861675       0.00517119       0.00606707
C        8.99894989       8.60614416      11.99035192       0.00594896      -0.00191945       0.00754710
C        7.35657081      11.98580774      11.47242503       0.03044511      -0.00413787       0.01860498
C        5.67104228      10.29688730      11.23651307       0.02288926      -0.00633515       0.01888845
C        6.03655116      11.63764771      11.22961436      -0.01291066       0.00259417       0.01423748
H        9.33449946      11.28920375      11.91558655       0.01363778      -0.00044518       0.00601005
H        6.33207848       8.27141914      11.48771974       0.00861823      -0.00098024       0.00847886
H        8.87734925       7.73667143      11.34501038       0.00588403      -0.00430509       0.01255222
H       10.00032100       9.00975538      11.84801862       0.00841795      -0.00292489       0.00342529
H        8.94280538       8.25005236      13.01992753       0.01074221       0.00397384       0.00963506
H        7.64847371      13.02884945      11.49239428       0.00643768      -0.00333779       0.01713137
H        4.64054384      10.02327438      11.04188966       0.00264040       0.00126048       0.01927878
H        5.28508726      12.39565846      11.06296155       0.01143068      -0.00438668       0.02537572
C        4.10836328      12.61398946       2.64542657      -0.00944988       0.00766734      -0.00198227
C        5.29206186      13.26526547       2.99009493       0.00017203       0.02305031      -0.00248118
C        3.88920697      11.32947665       3.13457978       0.00913131       0.01743290      -0.00542071
C        3.10368037      13.25872240       1.74861669      -0.00839087       0.01398867       0.00375882
C        6.23970666      12.63608481       3.78271756      -0.00518313       0.01630553      -0.00916729
C        4.84236234      10.69144234       3.91238045       0.00168750       0.00991254      -0.01136341
C        6.02762378      11.33878673       4.23129914       0.01282726       0.02605286      -0.00952418
H        5.46305158      14.27690297       2.63937567      -0.01037315       0.01767728      -0.00454943
H        2.95846543      10.82379095       2.90453030       0.00314093       0.00855687      -0.00511223
H        2.14536373      12.75016252       1.87654503      -0.00494581       0.00299898      -0.00353509
H        2.96097939      14.30486547       2.01087725      -0.02054913       0.00831220       0.01351827
H        3.40058779      13.18552729       0.69919948      -0.00910771       0.02598572       0.00352135
H        7.14930364      13.15442338       4.05865557      -0.00140810       0.02663223      -0.00834022
H        4.63933333       9.69327560       4.27752627       0.01564580       0.01449643      -0.01297658
H        6.78096042      10.85193693       4.83408382       0.00751571       0.02248035      -0.01177563
C        5.24414479       9.67136715       7.05352300      -0.00034485       0.00576176      -0.00323884
C        3.86008915       9.51865050       7.15458101      -0.00762752       0.02401987      -0.00194453
C        5.81282715      10.85043567       7.53320212      -0.01373795       0.02745834       0.01401873
C        6.09458304       8.63662007       6.38532240       0.00408188       0.01762456       0.00384817
C        3.06439937      10.52765594       7.68613422      -0.00121893      -0.00936482      -0.01775084
C        5.02254242      11.86193612       8.05999558      -0.00115176      -0.00568825       0.00099387
C        3.64328196      11.70835301       8.13572908      -0.01561803       0.02001822       0.00641176
H        3.40065396       8.60236302       6.79777468       0.00157417       0.00888002      -0.01505158
H        6.88938010      10.97351825       7.48451443      -0.00483446       0.01502145       0.01107697
H        7.06703321       8.54448793       6.86520073       0.00112894       0.01562595       0.00968789
H        5.62371940       7.65810755       6.38942710       0.00539765       0.01528105      -0.00242322
H        6.27836719       8.89576691       5.34092954       0.01125637       0.01979767       0.00558144
H        1.98958987      10.40513869       7.73195816      -0.00633949       0.00606274      -0.01504832
H        5.48716139      12.77023961       8.42104479      -0.01414923       0.01096015       0.01393468
H        3.02718006      12.49587542       8.55135716      -0.01027745      -0.00245339      -0.00143170
C       10.98452354       9.64234075       2.82326197       0.01064348       0.00852746      -0.00154714
C       10.26099549       8.77086484       2.01081347       0.00358237       0.00810787       0.00649630
C       10.44329673      10.90381401       3.07821274       0.00754645       0.01276192      -0.00668584
C       12.32357396       9.27052802       3.37587034       0.01064754       0.01174740      -0.00240605
C        9.03809012       9.14564313       1.46514232       0.00463559       0.00173268       0.01157425
C        9.22481938      11.27815437       2.53104414       0.01065336       0.00711299      -0.00137966
C        8.51233432      10.40406146       1.71857504       0.00170919       0.00836631       0.00687449
H       10.67013479       7.79027986       1.79357535       0.00199116       0.00385394       0.00889296
H       11.00132746      11.59543690       3.70003955       0.00863776       0.01518565      -0.01063934
H       12.45695310       9.65992330       4.38579667       0.01343764       0.01097505      -0.00261384
H       12.45948421       8.18909728       3.39542004       0.00859719       0.01146173      -0.00216650
H       13.10225088       9.70517981       2.74282658       0.01138070       0.00820160      -0.00345433
H        8.49119329       8.45285091       0.83788663      -0.00153279       0.00200702       0.01895642
H        8.82465875      12.26363328       2.72744551       0.01123340       0.01150014      -0.00491396
H        7.56689658      10.70493735       1.28602572       0.00236996       0.00428401       0.01131812
C        7.99564758       4.71879873       8.49806922       0.01732460      -0.02115609      -0.00804253
C        6.66472873       4.56790398       8.10856944      -0.00015908       0.01678696      -0.00353589
C        8.39525196       5.94537188       9.02314676      -0.00070709       0.01034015       0.00491734
C        8.97110071       3.60011340       8.29655517       0.01209091      -0.00722307      -0.00553603
C        5.75601697       5.60307429       8.25491283       0.02998067      -0.03417300      -0.01216538
C        7.49000356       6.99280702       9.15192168       0.03339000      -0.03184702       0.00043552
C        6.16361462       6.81543108       8.79348376       0.00182721       0.01175193       0.00264878
H        6.33261183       3.62017887       7.70290650       0.01456472      -0.00878170      -0.01407027
H        9.42888590       6.09240596       9.31196106       0.01486340      -0.01494817       0.00463237
H        9.93554337       3.82042365       8.75066049       0.01228851      -0.01285959      -0.00192566
H        8.60927512       2.66723432       8.73110027       0.01175752      -0.01117322      -0.01003070
H        9.12375555       3.42576494       7.22965895       0.01711941      -0.00524935      -0.00616360
H        4.72158068       5.45316902       7.97548596       0.01475459      -0.00337660      -0.00887784
H        7.81883203       7.95629988       9.51734386       0.01408291      -0.01060358       0.00790285
H        5.45663643       7.62736336       8.91770016       0.02260675      -0.01663837      -0.00197141
C        3.15729532       5.54239806      10.48987965      -0.00500605      -0.00917716      -0.00730438
C        4.41553216       5.05724137      10.83276457      -0.00805074      -0.01568678      -0.00633788
C        2.20100859       4.62754680      10.04796898      -0.00863260      -0.00692976      -0.00906856
C        2.83959476       7.00646795      10.60733482      -0.00005214      -0.00883812      -0.00859732
C        4.71361181       3.70478778      10.75188760      -0.01288348      -0.01451124      -0.00571917
C        2.48812774       3.26860270       9.97759603      -0.01398566      -0.00567561      -0.00793870
C        3.74814518       2.80004809      10.33438377      -0.01671252      -0.01300451      -0.00638695
H        5.17475192       5.75037905      11.16792938      -0.00567837      -0.01766644      -0.00428919
H        1.21533946       4.98472772       9.77141359      -0.00658624      -0.00186609      -0.01007126
H        1.87766875       7.16768724      11.09895695       0.00193611      -0.00478942      -0.00666070
H        3.60164803       7.52525002      11.18987246       0.00314699      -0.01066759      -0.01114991
H        2.78834247       7.49388927       9.62947062      -0.00069720      -0.01015449      -0.00896358
H        5.70477018       3.36402412      11.02279191      -0.01534463      -0.01992939      -0.00399487
H        1.72971511       2.56441122       9.65970092      -0.01636997      -0.00381576      -0.00889033
H        3.95455821       1.73802440      10.30829640      -0.02193046      -0.01250507      -0.00477008
