200
Lattice="13.706015526360082 0.0 0.0 0.0 13.706015526360082 0.0 0.0 0.0 13.706015526360082" Properties=species:S:1:pos:R:3:forces:R:3 energy=-426143.71875 stress="-0.003757252125069499 0.0006472458189819008 0.00024231928546214476 0.0006472458189819008 -0.0030314128380268812 0.0006789327308069915 0.00024231928546214476 0.0006789327308069915 -0.0021904294844716787" pbc="T T T"
La      13.68740055      13.48665301      -0.58996275      -0.01366818       0.00993335       0.01610303
O        8.77667190      12.66720276       4.48388352      -0.00729799      -0.01610219       0.00208604
N        6.67729461      11.88906211       3.61337617      -0.01449490       0.00099790       0.00529110
C        7.71883964      12.26120567       4.04687471      -0.01166514      -0.00750028       0.00375956
O        6.34141581      12.30420394       8.11584190      -0.03891891       0.05227606      -0.03371961
N        7.58780148      13.21866963       9.92643223      -0.03798437      -0.03376938      -0.04815161
C        6.87627758      12.79574598       9.02062261      -0.03124207       0.01693095      -0.03831998
O        7.53918133      13.71288776      13.24593428      -0.01875555       0.04300892      -0.06087494
N        7.06408988      14.06722832      10.93651246       0.01644060       0.01804113      -0.02062014
C        7.34728013      13.82804559      12.10688422      -0.00459799       0.02767199      -0.03057641
O        8.85033358       6.81333750       7.79577017      -0.00501692       0.00745707       0.01383212
O        7.54616999       5.02216634       7.83924513       0.00882460      -0.00278912       0.00302976
O        9.78165930       4.76868657       7.92260521       0.01055598       0.01369971      -0.00118059
C        7.51973813       7.31936840       8.06488517      -0.00943863      -0.00656325       0.01833171
C        6.64575639       6.14378805       7.66993929       0.00238746      -0.00823249       0.00086522
C        8.80897406       5.46707771       7.85659183       0.00522697       0.00671634       0.00473707
H        7.37204513       8.21924574       7.47860112      -0.01442304       0.00045627       0.03091520
H        7.45627108       7.55544075       9.12876062      -0.01366234      -0.02230402       0.02126658
H        5.80451894       5.99018233       8.33623904      -0.00447431      -0.01949080      -0.01075861
H        6.30843923       6.15788178       6.63377703       0.01488990      -0.00281336      -0.00300926
O        3.16145006       6.15073891      10.88199940      -0.01590711      -0.01491523       0.00586186
O        4.89736866       4.94110115      10.19481985      -0.00779518      -0.00145671       0.00395283
O        5.22512254       7.05995336      10.87975030      -0.02447754       0.00148731       0.00077844
C        2.59507439       4.88713203      10.48324031      -0.00636715      -0.02051340       0.01125059
C        3.74391856       4.18662270       9.76519092      -0.00263793      -0.01272264       0.01029637
C        4.50311648       6.13182369      10.68228666      -0.01684171      -0.00423580       0.00323293
H        1.74998354       5.07882496       9.82572620      -0.00907546      -0.02891439       0.01293314
H        2.26103782       4.36210472      11.37831923       0.00038542      -0.02033448       0.01376161
H        3.87570854       3.14880500      10.05645784       0.00743287      -0.01050699       0.01302971
H        3.67122503       4.25388936       8.68132425      -0.00671076      -0.01697013       0.01061416
O        1.53444557       3.78704578       7.62833635      -0.00551728      -0.00211021       0.02430763
O        0.70747866       2.73277316       5.85349503       0.00945196      -0.01721558       0.02733338
O        1.69300428       1.54676461       7.50606859       0.01414034      -0.00036192       0.03700995
C        0.89245293       4.81427121       6.84163780      -0.00770364      -0.00979567       0.01823640
C        0.73071850       4.13348888       5.50073385      -0.01169495      -0.01919021       0.02256745
C        1.34004513       2.58326497       7.03216892       0.00556675      -0.00659567       0.03014648
H        1.52730086       5.69217321       6.80052835      -0.00907063      -0.00949651       0.00962295
H       -0.06617901       5.05937410       7.29972031      -0.00575691      -0.00549331       0.01863448
H       -0.19660095       4.40248521       5.00808084      -0.02044022      -0.03395626       0.03195535
H        1.57949059       4.29702884       4.84108766      -0.02200082      -0.00742172       0.01214293
O       10.21521083      11.70232522       8.04670080       0.00782859       0.01495120      -0.01562460
O       12.27590599      12.01786499       8.83375069      -0.00571814       0.02245624       0.01507215
O       11.47343703      13.37301353       7.20516080       0.01047867       0.02643466       0.01312113
C       10.35898403      10.79002188       9.14577080      -0.00362945       0.01448218      -0.01265872
C       11.87018336      10.71112361       9.27881321      -0.00504065       0.01892471       0.00558392
C       11.33235188      12.45605573       7.94752526       0.00465645       0.02186245       0.00486755
H        9.87521823       9.85081718       8.89004364       0.00182439       0.01346058      -0.01772557
H        9.86144403      11.22922160      10.01216794      -0.01477668       0.01241587      -0.01819938
H       12.26131582      10.57376099      10.28643244      -0.00805448       0.01509938       0.00606245
H       12.31110394       9.97101442       8.60986249       0.00659138       0.02321428       0.01013944
O        7.67511502       9.30338904       4.61449533      -0.00984365      -0.00803554       0.00504434
O        5.99531923       9.76937807       5.98809360      -0.01038128      -0.00467551       0.00220518
O        8.09705259      10.32565103       6.56659229      -0.00820339      -0.02779830       0.01404548
C        6.49712302       8.92727150       3.87254124      -0.00926295       0.00074132      -0.00008702
C        5.43364937       8.93130133       4.95723310      -0.01432860       0.00721923      -0.00544342
C        7.32210425       9.87436780       5.77372535      -0.00911498      -0.01524872       0.00785276
H        6.66695319       7.95116131       3.42575792      -0.01399536      -0.00002894       0.00023113
H        6.33898997       9.69931228       3.12491559      -0.00092297       0.00206524      -0.00004843
H        4.48753237       9.36681055       4.65276593      -0.00687513       0.01965612      -0.00878876
H        5.28408425       7.94127717       5.38349389      -0.02767586       0.00743258      -0.01078829
O        4.52711798       3.25180243       2.52527601      -0.02063031       0.01412708      -0.00896224
O        2.64400462       4.28867607       1.96008808      -0.00445431       0.01595701      -0.05641033
O        2.58077712       2.61029651       3.46386585      -0.04410058       0.02076423      -0.05374217
C        4.94291818       4.33582455       1.65456407       0.00143445       0.01236252      -0.00127368
C        3.63482381       4.71989837       0.99529926       0.01984206       0.01061603      -0.03506371
C        3.20991513       3.31093874       2.72635207      -0.02493164       0.01796296      -0.04079938
H        5.69867897       3.95258064       0.97282890       0.01724452       0.01139086       0.01781461
H        5.35395190       5.13177567       2.27232238      -0.01390387       0.01333046       0.00638372
H        3.52912986       5.78777464       0.82985468       0.02266032       0.00895998      -0.04494850
H        3.45595211       4.16070063       0.07405241       0.04051533       0.00364724      -0.03446588
O        1.58582479      12.56053242       4.90186552      -0.01474924      -0.02688935      -0.02880211
O        2.69799498      10.73218376       5.48742341       0.00991520      -0.00796204      -0.02133943
O        0.79283732      10.54054235       4.30125390       0.03119636      -0.03630757      -0.05039054
C        2.88886748      13.03011984       5.35959174      -0.03598105      -0.00148255       0.00097270
C        3.41456238      11.83435896       6.11839763      -0.01719907       0.00129664      -0.00759602
C        1.61089040      11.22773773       4.85975578       0.01187712      -0.02499655      -0.03449288
H        2.73474788      13.91600817       5.96731069      -0.06857686      -0.01683566       0.01311171
H        3.47409919      13.24928918       4.47173080      -0.02660489       0.02923685       0.01587445
H        4.47967743      11.65963112       5.98725756      -0.01319069       0.02360224      -0.00018851
H        3.14871200      11.85042398       7.17524573      -0.02444065      -0.01340151      -0.01016909
O       11.98394134       8.49028762       6.25693682       0.00637886      -0.02324362       0.00976640
O       11.04652363       7.00842913       4.89327906      -0.00178945       0.00503011      -0.01466579
O       13.21074206       6.80743891       5.40928840      -0.00850153      -0.02796903      -0.00194906
C       10.58657733       8.86800336       6.22164209       0.01197964      -0.00383353       0.00350842
C       10.01299870       7.98905510       5.11749074       0.00318497       0.00616254       0.00019976
C       12.17212938       7.39363178       5.52364330      -0.00219488      -0.01672146      -0.00223311
H       10.49992643       9.93133764       6.02533611       0.02810706      -0.00257933       0.00413756
H       10.15269348       8.63905646       7.18895729       0.00421934       0.00180377       0.00077501
H        9.11057892       7.46662661       5.41475515       0.00385919       0.00662711       0.00280958
H        9.83392293       8.52511660       4.19381094      -0.00253610       0.01244521       0.00520980
O       10.26748996       7.22466654      10.21214121       0.01264557      -0.00979377       0.01064339
O       11.42943352       7.33578715      12.10953714       0.03461515       0.00126124      -0.00411326
O        9.27505543       8.00513597      12.07065420       0.03363398      -0.00706388       0.02008015
C       11.55413769       6.66229801       9.87651499       0.01126382      -0.00371197      -0.00445747
C       12.40359896       7.00235143      11.09883734       0.02325499      -0.00719191      -0.01178486
C       10.22475460       7.54677516      11.51406784       0.02753907      -0.00526127       0.00958362
H       11.90088548       7.13201421       8.95791936       0.00047338       0.00123149      -0.00567874
H       11.42604964       5.59490027       9.71013161       0.01277336      -0.00290409      -0.00860276
H       12.99794626       6.16650718      11.46065763       0.01953435      -0.01088402      -0.01512934
H       13.04484982       7.87210094      10.94062833       0.02817631      -0.01237187      -0.01777141
O        7.10285099       5.04010719       4.29148640       0.00989909      -0.00652295      -0.00215147
O        8.22038881       3.39848368       5.30005879       0.01263332      -0.01017036      -0.01205708
O        6.03012834       3.67257617       5.73630866       0.01610935      -0.00678805       0.00084817
C        8.37918743       4.98507677       3.61997872       0.00723476      -0.00466055      -0.00715709
C        9.21311217       4.15018480       4.58157804       0.01023105      -0.00973828      -0.01467755
C        7.02141256       4.00208054       5.16547128       0.01319379      -0.00735295      -0.00383991
H        8.73833985       6.00017756       3.47702734       0.00717850      -0.00431731      -0.00316751
H        8.24085733       4.50873877       2.64749643       0.00401314       0.00007918      -0.00867391
H        9.87323840       3.44036745       4.08931211       0.00491223      -0.00926155      -0.02172738
H        9.77567199       4.75164498       5.29655707       0.01529956      -0.01414591      -0.01524639
O        1.85410197       8.30966990       7.36776384       0.00696288       0.00756975       0.00778668
O        2.51499820       9.96408123       8.70148814       0.01927070       0.00097006       0.00975621
O        0.55862448      10.13426015       7.61152562       0.02174687       0.01744115       0.01454607
C        3.06576856       7.83694582       7.98527611       0.01093204       0.00039583      -0.00600389
C        3.66416003       9.09675484       8.59887564       0.01745588      -0.00589877       0.00137962
C        1.55341595       9.52417651       7.86024016       0.01785702       0.00871265       0.01063150
H        3.68028656       7.36788414       7.21932428       0.00398168       0.00677946      -0.01555917
H        2.78878612       7.10666930       8.74519202       0.01657580      -0.00775376      -0.01167738
H        4.07117393       8.94090570       9.59455464       0.01756406      -0.01544780      -0.00035042
H        4.40144981       9.57785278       7.95453475       0.02198294      -0.00841278       0.00391304
O        4.73864220       0.47027834       3.12553199      -0.01622239       0.00447611       0.00284827
O        6.47772670       0.98855292       1.86024735      -0.01952404      -0.00748312      -0.00631168
O        4.67085552       0.02669042       0.93037510      -0.02212083      -0.01512414       0.00691998
C        5.68646892       1.01741447       4.06156425      -0.01108170       0.00648063      -0.00390983
C        6.84837563       1.45437934       3.16664575      -0.01383811      -0.00072041      -0.01057920
C        5.25628896       0.44912454       1.89441405      -0.01996791      -0.00704437       0.00209057
H        5.97323308       0.22482774       4.74814284      -0.01026213       0.00899392      -0.00148016
H        5.21102083       1.84071431       4.58311412      -0.00728011       0.01002908      -0.00650358
H        6.95254397       2.53493967       3.10405777      -0.01140086      -0.00138032      -0.01657670
H        7.79660139       1.00109777       3.44649853      -0.01382416      -0.00130457      -0.01149674
O       11.70579388      11.55677484      12.53605063      -0.01369083       0.01183271       0.02330932
O        9.83715271      12.61055684      12.03344889      -0.01324213       0.00033647      -0.00133491
O       11.83304042      13.61904139      11.73518631      -0.01678365       0.01377392       0.02706885
C       10.65889169      10.54583129      12.76849025      -0.01150072       0.00768507       0.01412545
C        9.40055141      11.39219421      12.76195706      -0.01438046       0.00270104      -0.00000370
C       11.12266460      12.65554741      12.06424171      -0.01442606       0.00907891       0.01743464
H       10.86922093      10.05846070      13.71199886      -0.01731323       0.01027545       0.01661108
H       10.72041725       9.85602562      11.93745889       0.00028512       0.00709763       0.01594129
H        8.57836324      10.95273421      12.20902877      -0.00804617      -0.00413038      -0.00318846
H        9.07542916      11.72853870      13.74306849      -0.02270821       0.00641418      -0.00441751
O       11.22718351       9.00214004       1.85843906      -0.00143789      -0.01478100      -0.00183142
O       10.75253222       6.82881531       1.73640786       0.00027630      -0.01416576      -0.01270041
O        9.08064969       8.34062332       1.88593949      -0.00036412      -0.01674196      -0.00012286
C       12.50536418       8.37194533       1.70308489      -0.00134367      -0.01333040      -0.00757628
C       12.18205067       6.88349103       1.85979402      -0.00006124      -0.01340273      -0.01063840
C       10.23379197       8.06432898       1.82234225      -0.00055635      -0.01538923      -0.00437707
H       13.16740720       8.76557150       2.47178251       0.00079143      -0.01503511      -0.00892979
H       12.89673044       8.61119897       0.71140616      -0.00521743      -0.01101985      -0.00823545
H       12.61296485       6.27718053       1.06563708       0.00182593      -0.01131713      -0.01091897
H       12.45449315       6.49784589       2.84147814      -0.00126857      -0.01455821      -0.01095134
O       11.66406843       2.43635099       0.76378660       0.06801495      -0.03391412      -0.02386135
O       11.41232360       1.62197112       2.82478368       0.01189008       0.00995737      -0.01434398
O        9.89431944       1.11388360       1.24488046       0.05281924      -0.02083321      -0.04560608
C       12.89130102       2.74452323       1.43176424       0.04069781       0.00761986       0.00823493
C       12.61749728       2.41612663       2.89422635       0.00782788       0.01622394       0.00352484
C       10.87964891       1.68090374       1.58972544       0.04627603      -0.01671849      -0.02935208
H       13.15682321       3.78280371       1.24392428       0.01093648       0.01365702       0.00339889
H       13.69057700       2.10556946       0.99845260       0.06608650       0.02687773       0.03549708
H       13.39877884       1.83378039       3.37830507       0.00342181       0.02522492       0.02052827
H       12.40689414       3.30475104       3.48537754      -0.01461507       0.01733741      -0.00801596
O       12.77878557      12.74409369       3.37167235       0.00244838       0.01127422       0.02715147
O       11.63867705      11.88820679       1.69726751       0.01963276      -0.00572127       0.02446866
O       13.75698828      12.50764019       1.37897269       0.00743699       0.03536037       0.02833433
C       11.47162077      12.36042853       3.98536024       0.00692087      -0.00141542       0.02165163
C       10.60265982      12.06903654       2.77702994       0.01454866      -0.01245290       0.01915246
C       12.75733864      12.37766092       2.14910740       0.01054963       0.01338114       0.02627787
H       11.13902190      13.19886527       4.57939227      -0.00408393      -0.00383964       0.01827084
H       11.69515629      11.49462233       4.60282560       0.01176526       0.00254843       0.02488095
H       10.04498466      11.14140388       2.81614438       0.02171181      -0.01591384       0.02002079
H        9.98862929      12.90245296       2.45516812       0.01029216      -0.01752460       0.01507309
O        2.18327529       6.73707429       4.65369112      -0.00167556      -0.00451121       0.00150442
O        3.87598217       7.12021179       3.26471288      -0.00922713      -0.00321314      -0.00697991
O        4.21022291       5.94166154       5.16181876      -0.00095153      -0.01254272      -0.01531810
C        1.58769712       7.38332346       3.52042465      -0.00678676       0.00465587       0.00918111
C        2.78928112       7.93097835       2.77368349      -0.01007015      -0.00044048       0.00010031
C        3.48529809       6.53977017       4.42156119      -0.00387657      -0.00722197      -0.00752866
H        0.92511969       8.15642024       3.89244717       0.00345597       0.00929174       0.01668127
H        1.04870311       6.62228665       2.95382407      -0.01781669       0.01145816       0.01173355
H        2.74363636       7.82246039       1.69545696      -0.01826006      -0.00185546       0.00069743
H        2.99063986       8.97230084       3.02551797      -0.00489096      -0.00111145      -0.00315754
O        9.06150718       2.83262922      12.14859985       0.02982108       0.03002628       0.02904755
O        7.44991225       4.36672185      12.08890518      -0.00818080      -0.01174700       0.02330056
O        7.86484753       3.28259201      14.00788430       0.04659644       0.03627488       0.03704643
C        9.16920232       3.40959568      10.83442328      -0.00122935       0.00659972       0.01692845
C        7.95922985       4.34033256      10.74607032      -0.01134869      -0.00583610       0.02186427
C        8.10230436       3.47916329      12.85366685       0.02428067       0.01924999       0.03166270
H        9.15045384       2.61480123      10.09219912      -0.00858787      -0.00749213       0.03299195
H       10.11662614       3.94655666      10.77050977      -0.00645185       0.01070935      -0.01123468
H        8.21991105       5.36088544      10.47047651      -0.02263771      -0.00352585       0.02139134
H        7.18462892       3.96810765      10.08445593      -0.00894749      -0.01289088       0.02358711
O        4.67009408       9.04483219       0.87584492      -0.01245165       0.01691738      -0.00977868
O        6.64478935       9.77518019       0.15755189      -0.00520948      -0.00689837      -0.01340953
O        6.31602007       7.55856497       0.50517800      -0.03084916      -0.00244939      -0.01286404
C        4.47774516      10.45393537       0.64413666       0.00452095       0.01937936      -0.00853766
C        5.89593874      10.97291396       0.50899541       0.01020902       0.00169936      -0.01274675
C        5.93068177       8.68576765       0.50385760      -0.01822835       0.00205243      -0.01175845
H        3.95199003      10.88818446       1.49201391       0.01253209       0.02585833      -0.00745532
H        3.88520031      10.57573613      -0.26466166       0.00366724       0.02720530      -0.00645375
H        6.00445747      11.70131837      -0.28608814       0.01758191      -0.00059250      -0.01387677
H        6.28841413      11.37372400       1.44758472       0.01632237      -0.00184685      -0.01411957
