196
Lattice="18.961284031702228 0.0 0.0 0.0 18.961284031702228 0.0 0.0 0.0 18.961284031702228" Properties=species:S:1:pos:R:3:forces:R:3 energy=-2157132.5 stress="-0.0013320104917511344 -0.0003174252051394433 9.479147411184385e-05 -0.0003174252051394433 -0.0013841594336554408 0.00011810737123596482 9.479147411184385e-05 0.00011810737123596482 -0.0007479728665202856" pbc="T T T"
Li      18.18874196      19.26221110       0.86782040      -0.01410834       0.01430884       0.00712692
I       16.66123737      17.25404849      -0.01045382      -0.00008592       0.01227244      -0.00057833
O       14.89423190      17.24687644      -0.18421461       0.00483942      -0.01426897       0.00350902
O       17.19885447      17.77317211       1.64346977      -0.00611767       0.01855821      -0.00501466
O       17.39628209      15.72554240      -0.53520764       0.01957515       0.02834266       0.00425348
O       17.42084685      18.67475101      -0.83628177      -0.02297756       0.02090931       0.00229383
Cl      10.69129439       5.94036034      12.65056465      -0.00923563       0.00265066       0.01039612
Cl      10.89666631       7.29697814      15.19506760      -0.00965913       0.00115150       0.01074997
Cl      11.01340960       4.40770012      15.09064855       0.01178870       0.00264692       0.00687191
Cl       8.51460416       5.77529082      14.56075174      -0.00020832      -0.01622899       0.01848909
C       10.28136271       5.85256266      14.38320108      -0.00183901      -0.00238526       0.01158761
Cl       7.51498381      14.92604914      -0.26769443      -0.01472040      -0.00832000      -0.00748333
Cl       7.66932686      12.20014443       0.70212683       0.01221783      -0.00136274       0.00586219
Cl       7.29686661      14.39128444       2.56779653       0.00252619       0.00504076      -0.00418776
Cl       9.83875759      14.04922235       1.24017520      -0.00128001       0.01850949      -0.01364142
C        8.08217826      13.88809185       1.06365184      -0.00032324       0.00363391      -0.00469016
Cl       3.28453555       0.75452981      18.72487406      -0.00438617      -0.00502686       0.00528561
Cl       0.65918697       1.96229613      18.54590503       0.00108895       0.00037319      -0.01494383
Cl       2.76996309       3.28447027      20.03976109      -0.00705412      -0.00929819       0.00951400
Cl       1.56063082       0.83258636      21.05838625      -0.02490443      -0.00663379      -0.01004110
C        2.10226074       1.71976414      19.58378396      -0.00975771      -0.00436898      -0.00391135
Cl       8.91151282      10.69842223      12.98254738      -0.00550640       0.00880200       0.00408506
Cl      11.21664978       9.31552619      11.91956909      -0.00641415       0.00821084       0.00371299
Cl      11.28037583      12.19167192      12.22494431      -0.00934908       0.00886661      -0.00553785
Cl       9.61793642      10.98837673      10.18458530      -0.01326023       0.00015287       0.00264865
C       10.25984754      10.79560859      11.82825038      -0.00851963       0.00652921       0.00122791
Cl       2.59930464       3.34447408      15.53092993      -0.00945832      -0.00433737      -0.01356708
Cl       3.27019950       6.04839510      16.32134802      -0.00075847      -0.00647575      -0.01587234
Cl       0.56671491       5.07836261      16.67735513      -0.00202405       0.00069426      -0.00901750
Cl       1.58027008       5.58832207      14.00932262      -0.00835831      -0.00293167      -0.01089638
C        2.00551203       5.01567533      15.62781398      -0.00498767      -0.00334242      -0.01217574
Cl       5.09841206      13.84750430       5.11077021       0.00487021       0.01169059      -0.00186145
Cl       3.12146769      14.03680920       3.00249621       0.00169280       0.00600439       0.00076342
Cl       2.80766125      12.08737217       5.12719709       0.00584266       0.01184171       0.00647506
Cl       4.86016332      11.73882001       3.11271777       0.00347328       0.00728378       0.00518131
C        3.97749443      12.92841421       4.07809049       0.00360673       0.00925094       0.00240710
Cl       7.18426722       8.67531019       0.50601335       0.00375089      -0.00132297      -0.01522761
Cl       4.65269241       8.25701094       1.86326587       0.00995871       0.00158232      -0.00499946
Cl       5.59058449       6.32889264      -0.08269328      -0.00115233      -0.00180590      -0.00523949
Cl       4.69271277       8.95430735      -0.94984965      -0.00110695      -0.00216682      -0.00568098
C        5.52315425       8.05280979       0.33775443       0.00305814      -0.00101406      -0.00816150
Cl       0.17960781      10.04282247      13.54605568       0.01036967      -0.01938999      -0.00027937
Cl       0.92919936       8.79290728      16.05422092      -0.00185055      -0.00665063       0.00861102
Cl      -1.55856664       8.07490748      14.78921820      -0.00122309      -0.00398606       0.00582512
Cl      -1.25527240      10.70967598      15.96324313       0.00630808       0.00052950      -0.00816399
C       -0.42852652       9.40636919      15.08599835       0.00343367      -0.00734004       0.00164087
Cl      11.37055019      17.24637301       3.84409759       0.00593883      -0.01111961      -0.00857151
Cl      12.92770226      15.54487533       2.08671628       0.01123680      -0.01541471       0.00062059
Cl      14.11533343      17.93203412       3.21576955       0.00087959      -0.00226682      -0.01623160
Cl      12.05238751      18.16705077       1.18881889      -0.00262120      -0.02618843      -0.01496226
C       12.62106291      17.23536249       2.57796331       0.00400536      -0.01371299      -0.00966918
Cl       2.81173525      17.84389171       4.96074546       0.00557208      -0.00090882      -0.00986275
Cl       2.09589231      15.37347872       6.27600221      -0.00371869       0.00582170      -0.00480986
Cl       0.42531766      17.71640279       6.60639760      -0.00157344       0.00952712      -0.01939710
Cl       3.03701823      17.60997101       7.85316576      -0.00820422       0.01028672      -0.00821695
C        2.09082385      17.12965468       6.43270994      -0.00216011       0.00611502      -0.01066156
Cl       5.69660690       0.93232466       3.21646326      -0.01706347      -0.01585621      -0.00809595
Cl       6.93933824      -0.90675283       1.34517210      -0.00578023      -0.00360399      -0.01078179
Cl       8.58701493       0.73773009       3.06958492      -0.01412696      -0.00694948      -0.00107071
Cl       7.09980506       1.95247194       0.89302376      -0.01248031      -0.00138482       0.00260246
C        7.08438636       0.67481088       2.13200656      -0.01226884      -0.00704896      -0.00379017
Cl      11.62492840       1.12667883       9.86427430      -0.00192001       0.00293186      -0.00770530
Cl      11.83784601       2.94143929       7.61430053       0.00245465      -0.00173475      -0.00970626
Cl      14.21136397       2.19560005       9.11299240      -0.00086457       0.00217386      -0.00356772
Cl      12.22643481       3.91976247      10.31339789      -0.00347526       0.00365421      -0.01144719
C       12.47828416       2.53897259       9.22598441      -0.00089518       0.00180879      -0.00800418
Cl       4.69892537      -1.83057812      16.94253748       0.01177329      -0.00339465       0.00858319
Cl       7.43343540      -1.41589852      16.10621178       0.01152271      -0.00118391       0.00979389
Cl       5.54088237       0.79642162      16.07361385       0.01021910      -0.00387084       0.00582395
Cl       5.31099753      -1.35325610      14.14118744       0.01275475      -0.00655958       0.00919974
C        5.75171583      -0.95448372      15.80536688       0.01159252      -0.00359048       0.00856064
Cl       1.55442424       7.83330102       8.00622323      -0.00847235       0.00261068       0.00867003
Cl       0.07302578       7.85126201       5.51112233       0.00014742       0.01306060       0.00385314
Cl      -1.34043253       7.97042677       8.03996774      -0.00835645      -0.00280781      -0.00099510
Cl      -0.03302662       5.52735500       7.24691505      -0.00122996       0.00415683      -0.00983892
C        0.06002844       7.29659476       7.19820877      -0.00435241       0.00428104       0.00061383
Cl       4.97201319       4.49228642       3.39596768       0.00886711      -0.00315076      -0.00039446
Cl       7.00238612       4.20296346       5.44585272       0.00589138       0.00260532       0.00583073
Cl       5.63283077       6.73358886       5.10209280       0.00214395      -0.00237083      -0.00044206
Cl       7.52886874       5.82563229       3.10784147       0.00748530      -0.00065672       0.00480139
C        6.28375954       5.31163471       4.26670278       0.00588192      -0.00144150       0.00215163
Cl      18.36876223      12.82862058       4.04008519      -0.00239769       0.00984538       0.00476825
Cl      18.87348460      12.97684281       1.18455725      -0.00381500       0.01246661       0.00476366
Cl      18.91731883      15.38413163       2.79821040      -0.01127225       0.00998223       0.00422394
Cl      16.40582567      14.03687176       2.28813496      -0.00719684       0.00388415       0.00457393
C       18.14396658      13.80370104       2.57294005      -0.00647619       0.00901833       0.00484736
Cl       3.12186329       7.89194992      11.48297940       0.01303983      -0.00347537       0.00256646
Cl       3.17744639      10.70423885      10.79197386      -0.00694630      -0.00143480       0.01254275
Cl       5.66213700       9.26969220      11.24166615       0.00347984       0.01174179      -0.00642493
Cl       3.90227932       9.85738698      13.47191822       0.01256742      -0.00662807       0.00486147
C        3.97162233       9.43144154      11.74629626       0.00570378       0.00003682       0.00326731
Cl       8.77559514      18.16061149       7.88014531       0.00135452      -0.00173265      -0.02006853
Cl       7.24077731      15.69742846       7.96834923       0.00285897      -0.00431347      -0.00563344
Cl       8.72717654      16.37874936       5.58727808       0.00763467      -0.00879177      -0.00444919
Cl       6.36437277      17.89058722       6.28900599       0.00287032      -0.00941738      -0.01190652
C        7.77442924      17.03662053       6.93315775       0.00281601      -0.00705762      -0.00930155
Cl      14.03191124       7.42503405      11.51210516      -0.00338393       0.00193059       0.01422835
Cl      16.65182498       8.61966226      11.23186332      -0.00310856      -0.00143109       0.00562266
Cl      14.65370648       9.90620038      12.88338745      -0.00126015       0.00854802      -0.00095525
Cl      14.36432083       9.87932457       9.99455159      -0.00262372      -0.00752977      -0.00011733
C       14.91923519       8.96287710      11.40790734      -0.00245633       0.00028752       0.00457377
Cl       8.86500539      -0.15104298      12.33272974       0.01976489      -0.00274691       0.01548715
Cl       8.51569724       1.65786211      14.57119663       0.02329168      -0.00215406       0.00590777
Cl       9.15822671       2.70754005      11.96453623      -0.00007829      -0.00092372       0.00071755
Cl      11.15608955       1.22329259      13.45945463       0.01952571       0.01291015      -0.01224460
C        9.42318082       1.36624174      13.08012122       0.01588214       0.00268200       0.00110642
Cl       7.62008404       9.36447112       4.00148970       0.00043684       0.00083673      -0.00788599
Cl       5.72506419      10.05964060       6.10775787       0.00039953      -0.01164021      -0.00451550
Cl       7.92065979      11.82672633       5.44914883      -0.00132933      -0.00732142       0.00651743
Cl       8.42133423       9.30322646       6.79153299       0.00098941      -0.01423603      -0.00911090
C        7.42565663      10.13799081       5.58362265       0.00007111      -0.00819799      -0.00387583
Cl       3.36362999       4.65001585       6.81879707       0.00213014      -0.00099635       0.00765908
Cl       1.89226614       2.87760942       5.06245906       0.01293069       0.00468894      -0.00635383
Cl       1.77784389       2.47923869       7.92300416       0.00234926      -0.00823919      -0.00891373
Cl       4.22986202       1.91581424       6.49221912       0.00857925       0.00261265      -0.00200583
C        2.81802658       2.98354085       6.57848702       0.00666745      -0.00076582      -0.00236160
Cl      17.40935930       3.35767057      14.25123884      -0.01202005      -0.00841207      -0.00159955
Cl      17.06267798       5.31941780      12.14744176      -0.00136467      -0.00588584      -0.00066891
Cl      14.92653403       3.46154368      12.75998530      -0.01072967       0.00499661      -0.00313493
Cl      17.34667456       2.51610382      11.47388907      -0.01359497      -0.00718284       0.00035673
C       16.68883420       3.66148188      12.66178399      -0.00964950      -0.00390032      -0.00132689
Cl      11.57650997      10.84299581       6.17813175      -0.00190310       0.00176775      -0.00526093
Cl      10.29438181      13.13706167       7.42455544       0.00216681       0.00120540      -0.00160351
Cl      12.23185185      13.52327777       5.30990546       0.00607024       0.00191554       0.00277352
Cl      13.08316875      12.57754923       7.92913861      -0.00023144      -0.00648948       0.00087038
C       11.79599026      12.52130210       6.70256783       0.00149511      -0.00034296      -0.00075813
Cl       7.28512716       5.52648371      11.12627250      -0.01180263       0.00561501       0.01308262
Cl       8.72271770       7.69941100       9.87800288      -0.00187233      -0.00653711       0.00442806
Cl       6.43383891       6.52117906       8.54275580      -0.00430268      -0.00371081       0.00736466
Cl       8.90855565       5.02657572       8.77609904      -0.01119086      -0.01206267       0.01780254
C        7.83204065       6.18976118       9.58076865      -0.00737693      -0.00408533       0.01076761
Cl      11.80421383      13.99586240      15.22439927       0.02246621       0.01508206       0.00005786
Cl      10.41964452      15.81676255      16.99810636      -0.01307082      -0.00350228      -0.01020414
Cl      11.28412447      16.71661149      14.38086069       0.01322445       0.01546428       0.00603795
Cl      13.23334275      16.19133920      16.47307621      -0.00902355       0.01837380       0.02627620
C       11.69909324      15.68249500      15.76696054       0.00310910       0.01165822       0.00553848
Cl      16.53870738      13.41200786      13.29408160      -0.00108409      -0.00255868       0.00060502
Cl      16.78335833      15.09218414      10.94248210       0.00058419      -0.00352043       0.00071943
Cl      14.91835018      15.80373062      13.05096162       0.00743294       0.00270665       0.00403559
Cl      14.39209771      13.52087395      11.34615558      -0.00379595       0.00529847       0.00467759
C       15.65653467      14.46409257      12.16239601       0.00085418       0.00048242       0.00237596
Cl      15.57514341       7.76680436       1.73456874      -0.00275081       0.00392270      -0.01337010
Cl      15.70026151      10.29104097       3.15903528      -0.00929078      -0.00604421       0.00367913
Cl      16.25206430      10.20352566       0.31930057      -0.00996849       0.01473558       0.00329655
Cl      18.13831295       9.05183422       2.19179002      -0.00658906       0.00785360      -0.00533076
C       16.41052138       9.32932481       1.85011984      -0.00695384       0.00529244      -0.00292747
Cl      15.83613267       3.49030350      18.15355555       0.01082420       0.00838912      -0.00286043
Cl      14.52585205       5.31048232      16.31011721       0.00325824       0.00532633       0.00503165
Cl      13.05266339       4.21218261      18.55103642       0.01006430      -0.00616071       0.00431409
Cl      13.80404037       2.49665967      16.33643754       0.01364130       0.00136572      -0.00079677
C       14.29813966       3.88121350      17.33318887       0.00841400       0.00185576       0.00084636
Cl      13.04431941       8.98436640      17.58808976       0.00179128       0.00604653      -0.00175008
Cl      14.19036363      11.33490245      16.33641491       0.00399494       0.00568007       0.00087124
Cl      12.09871515      11.62421416      18.32869220       0.00380878       0.00581867      -0.00038370
Cl      11.47403507      10.54479520      15.71525652       0.00422081       0.00831332      -0.00110590
C       12.69915992      10.62321089      17.00058289       0.00336602       0.00630431      -0.00068939
Cl      14.85659878       2.05776725       5.29594444      -0.00045449       0.00333153      -0.00812216
Cl      17.30713959       2.46931566       6.78460108      -0.00727840       0.00256225       0.00277853
Cl      17.38098702       1.14208387       4.20393015       0.00648871       0.01747110      -0.00283813
Cl      16.22383521      -0.19398818       6.49281025       0.00049383       0.00150663      -0.01516724
C       16.43440239       1.37289521       5.70249544      -0.00030402       0.00592433      -0.00584624
Cl      16.08154377       5.56659405       4.78234135      -0.00842512       0.01385516      -0.00074619
Cl      14.52774545       7.82979542       5.70749436      -0.02222033       0.00079310       0.00703418
Cl      14.74811696       5.44683453       7.34992886      -0.00514156      -0.00204691      -0.00087261
Cl      13.18954446       5.39077881       4.90164194      -0.00620210      -0.00505988      -0.00030679
C       14.64226014       6.06070100       5.69012828      -0.01072034       0.00190820       0.00138259
Cl       1.36895574      13.86389296      14.58117175      -0.01727131      -0.01218127       0.01433903
Cl       1.88400229      14.63406036      17.32901979       0.00677544      -0.00669926       0.00598034
Cl       4.08281408      13.85275853      15.59481148      -0.00715685       0.00261861      -0.01582420
Cl       2.18771315      11.87128735      16.51850601       0.01574050      -0.00632626       0.00751853
C        2.37920144      13.56143790      16.00643438      -0.00053593      -0.00595310       0.00335920
Cl       5.45700042      15.30674474      11.13825080      -0.00617847       0.00705504       0.00370464
Cl       8.16781548      14.34475089      11.53087420      -0.01154056      -0.00444952       0.00727206
Cl       6.34791627      12.89056392       9.80174603      -0.01260018       0.00817603      -0.00135335
Cl       5.92841397      12.89608338      12.66720258      -0.01895133       0.00056136      -0.00316110
C        6.47902171      13.85973336      11.29131008      -0.01238830       0.00284767       0.00170013
Cl      18.88153114      11.27470983       7.17752232       0.01293710      -0.00800377       0.00619674
Cl      16.34555821      12.55572060       7.74062895       0.00878572      -0.01262168      -0.00443417
Cl      18.82307978      13.95100333       8.27244002       0.00421625      -0.00712371       0.00105007
Cl      18.04668409      11.69404570       9.92071649       0.00284666      -0.00512935       0.00239193
C       18.02226635      12.37414867       8.28336029       0.00719257      -0.00838505       0.00126404
Cl       1.70001155      -1.38640162      15.13690656       0.00485903       0.00635934       0.00240874
Cl      -0.90880236      -0.15945562      15.14690193      -0.00217754      -0.01039246       0.00214887
Cl      -0.14088032      -1.86530503      12.93807016       0.00698026      -0.00741908       0.00434074
Cl       1.10453277       0.73572481      13.26409051      -0.00477508      -0.00341159      -0.00248805
C        0.43266852      -0.66944798      14.12128506       0.00032555      -0.00282398       0.00222793
Cl       3.51350320       0.87220666      10.79556086       0.01866901      -0.02159727       0.00033768
Cl       6.25263779       1.08647753       9.88292620       0.01506263       0.00642246       0.00016409
Cl       5.46926426       2.23306267      12.43540934       0.00614688      -0.01115817       0.00598305
Cl       4.57191413       3.44102407       9.96042993      -0.00509673      -0.00899917       0.01144600
C        4.95268382       1.91292969      10.76518089       0.00897036      -0.00858945       0.00501059
Cl      14.38464456      15.93214460       6.95147094       0.00825536      -0.00506264       0.01602411
Cl      14.19834503      17.44551264       9.40834135       0.00538051       0.00844260       0.00609976
Cl      11.88801539      16.01303162       8.42531767       0.00688660       0.00018430       0.01415050
Cl      12.80289544      18.35755763       7.01849377       0.00434603      -0.00785726       0.00100225
C       13.31671147      16.94483772       7.95252114       0.00626181      -0.00123760       0.00946735
