198
Lattice="12.487289613328551 0.0 0.0 0.0 12.487289613328551 0.0 0.0 0.0 12.487289613328551" Properties=species:S:1:pos:R:3:forces:R:3 energy=-338293.6875 stress="0.0034819734282791615 0.0002592514065327123 -0.0008911417971830815 0.0002592514065327123 0.0030076266266405582 0.00032502303656656295 -0.0008911417971830815 0.00032502303656656295 0.002228018594905734" pbc="T T T"
Li      13.07697978      10.49146352      -2.03269691       0.00278716      -0.00032466      -0.00330310
I        9.99303286       9.02099401       2.00435865       0.00242837      -0.00220779      -0.00521892
O       11.29636069       8.34642410       3.05152120       0.00450674      -0.00900745      -0.01097183
O       10.52068115       8.69104275       0.32604598       0.00094107       0.00451076      -0.00654025
O        8.52721787       8.08701031       2.47311370       0.00207449      -0.00193571      -0.00443026
O        9.86899978      10.75018676       2.40964480       0.00655879      -0.00371158       0.00501797
O        1.80096342       1.42735292       9.28589454      -0.01067540       0.00043530      -0.00345641
H        1.70554056       0.89027851       8.47263087      -0.00926234      -0.00189365      -0.00233639
H        1.66547103       2.35040728       8.98812854      -0.00741437      -0.00017640      -0.00725006
O        8.93700058      12.41139643       4.75990621      -0.00419176      -0.00167456       0.00260064
H        9.48519853      13.13825809       4.42479627       0.00074748      -0.00476705       0.00773871
H        8.62921100      12.68117215       5.64900967      -0.00642563      -0.00248589       0.00320178
O        0.60823133       9.60984282       6.74260555      -0.00520728       0.00365186      -0.00311890
H        1.26008504       9.11982578       7.26521531      -0.00260382       0.00863195      -0.00048836
H       -0.21224066       9.11977060       6.96259487      -0.00246419      -0.00097320      -0.00293170
O        4.09399867      11.70629621       7.62798361      -0.00001347      -0.00551064       0.00521149
H        4.23751985      12.57207651       7.19873650       0.00272829      -0.00695116       0.00800277
H        4.47590525      11.03846848       7.01249064       0.00061054      -0.00643226       0.00346047
O       11.69284366       5.34474671       5.52842109       0.00445904       0.00233483      -0.00748700
H       12.57119124       5.77723513       5.53920391       0.00220176       0.00709884      -0.00712826
H       11.43251104       5.29174644       6.46188947       0.00407122       0.00080435      -0.00719599
O        2.01904905       0.90633445       1.06238310       0.00587234       0.00120936       0.00431904
H        2.62982977       0.41425545       0.48315259       0.00385012      -0.00298009       0.00458393
H        2.57818582       1.31094321       1.75612674       0.00800270       0.00393007       0.00058312
O        5.59422212       8.65933580       0.36791436       0.00096641       0.01175350       0.00375715
H        6.41289559       9.21124612       0.43232977       0.00506548       0.01065229       0.00285799
H        4.91397209       9.17608938       0.81534386       0.00381362       0.01394585      -0.00415601
O        4.81965922      11.73076547       2.32791123       0.00137091       0.00726485       0.00329136
H        5.18147152      10.92321455       2.74664234       0.00391207       0.00734189       0.00382753
H        4.41572633      11.48858948       1.47650334      -0.00243459       0.00394220       0.00642164
O        6.23995857       2.48861325       3.83030272       0.00374281      -0.00094275       0.01077988
H        6.71455128       1.79538765       3.31363354       0.00537125       0.00323576       0.00533492
H        5.31144232       2.38599327       3.54958911       0.00240063      -0.00678165       0.01569645
O        6.64257706      10.13632572       3.61064328       0.00400007       0.00252782      -0.00277358
H        6.29482435       9.92368793       4.49604579       0.00301353       0.00233763      -0.00015596
H        7.11583662       9.35269337       3.30234717       0.00228375       0.00448216      -0.00183427
O        4.57536297       1.84268347       6.46527502       0.01093742      -0.01268841       0.01548198
H        5.20625138       1.87399182       5.73219464       0.01703866      -0.01280438       0.02221201
H        3.72860018       2.13762350       6.08877988       0.01335267      -0.01317887       0.00647427
O        8.00870116       3.19516981      10.57376616       0.00084341       0.00483151      -0.01043416
H        7.38333337       3.43818240      11.27819646      -0.00221010       0.00697905      -0.01060699
H        8.78844847       3.76672726      10.70245265       0.00179078       0.00077995      -0.00639787
O        8.79362589       7.40247352      10.83887822       0.01029188      -0.00227949      -0.00229503
H        8.45075700       6.99498275      11.66516899       0.00387582      -0.00191658      -0.00487245
H        9.38984825       8.09872212      11.15050642       0.01079614      -0.00477658       0.00282146
O        2.40855181      10.15377693       9.52165991       0.00253318      -0.00031449       0.00019494
H        2.83699608      10.79615359       8.92705475       0.00566505      -0.00271985       0.00071470
H        2.30481971       9.34334564       8.98058656       0.00245244      -0.00210508       0.00030062
O       12.24744140       3.02544003       4.25243983       0.01063517      -0.00373268       0.00254439
H       11.83541666       3.77254336       4.73720894       0.00885493      -0.00158402       0.00007476
H       11.55807807       2.46524759       3.85427928       0.01298915      -0.00479015       0.00175432
O        8.97468466       2.93602364       5.09175887      -0.00960955      -0.00642210       0.00231718
H        9.15184493       2.98261608       6.05923755      -0.01115724      -0.00190319       0.00656408
H        8.01878752       2.83759390       4.99627828      -0.00313217      -0.00689931      -0.00048451
O        5.05478223       6.70871917       2.35299748       0.00433749       0.00756243      -0.00136852
H        5.42041928       7.23729549       1.62308197       0.00808010       0.01155020       0.00265983
H        5.80993019       6.23865726       2.78850866       0.00130992       0.00632333       0.00205644
O       10.62078877       1.16531683       2.81102148       0.01957785      -0.00756584       0.01524976
H       10.98647592       0.29807251       2.58129144       0.02951137      -0.00274751       0.01197413
H        9.81996351       1.24918322       2.28025617       0.02584188      -0.00749943       0.00555767
O        9.11724427      10.64810346      10.59118471       0.00582376       0.00108320       0.00171737
H       10.07470838      10.51486643      10.61878035       0.00152418       0.00345530       0.00261347
H        8.94276674      11.59757342      10.41172731       0.00256896       0.00372902       0.00124719
O        1.24394364       4.24529720       2.32795558       0.00695163       0.00478056       0.00496212
H        0.73386788       3.85176924       3.06782248       0.00985743       0.00087682       0.00506434
H        0.86940903       3.79589820       1.53699580       0.00818003       0.00356524       0.00506318
O        1.59529968       3.98941008       8.19310158       0.00108755      -0.00378048      -0.01410651
H        1.86297845       3.73233821       7.29756686       0.00903283       0.00043469      -0.01091859
H        2.27833367       4.60518191       8.53075227      -0.00268030      -0.00139547      -0.00589442
O        5.45921385      11.62541161      10.04742035      -0.00201574      -0.00521331       0.00687061
H        5.03326501      11.77427756       9.17338919      -0.00215284      -0.00544742       0.00732510
H        5.71358919      10.68886227       9.98595508       0.00690232      -0.00272121       0.00243337
O        0.25980117       2.93578176       0.12877010       0.00725357       0.00250442       0.00583152
H        0.98468686       3.34402655      -0.38925726       0.00695696       0.00218075       0.00345108
H        0.64550704       2.07818431       0.38191795       0.00704421       0.00265097       0.00518775
O        5.08402181       9.70771103       5.94717221       0.00344761       0.00141677      -0.00292674
H        5.29864735       8.93902767       6.51397318       0.00409693      -0.00146213      -0.00183733
H        4.52235310       9.35009581       5.22165636       0.00239050       0.00225894      -0.00054912
O       11.55816113       5.15364055       8.32291102       0.00118041      -0.00324699      -0.00724931
H       11.18251164       5.13009148       9.23622292       0.00268915      -0.00347891      -0.00643923
H       12.45942896       4.77129410       8.36708039      -0.00060901      -0.00541278      -0.01037162
O        2.65567442       3.96564224      11.70414770      -0.00164038       0.00092836      -0.00689577
H        3.09589404       4.22018916      12.55099036       0.00114278       0.00624558      -0.00948806
H        3.21530215       3.23169398      11.34681658      -0.00228868      -0.00015185      -0.00626894
O        2.23357684       7.77042333       8.14164932      -0.00513568       0.00402062       0.00295082
H        2.06753701       7.32007457       7.28902898      -0.00300540       0.00820154      -0.00075889
H        2.43651150       7.05930110       8.78309205      -0.00675283       0.00060566      -0.00080067
O        3.66324420      11.45510670      12.23339119      -0.00662398      -0.01342714       0.00812873
H        4.24922971      11.62114386      11.46117996      -0.00666485      -0.01479811       0.00375594
H        2.99225877      10.82848664      11.93363346      -0.01056752      -0.00568535       0.01364829
O        3.87041374       4.38473264       1.59940593       0.00072379       0.01615642      -0.01559924
H        3.04277017       4.20034945       2.08698638       0.00605971       0.01404421      -0.00722663
H        4.15445438       5.28830361       1.86393149       0.00486971       0.01453999      -0.01328421
O       -0.68722969       9.06262242      10.11037605       0.00490540      -0.00244622      -0.00254697
H       -1.01223074       8.73208040       9.24923991       0.00433204      -0.00284759      -0.00266153
H       -0.29361959       8.27382112      10.55135915      -0.00076939      -0.00395492      -0.00042565
O        3.85604630       8.84349977       3.67586901      -0.00259130       0.00246385       0.00227024
H        2.88620220       8.83020638       3.63108498      -0.00271696       0.00977124      -0.00307566
H        4.19366569       8.01910184       3.27450200      -0.00396566       0.00398181      -0.00137747
O        3.92600016       5.40924920       6.61130078       0.01018962      -0.04194297      -0.02057375
H        4.49176667       6.12392475       6.98202149       0.01421847       0.02599319       0.00921125
H        4.51886869       4.68234772       6.39725502      -0.01618432       0.04157265      -0.00408741
O        8.35123514      12.51711524       7.38260562      -0.00908363      -0.00292492       0.00360148
H        8.02586442      11.60210704       7.57121117      -0.00774244      -0.00352702       0.00652089
H        8.17282697      12.97372883       8.22851189      -0.00622729      -0.00124507       0.00310447
O        0.53313281      11.43473358       2.24981078      -0.00984589       0.00895347      -0.00648177
H        0.98238332      10.89726208       2.91962263      -0.01761270       0.00259175       0.00039032
H        1.14384696      12.15662727       1.98493897      -0.00403944       0.00347921       0.00186700
O        7.83946281      10.17427526       0.45659107       0.00682891       0.00516596       0.00374398
H        8.30305234      10.37602305      -0.39174604       0.00684475       0.00308584       0.00083730
H        7.85124066      10.99180348       0.97526777       0.00571166       0.00452259      -0.00002714
O       10.18573077       5.05276647      10.63124827       0.00529478      -0.00286561      -0.00405678
H        9.74920388       5.93550519      10.63043882       0.00580467      -0.00162358      -0.00295676
H       10.59642168       4.99310122      11.50774900       0.00670416      -0.00321557      -0.00551254
O        1.71006862       6.58786839       5.64497143       0.00286022       0.01387406      -0.00460550
H        1.80505081       7.26321961       4.95719285       0.01140672       0.00713886      -0.00086395
H        2.55700838       6.09407668       5.70487967       0.00585958       0.00853744       0.00279752
O        0.64419862       7.02095072      11.31764638      -0.00841126      -0.00599562       0.00773273
H        1.48137336       6.80505881      10.88705753      -0.00466570      -0.00489847       0.01152463
H        0.82608797       6.98074168      12.28382262      -0.01656337      -0.00912955       0.00882609
O        5.47186119       7.48259616       7.60812743       0.00262877       0.00360169       0.00154482
H        5.19721830       7.87693253       8.45400178       0.00279097       0.00323597      -0.00240017
H        6.37103085       7.12630023       7.80576510      -0.00112390      -0.00064045       0.00058651
O        9.63648466       3.02002469       7.75121291      -0.03241044       0.00192055       0.01135728
H       10.28915897       3.71625051       7.93693985      -0.00990000       0.00649822       0.00244243
H        8.94612956       3.14970148       8.41279446      -0.01617838       0.01958629      -0.00280464
O        5.70140112       5.76921318      10.37924796      -0.01033689       0.00612281      -0.00905988
H        5.81441411       5.21431207      11.18737395      -0.00639013       0.00462070      -0.00379046
H        5.83174537       6.68029656      10.66557347      -0.03913386       0.00190554      -0.01335320
O        1.07456802       0.08525112       6.99946443      -0.00627334      -0.00132048      -0.00244907
H        1.33113975      -0.83285425       6.84129532      -0.01316134      -0.00496078       0.00201367
H        0.09539870       0.03150417       7.10966973      -0.00671654       0.00486694      -0.00367347
O        9.72488171       5.00695599       3.52536980      -0.00289202      -0.01177111       0.00004373
H        9.51467396       4.23831226       4.11045344      -0.00443385      -0.01035912       0.00113452
H       10.34264784       5.53151658       4.05803620      -0.00014386      -0.01241054      -0.00086380
O        4.09027612       1.96164489      10.62349068      -0.00778264      -0.00287610      -0.00804338
H        4.78439014       2.24666719      10.02232552      -0.00982250      -0.00638290      -0.01135597
H        3.36525213       1.62399909      10.05075764      -0.01149311      -0.00179856      -0.00474437
O        1.94731041       2.25756248       5.66006329       0.01692412      -0.02295414      -0.02337687
H        1.62237045       1.44239213       6.10389521       0.01189864      -0.01769883      -0.01656298
H        1.17770384       2.55212545       5.12420067       0.01159314      -0.01322680      -0.01204303
O        6.90665015       5.23079567       3.54510928      -0.00545342       0.00427620       0.01400988
H        6.70446294       4.27600393       3.55401729      -0.00618613       0.00594795       0.01248561
H        7.87478403       5.30461734       3.47930957      -0.00379090       0.00118484       0.00861824
O       10.42984261       4.39578458       0.93645493       0.00741129      -0.00269480      -0.00186117
H       11.13837994       3.75922217       0.74299799       0.01015195       0.00281009      -0.00123020
H       10.40283165       4.53346252       1.90412846       0.00116299      -0.00763699       0.00056157
O       13.24848280      10.11377642      -0.12392543       0.02429011       0.00306028      -0.00118356
H       12.59929085       9.40326940      -0.03311103       0.04470697      -0.01731534      -0.00022399
H       13.15047417      10.62336151       0.71329100       0.00571592       0.00321101      -0.00420336
O        1.12028601       6.92488059       1.54784098      -0.04057621       0.00338730       0.00716935
H        1.13849556       6.00302242       1.87806189      -0.02367263       0.00231971       0.00715930
H        0.35969265       7.32777850       1.98652208      -0.04845344      -0.01059271       0.00293296
O        8.16475669       5.99050730       0.62005829       0.00524472      -0.00373149       0.00018200
H        8.24378878       6.60895550       1.37028257       0.00588170      -0.00351728      -0.00097865
H        8.93740913       5.39515059       0.68664797       0.00671107      -0.00333953      -0.00118116
O       11.08794078       7.92774155       7.72335607       0.00294755      -0.00410843      -0.00252561
H       11.32798478       6.99730871       7.88872196       0.00498265      -0.00453361      -0.00287330
H       10.21786151       7.91837533       7.27016170       0.00117054      -0.00591160       0.00140096
O        6.19735248       4.20341554       0.04602508       0.00086136       0.00674281      -0.00869563
H        5.45557076       3.99058884       0.63793273       0.00382460       0.00778199      -0.00720219
H        6.79114492       4.80917255       0.53297102       0.00565932       0.00499648      -0.01022162
O       10.34896440      10.27632229       5.35766898      -0.01061395      -0.00770663       0.00251928
H        9.83637967      11.05947447       5.00303258      -0.01118569      -0.00654156       0.00426019
H       10.90919715       9.97492529       4.63302840      -0.00709967      -0.00059206       0.00431451
O        8.78938941       8.36073020       6.32509405      -0.00617577      -0.01190269       0.00831181
H        9.27620923       9.04662174       5.80423131      -0.00863545      -0.01183845       0.00330794
H        8.42189005       7.72820663       5.70154735      -0.00937280      -0.01228397       0.01553370
O        7.39603158      12.85685070       2.44208146       0.00443323       0.00429440      -0.00315684
H        6.51716417      12.45472584       2.30026449       0.00347938       0.00691372      -0.00248454
H        7.76640776      12.36956350       3.20147929       0.00290805       0.00349350      -0.00194222
O        3.58747854      13.99247226       3.29061826       0.01092084       0.01386327      -0.00087777
H        3.02308069      14.03193007       4.08043365       0.00400036       0.01949510      -0.00033536
H        3.93758794      13.08269190       3.20181179       0.00428281       0.01345907       0.00356904
O        2.98083401       5.76800606       9.83057371      -0.00773330      -0.00934227      -0.01449023
H        3.95647635       5.85421074       9.89665037      -0.00691541      -0.01273516      -0.01779832
H        2.77791503       5.12805974      10.56908108      -0.00682065      -0.00548728      -0.01113742
O       12.20487243      12.10832869       9.97757860      -0.00501512      -0.00308992      -0.00041175
H       12.76384944      12.90108150       9.91433582      -0.00825008      -0.00117641      -0.00001363
H       11.74345877      12.04637906       9.11813553      -0.00658035      -0.00284657      -0.00034180
O       11.00946487      11.96657163       7.48524710      -0.00793710       0.00099119       0.00028260
H       10.09532207      12.33797762       7.47406920      -0.00911730      -0.00190428       0.00142923
H       10.95789553      11.22212328       6.85775769      -0.00755465      -0.00142347       0.00243062
O        7.91144634      13.01704471      10.02095939      -0.00091768       0.00223880       0.00492345
H        7.00144926      12.67785569      10.13289808      -0.00172674       0.00259757       0.00782918
H        7.95655117      13.93812345      10.35487046      -0.00039195       0.00326889      -0.00121607
O        7.75436061       6.25213976       8.44139596      -0.00776477      -0.00399144       0.00584154
H        8.19957309       6.83672169       9.07594954      -0.00013619      -0.00340199      -0.00220322
H        7.19167148       5.71681152       9.02549095      -0.01487939       0.00886386       0.01311516
O        7.59848042      10.05518120       8.21816963      -0.00074877      -0.00512691       0.01013080
H        7.88458534       9.35646753       7.60393505      -0.00174449      -0.00533451       0.00980583
H        8.18100452       9.99441956       8.99359749       0.00351101      -0.00217333       0.00741504
O        1.16779612       9.16949058       4.12057730      -0.00368211       0.02641466      -0.01061568
H        0.94864742       9.35433830       5.06317205      -0.00384741       0.01548956      -0.00825154
H        0.33945842       8.86973123       3.70269912       0.00263432       0.00834173      -0.00900339
O        4.92038031       8.78106998      10.16731233      -0.00040731      -0.01172384       0.00813492
H        5.11606845       8.73179008      11.12669570       0.00562426       0.00385362       0.00702307
H        4.04418277       9.19468670      10.10446298       0.00134419      -0.00665805       0.00614734
