198
Lattice="13.647082387713375 0.0 0.0 0.0 13.647082387713375 0.0 0.0 0.0 13.647082387713375" Properties=species:S:1:pos:R:3:forces:R:3 energy=-189808.03125 stress="-0.00044969990267418325 -8.767664985498413e-05 0.0003514065028866753 -8.767664985498413e-05 -0.001381558831781149 -0.0009202223154716194 0.0003514065028866753 -0.0009202223154716194 -0.0008791648433543742" pbc="T T T"
Li      13.37324412      13.20516151       1.90780077      -0.00172576      -0.00053497       0.01176700
O       11.06190230      12.97136667      -0.28900833       0.01359171       0.00075352      -0.00123566
O       11.81301449      12.06993685       2.05769346       0.00240183      -0.00971135      -0.00290132
O       13.51126383      12.26534879       0.20418846       0.01268959       0.00529754       0.00917017
O       11.59081403      10.40778864       0.00650332       0.01963109      -0.00115538      -0.01270694
Mn      11.95773977      11.88201653       0.46351905       0.01417467       0.00046261      -0.00104639
O        7.27252003       1.00911043      13.14496498       0.01402169       0.00603992       0.00017387
O        7.00065635       3.22999529      13.35199921       0.01083261       0.00569451      -0.00115311
C        5.36638680       1.94690603      12.14327929       0.02010339       0.00601120      -0.01339856
C        6.62396009       2.15847613      12.93575047       0.01370281       0.00624365      -0.00451681
H        5.59129993       1.48889150      11.18000317       0.02734829       0.01096410      -0.01413240
H        4.71277974       1.25811484      12.68238672       0.01818408       0.00185323      -0.02110596
H        4.86860889       2.89980949      11.99359764       0.01843945       0.00542551      -0.01239047
H        7.98967038       1.16013251      13.78632509       0.00844258       0.00630739       0.00374952
O        5.51194910       8.85520148       8.38885330      -0.00851893       0.00267330       0.01033571
O        4.35460465      10.76996943       8.30618053      -0.00642049       0.00376114       0.00957872
C        6.71818404      10.86379092       8.66496041      -0.00697201       0.00122207       0.01293869
C        5.42024149      10.17360428       8.44303501      -0.00756198       0.00276996       0.01062876
H        7.19033780      10.51746547       9.58759616      -0.01014341       0.00301112       0.01519606
H        7.38497694      10.60670596       7.83886965      -0.00492857      -0.00182910       0.01575366
H        6.56331806      11.93732561       8.70306852      -0.00525247       0.00145584       0.01000598
H        4.63768524       8.47792269       8.09937954      -0.00867665       0.00332734       0.01003991
O       10.46015517       8.74643970      11.91642648      -0.00218570      -0.00656833       0.00565594
O        8.71100008      10.06221360      11.40245165       0.00663590       0.00685787       0.01052979
C        9.05330939       8.00399914      10.20498024       0.00031614       0.01552033      -0.00596219
C        9.36061913       9.05338791      11.22704221       0.00187108       0.00514090       0.00426900
H        9.87610895       7.94728353       9.49168528       0.00114608       0.02127343      -0.00541890
H        9.00223677       7.02795366      10.68751275      -0.00251420       0.01109940      -0.01558840
H        8.11802241       8.21588108       9.69784212       0.00151600       0.02303128      -0.00507934
H       10.68397364       9.46438362      12.55317640       0.00378609      -0.00840060       0.00535046
O        7.05107500      11.01843951       3.56926408       0.00290173      -0.00564286      -0.00531095
O        8.93126038      11.98384388       2.82658940      -0.00310773       0.00310141      -0.01034351
C        8.57567934       9.67118600       2.37973921       0.01321635      -0.00280732       0.00397134
C        8.22452962      10.98999812       2.96365898       0.00251102      -0.00208622      -0.00501961
H        8.14159447       8.85093586       2.94642167       0.01956280      -0.00185014       0.01028678
H        8.15224950       9.62666196       1.37410967       0.01349084      -0.01425255       0.00431627
H        9.65232496       9.56429584       2.30522343       0.01423319       0.00566828       0.00598037
H        6.81926883      11.96526952       3.82738800      -0.00259287      -0.00608468      -0.00899634
O       11.98421980      13.35423454       5.88865919      -0.00182897       0.00420374       0.00248659
O       11.02306179      11.46071038       6.61805167       0.01548159       0.00024164       0.01603007
C       12.96485651      11.29582078       5.22323271       0.00304097       0.00804532      -0.00314313
C       11.88188375      12.00480814       5.96772380       0.00771862       0.00488633       0.00577670
H       13.50837013      11.95622326       4.55486140      -0.00028528       0.01158704      -0.00226381
H       13.67507611      10.90249450       5.95597174       0.00630593       0.00271457      -0.00948115
H       12.53034207      10.45376017       4.68749232      -0.00032397       0.01128283      -0.00559510
H       11.29934665      13.73373917       6.48317896       0.00041854       0.00223239       0.00552607
O        7.37882142       6.04961149      12.39182168       0.00611496       0.00185734      -0.01585996
O        7.74150691       7.67031405      13.88845761      -0.03881949      -0.01739067       0.01625109
C        6.07409426       8.01169723      12.19391609      -0.00171769      -0.00302479      -0.01660496
C        7.15338080       7.26779069      12.90994344      -0.01334471      -0.00673328      -0.00331295
H        6.16694304       7.91077696      11.11422437       0.00767684      -0.00453154      -0.01560752
H        5.12410846       7.55461492      12.48195358      -0.00660613       0.00238915      -0.02362094
H        6.10292588       9.05781882      12.48178209      -0.00060523      -0.00274055      -0.01666480
H        8.05432951       5.62314049      12.95164724      -0.00564456      -0.00265708      -0.00640741
O        7.93470428       6.16515394       7.96226794      -0.00387594      -0.00272542       0.00342238
O        9.99422153       5.28361337       8.08992174      -0.00275695       0.00385523       0.02459499
C        8.17482430       4.19848717       9.22777287      -0.01091024      -0.00158834       0.00580609
C        8.81825491       5.23748790       8.37205360      -0.00474286       0.00023890       0.01199171
H        8.03523580       4.61326562      10.22919268      -0.01908816      -0.00210266       0.00475940
H        7.19038993       3.93384877       8.84684589      -0.00732082      -0.00222063      -0.00247125
H        8.81895013       3.32608405       9.28610769      -0.01029374      -0.00084439       0.01003865
H        8.40350719       6.83606182       7.44055980      -0.00054774       0.00005084       0.00971046
O        3.02859127       3.69847657      10.21093334      -0.00100663      -0.01140624      -0.00618536
O        4.74657772       3.28686703       8.83984382      -0.01182583      -0.00212789      -0.02297169
C        4.55751069       5.47049240       9.84064425      -0.00077260      -0.01068491      -0.00079301
C        4.15404401       4.06296552       9.55581710      -0.00584856      -0.00710195      -0.01206440
H        4.83223695       5.95153701       8.90450934       0.03255497      -0.01204456       0.00833175
H        3.77216363       6.01620328      10.35405372      -0.01137008      -0.00467086      -0.02246392
H        5.44531097       5.45407966      10.47627701      -0.02202606      -0.01994789       0.02896121
H        2.86184366       2.77678959       9.96673886      -0.00299227      -0.00944406      -0.01156890
O        1.03575105       2.73923955       5.11606019      -0.00658825       0.01648462      -0.01044154
O       -0.32937018       4.44765126       5.62481164      -0.00399482       0.01789564      -0.00988370
C        1.08748214       3.52449975       7.34097562      -0.02186224       0.00081249      -0.00538069
C        0.50864931       3.64544968       5.96618596      -0.01008558       0.01240849      -0.00980622
H        1.96605087       2.88258649       7.35215157      -0.02048542       0.00303955      -0.00464483
H        1.32514523       4.51231457       7.73136668      -0.02867772      -0.00290748       0.00723755
H        0.32848968       3.12167755       8.01354243      -0.02655105      -0.00943089      -0.01712686
H        0.68468754       2.92706473       4.22949244       0.00479975       0.02587542      -0.01376665
O       12.21363212      13.01420124       9.03556269      -0.00046837       0.01506788       0.00760424
O       10.48924057      14.10032487       8.10808794      -0.00083277       0.01125014       0.00498205
C       10.06336291      12.39521051       9.76140768       0.00004774       0.01207066       0.00586581
C       10.89786771      13.26223295       8.88839875      -0.00041035       0.01237768       0.00518638
H       10.14703470      11.37183054       9.39241080      -0.00061707       0.01173881       0.00703104
H       10.41738880      12.40269378      10.79159253       0.00161590       0.01287192       0.00519270
H        9.02491453      12.70350971       9.71749167       0.00004105       0.01184624       0.00717776
H       12.68562314      13.57133466       8.39998545      -0.00080448       0.01578063       0.00748521
O        5.38709510       9.02063675       5.10166021      -0.00973159      -0.01107246      -0.00248606
O        7.45663329       8.94062380       5.98071101      -0.01439655      -0.00250697       0.00813061
C        6.55337277       6.99399099       4.91158811       0.00118391      -0.00542742      -0.00009699
C        6.53856989       8.41581040       5.38904605      -0.00854206      -0.00619400       0.00223675
H        6.40143634       6.33715119       5.77014163       0.00166955      -0.00718328      -0.00132480
H        5.76654899       6.81916411       4.18345482       0.00505424      -0.00854137      -0.00358211
H        7.53209537       6.77191575       4.48928897       0.00378296       0.00009123       0.00322176
H        5.39006095       9.97159850       5.32534319      -0.01642893      -0.01179847       0.00139289
O        3.94619950       5.52729474       6.41573869      -0.00698793       0.00552326       0.00900227
O        2.46493063       5.65364868       4.75341287       0.00578871       0.00811151      -0.00175296
C        4.05513523       3.85114479       4.77327672       0.00201568       0.00540453       0.00981979
C        3.40851961       5.08830923       5.30215619       0.00024068       0.00675577       0.00499782
H        5.09765967       4.06484308       4.52897364       0.00215003       0.00479941       0.01022833
H        4.05868292       3.07460001       5.53863241       0.00146133       0.00772591       0.01205847
H        3.53871640       3.50730447       3.88254514       0.00353783       0.00279748       0.00996482
H        3.52674103       6.38865401       6.71856679      -0.00756019       0.00578308       0.00726512
O        2.44539398      12.16806620       4.12510559       0.00508420      -0.01130441       0.00228947
O        4.22758360      11.46593260       5.28839785       0.00172949      -0.00791496       0.01039385
C        2.88632979      13.24885823       6.17747882       0.01179481       0.01072782      -0.01161867
C        3.28247745      12.21332672       5.17095806       0.00507975      -0.00342220       0.00067742
H        2.71621609      14.21245429       5.69816963       0.00822271       0.00361902      -0.02470405
H        1.93520406      12.94335777       6.62036096       0.01488481       0.01637615      -0.00098129
H        3.64054134      13.31976415       6.95431629       0.01659060       0.02247656      -0.01743044
H        2.59587147      11.30213002       3.65950873       0.00149482      -0.01576179       0.00822825
O       10.07639834       6.85118315       4.60115206       0.00510833      -0.00468439       0.00683260
O       11.00757824       8.85154742       4.22047460       0.01778677      -0.01025289       0.00854439
C       10.56889461       8.20673914       6.48714364      -0.01379514       0.00240014       0.00599372
C       10.58571391       8.04070206       5.00933647       0.00491580      -0.00517946       0.00694090
H        9.54563198       8.45416810       6.77873800      -0.01649044       0.01049000      -0.00995307
H       10.87503616       7.28923242       6.98286341      -0.02619686       0.00274551       0.01426631
H       11.18897494       9.05475021       6.76022321      -0.01151417      -0.00054392       0.01045980
H       10.26181080       6.77875257       3.64382370       0.01609291      -0.01104562       0.00925690
O       12.00181796       6.80188951       9.23387548      -0.00253016       0.01002717       0.01122984
O       14.07561163       5.97342619       9.45493007      -0.00667888      -0.00345242      -0.00225201
C       13.55552968       8.15767903      10.33957335       0.01027952      -0.00571012       0.01214981
C       13.27690279       6.86045366       9.65133921      -0.00035101      -0.00018501       0.00552799
H       13.37255357       8.98529265       9.65125198       0.00904218      -0.00032173       0.01914021
H       12.86072148       8.27369447      11.17111365       0.01640946      -0.00871792       0.01767629
H       14.58240193       8.18389312      10.68838716       0.01268677      -0.01295470       0.00553784
H       11.81367601       5.94285373       8.82164325      -0.01068023       0.01246688       0.00980158
O        1.15924763       4.39150010       2.72969848       0.00971402      -0.00049884       0.00283784
O        1.77787891       6.20099942       1.56808291       0.00623715      -0.00703824      -0.00981464
C        0.70908662       4.42136550       0.38503070      -0.00027412      -0.01468036       0.00480866
C        1.27717845       5.10294947       1.58526527       0.00486928      -0.00902385      -0.00167881
H        0.52398100       3.36201869       0.54815429       0.00999605      -0.01571667       0.00937020
H       -0.22745559       4.92008914       0.12738571      -0.00699949      -0.02302198       0.01304090
H        1.36790194       4.59330553      -0.46664994      -0.00991403      -0.01102789      -0.00175254
H        1.59363159       4.92197334       3.45000432       0.01045343       0.00391322      -0.00136970
O        8.10077635       3.98189414       6.05220915       0.03882191      -0.01868987       0.00878501
O        7.65439105       2.74005721       4.24844450      -0.03046392       0.02286998      -0.00404584
C        7.01330032       1.92735486       6.43250727       0.00770283      -0.00410652      -0.00237274
C        7.60228568       2.88206155       5.44672874       0.00321829       0.00253550       0.00208253
H        7.81313704       1.53933037       7.06756451       0.00747590      -0.00476370      -0.00278166
H        6.30678164       2.44265518       7.08497912       0.00624135      -0.00689562      -0.00105251
H        6.53460764       1.10614234       5.90762650       0.00650991      -0.00166570      -0.00512464
H        8.50573198       4.54091110       5.37130333       0.02523042      -0.00963162       0.00827056
O        2.14451633       9.76324341       7.54505870      -0.00544932       0.00694267       0.00109932
O        3.23812678       7.83083962       7.40615201      -0.00869909       0.00461242       0.00874469
C        0.95980071       7.91183150       6.68016976      -0.00477916       0.00898361      -0.00358558
C        2.20299752       8.49946966       7.24560361      -0.00650695       0.00644782       0.00282138
H        0.83325709       6.88850461       7.02625829      -0.00206363       0.00442126      -0.01653829
H        0.09216316       8.51558317       6.93108857      -0.00636162       0.00373533       0.00402263
H        1.04729019       7.87647591       5.59252940      -0.00462547       0.02415122      -0.00415173
H        3.05652017      10.11446992       7.86496393      -0.00641751       0.00547820       0.00457747
O        7.64705697       0.44924076       2.27814514      -0.00230664       0.00531062       0.00016379
O        6.24846872      -0.19054357       3.90733727      -0.00952432      -0.00634003      -0.01181233
C        5.57817304       1.55132852       2.42674141      -0.00580907       0.00016755      -0.00448427
C        6.53206560       0.53882252       2.95797397      -0.00793229      -0.00168592      -0.00386804
H        6.10573699       2.42284370       2.05489521      -0.00480303       0.00022469      -0.00248128
H        5.03686134       1.09792275       1.59386601      -0.00593767       0.00187317      -0.00534087
H        4.86000937       1.82043686       3.19183713      -0.00595719       0.00037530      -0.00447489
H        8.20678016      -0.33076363       2.61595844      -0.00517772       0.00172362      -0.00411555
O       13.25601556       6.82710814       3.80332329       0.00717348      -0.00790757      -0.00603631
O       11.68014327       6.59017484       2.23054197      -0.00844657      -0.01206613       0.00999713
C       13.16357533       8.48281256       2.12165259      -0.00341916      -0.01748890      -0.01360017
C       12.61516539       7.22362221       2.69507002      -0.00171715      -0.01227897      -0.00068951
H       12.35201783       9.20395210       2.04510777      -0.00369543      -0.01878972      -0.02126734
H       13.96998810       8.88506769       2.72788689      -0.00380340      -0.01126497      -0.01717095
H       13.52632024       8.28166988       1.11420991      -0.00256437      -0.02763965      -0.01135133
H       12.89421386       5.98418955       4.13181209       0.01026472      -0.00613284       0.00372107
O        3.85214097       3.71894313       0.92006262      -0.00077593      -0.00544116      -0.01303595
O        4.24822160       5.34939514      -0.56314911       0.01027688      -0.00362918      -0.00729871
C        5.29760162       5.43999976       1.61302042       0.00029439      -0.01020288      -0.00243121
C        4.44864736       4.87703736       0.52639987       0.00355019      -0.00586110      -0.00722128
H        4.63942184       5.75140486       2.42327413      -0.00091344      -0.01847969      -0.00045057
H        5.99046106       4.68670982       1.98519983       0.00260510      -0.01059957      -0.00744814
H        5.84924729       6.30445623       1.25980208      -0.00216748      -0.00623478       0.00393958
H        3.29304968       3.44032228       0.18103089       0.00265005      -0.00214038      -0.01703984
O       12.32767378       1.19721890       1.26786060      -0.00297561      -0.00611088       0.00162554
O       10.24254089       2.01952072       1.31558701      -0.01695210      -0.00102165      -0.00968635
C       11.66571452       2.39493956       3.22169578      -0.00947796       0.00795674      -0.00684309
C       11.29072462       1.87579769       1.87566680       0.00869256       0.00280715       0.01513156
H       12.07361831       1.59713217       3.84669721      -0.00177795       0.01418996       0.00515044
H       12.42633003       3.17176275       3.10772812      -0.01133840       0.01503764      -0.00423967
H       10.79001375       2.82325183       3.69808573      -0.01192403       0.00826849      -0.00232945
H       11.91716285       0.77828673       0.46866073       0.00274080      -0.00264014       0.01190299
O       10.06283809       5.69203453      13.50769101      -0.00176924      -0.01269895       0.00713998
O       11.98204998       5.85795587      12.35277107      -0.00239110      -0.00909609       0.01183227
C       10.58974870       3.92200257      12.04677852      -0.00614600      -0.00132507      -0.00888449
C       10.97092172       5.25375514      12.61320905       0.00043494      -0.00475061       0.00308484
H       10.96038063       3.15405196      12.73037377      -0.00677872      -0.00708686      -0.01559165
H        9.51091736       3.78935992      12.00182168      -0.00631990       0.00235737      -0.00755802
H       11.05077529       3.78574324      11.07273069      -0.00939113       0.00297134      -0.01178043
H       10.41506259       6.48736921      13.94522686       0.00299308      -0.01942167       0.01690118
O        3.54377532       7.69468524       3.19270740       0.00588793      -0.00485682      -0.01833576
O        2.50517091       9.66118231       3.33056595       0.00225824      -0.00905946       0.00254861
C        4.40976740       9.41728462       1.87372091       0.00686967       0.01213861       0.00502038
C        3.40108131       8.96889598       2.87549852       0.00443089      -0.00170812      -0.00334153
H        5.40813820       9.09226939       2.15943095       0.00636527       0.01053923       0.00480222
H        4.16377747       8.94106755       0.92203227       0.01178218       0.02290317      -0.00150800
H        4.38588233      10.49644256       1.76231346       0.00541985       0.01350248       0.01797293
H        2.80529430       7.38311899       3.74568625       0.00734907      -0.01068747      -0.01920319
