185
Lattice="13.376769449091892 0.0 0.0 0.0 13.376769449091892 0.0 0.0 0.0 13.376769449091892" Properties=species:S:1:pos:R:3:forces:R:3 energy=-65928.859375 stress="-0.000925899192225188 -0.00011578045814530924 -0.00013627247972181067 -0.00011578045814530924 -0.0006255038897506893 0.00012548360973596573 -0.00013627247972181067 0.00012548360973596573 -0.00042048393515869975" pbc="T T T"
Li      13.96622365      12.88995678      -0.48214745      -0.00082215       0.00635884      -0.02323224
O       11.36734705      12.97749488       1.77235551       0.03338420      -0.01406503       0.02776802
O       13.00721649      13.97656863       0.73682873       0.00737602       0.00235903      -0.01439664
O       12.75370578      11.83479142       0.53233636       0.03589690      -0.00011122       0.00214332
N       12.33834919      12.93112699       1.04870742       0.04817683      -0.00518658      -0.01085407
C        4.50005489       3.55777256       4.15954257      -0.00444984      -0.00046766       0.00022205
C        3.23283317       4.40512437       4.14890664      -0.00441504      -0.00053275      -0.00031131
C        4.24295898       2.05751703       4.06207875      -0.00447023      -0.00040072       0.00018845
C        3.51401012       5.90390895       4.19985872      -0.00440419      -0.00056469      -0.00186601
C        5.52518758       1.23425322       4.08090273      -0.00447154      -0.00029801       0.00139668
C        2.25305462       6.75646324       4.21127955      -0.00434682      -0.00059476      -0.00143030
H        5.14842647       3.86476335       3.32954636      -0.00429340      -0.00056901       0.00036526
H        5.06411821       3.76833011       5.07568417      -0.00473230      -0.00034352       0.00028628
H        2.60025188       4.12352348       4.99931462      -0.00416899       0.00025963       0.00006706
H        2.64895600       4.17749097       3.24941096      -0.00461639      -0.00140447       0.00011846
H        3.59266911       1.74783062       4.88713586      -0.00508879      -0.00035129      -0.00033677
H        3.68400002       1.84798913       3.14398793      -0.00368208      -0.00046134      -0.00008020
H        4.11322802       6.12765856       5.08857975      -0.00357686       0.00024930      -0.00269112
H        4.13682551       6.17984271       3.34225669      -0.00523780      -0.00138786      -0.00269130
H        6.18326380       1.51149689       3.25401954      -0.00352342       0.00025019       0.00233217
H        5.32043698       0.16522440       3.99737192      -0.00426013      -0.00020796       0.00047140
H        6.08195178       1.39289916       5.00767239      -0.00567017      -0.00076324       0.00210914
H        1.61925386       6.53633020       3.34950239      -0.00556464      -0.00203838      -0.00012204
H        1.66317068       6.57185707       5.11102733      -0.00302091       0.00084271      -0.00033550
H        2.48804764       7.82154860       4.18669820      -0.00449536      -0.00066122      -0.00352493
C        9.88551823      12.41775793      11.35196722       0.00045248       0.00207335       0.00328049
C        8.72571940      11.44430316      11.51320110       0.00213287       0.00051063       0.00494746
C       11.19965135      11.75615864      10.95733110       0.00178881       0.00280797       0.00748394
C        7.41342107      12.15301640      11.82371054       0.00094590      -0.00129992       0.00245011
C       12.32414058      12.77502534      10.79603918      -0.00072229       0.00425625      -0.00000913
C        6.24651014      11.19814759      12.02080291       0.00263968      -0.00233161       0.00577468
H        9.61891379      13.17199148      10.60321657       0.00007696      -0.00075352       0.00062642
H       10.02899744      12.95953182      12.29438076      -0.00161162       0.00598221       0.00157726
H        8.95507319      10.72947941      12.31104440       0.00233530       0.00326358       0.00731972
H        8.60788273      10.85626265      10.59570323       0.00394117      -0.00214243       0.00633967
H       11.47353881      11.02480645      11.72250890       0.00390307       0.00862674       0.01211220
H       11.06934297      11.20301011      10.02100054       0.00241295      -0.00380048       0.01127097
H        7.54022676      12.77170823      12.71772689       0.00076761       0.00156188       0.00020409
H        7.18861304      12.84594206      11.00551109      -0.00052393      -0.00350185       0.00125694
H       12.17351854      13.40678283       9.91714084      -0.00176071      -0.00311241      -0.00500812
H       13.29850377      12.28865292      10.67059729       0.00014989       0.00496323       0.00300647
H       12.34181081      13.45124308      11.65879038      -0.00258212       0.01083574      -0.00538701
H        6.10170157      10.57275235      11.13860646       0.00373001      -0.00394784       0.00692007
H        6.42810357      10.53593475      12.86874725       0.00395336      -0.00064725       0.00672941
H        5.31285644      11.73245371      12.20961217       0.00150149      -0.00408845       0.00476397
C       11.62474644       6.92702881       7.10319334      -0.00021988      -0.00320089      -0.00387713
C       10.31314504       7.69170228       7.23365377       0.00020015      -0.00232796      -0.00509576
C       11.41454258       5.52757514       6.53774277      -0.00023484      -0.00294892      -0.00444840
C       10.44436540       9.11207760       7.76863583       0.00089151      -0.00305769      -0.00341715
C       12.68589232       4.70228870       6.42360733      -0.00039643      -0.00328635      -0.00348132
C        9.09732041       9.81733048       7.85146044       0.00186941      -0.00120747      -0.00444841
H       12.31679813       7.48385326       6.46052675       0.00079766      -0.00348175      -0.00293373
H       12.10897705       6.85385637       8.08452543      -0.00137980      -0.00371978      -0.00340211
H        9.63797201       7.12828348       7.88823620      -0.00130075      -0.00240946      -0.00679544
H        9.82012101       7.72772851       6.25487363       0.00177474      -0.00088551      -0.00581449
H       10.69578706       5.00129803       7.17306873      -0.00103292      -0.00290357      -0.00529110
H       10.94279521       5.61327520       5.55359193       0.00073826      -0.00259491      -0.00485572
H       10.91483819       9.08795730       8.75825844      -0.00052170      -0.00469237      -0.00287369
H       11.12072368       9.68277067       7.12306996       0.00246976      -0.00322835      -0.00185844
H       13.41241369       5.18592906       5.76862821       0.00001360      -0.00369571      -0.00320370
H       12.48398200       3.70981000       6.01682553      -0.00042247      -0.00331540      -0.00334961
H       13.15602761       4.57316831       7.39847189      -0.00091526      -0.00314153      -0.00324368
H        8.60674239       9.82882834       6.87615787       0.00364720       0.00181042      -0.00528918
H        8.43098038       9.30559850       8.54800666      -0.00021730      -0.00165610      -0.00681473
H        9.19524106      10.85250016       8.18267426       0.00293738      -0.00214437      -0.00191041
C        4.19428238       6.44746650       9.48885135       0.00274967      -0.00008976       0.00136174
C        5.60021997       6.25361688      10.04036352       0.00241765      -0.00036013       0.00195512
C        3.35923362       5.17591448       9.57687383       0.00178371       0.00060147       0.00055906
C        6.47387237       7.49775150       9.97311852       0.00158189       0.00024277       0.00302401
C        1.94982406       5.33355701       9.02879236       0.00268155       0.00206515      -0.00133798
C        7.88035200       7.24817801      10.49847180       0.00200087       0.00129551       0.00212184
H        3.69090242       7.25514889      10.03412810       0.00288296       0.00007617       0.00113119
H        4.25102363       6.77625119       8.44358698       0.00350883       0.00004769       0.00149569
H        6.09218283       5.44203113       9.49157234       0.00298634       0.00026165       0.00159912
H        5.53609016       5.91694160      11.08159176       0.00212198      -0.00105270       0.00164878
H        3.87542423       4.37570790       9.03424139       0.00167908       0.00003663       0.00133283
H        3.31566647       4.85151114      10.62172139       0.00009222       0.00078303       0.00048864
H        6.51865152       7.84800449       8.93629612       0.00082716       0.00138206       0.00338665
H        6.00072594       8.30095996      10.54705454       0.00100736      -0.00071838       0.00388248
H        1.39632538       6.10065205       9.57446873       0.00321886       0.00332877      -0.00263651
H        1.38648200       4.40194251       9.10401705       0.00123896       0.00302976      -0.00131147
H        1.96611836       5.62816461       7.97713961       0.00444551       0.00123338      -0.00149472
H        7.84998826       6.87780607      11.52316363       0.00298800      -0.00004212       0.00169593
H        8.39230408       6.49507507       9.89469299       0.00277245       0.00278470       0.00100750
H        8.49020325       8.15291767      10.49300476       0.00075155       0.00209633       0.00293572
C        0.75520333      10.86967382       6.39736824      -0.00457821       0.00133389      -0.00032431
C        0.82396674      10.81043578       7.91935425      -0.00403250       0.00379378      -0.00037780
C        0.81297165      12.28763969       5.83837899      -0.00870021       0.00017923      -0.00310645
C        0.91633494       9.39361214       8.47477010      -0.00066428       0.00475967       0.00137542
C        0.70327507      12.33759836       4.31936605      -0.01045633      -0.00342896      -0.00298473
C        0.99756793       9.35351667       9.99508459      -0.00163464       0.00667595       0.00142711
H        1.57830471      10.28443298       5.97299199      -0.00324142       0.00282665       0.00039124
H       -0.16514167      10.38187614       6.05534314      -0.00340712      -0.00160779       0.00070711
H       -0.06056997      11.30458524       8.33896638      -0.00493681       0.00244024      -0.00083272
H        1.68894268      11.38975704       8.26534365      -0.00512353       0.00609374      -0.00147542
H        0.01246284      12.88559973       6.28708600      -0.00975975      -0.00099182      -0.00362067
H        1.75108747      12.75486031       6.15823192      -0.00963378       0.00348210      -0.00499536
H        0.04899411       8.82074888       8.13903351       0.00109011       0.00202726       0.00139803
H        1.79072663       8.89077605       8.04647757       0.00092587       0.00671870       0.00256275
H        1.48711917      11.73625306       3.85252594      -0.01059918      -0.00327194      -0.00307767
H        0.79157281      13.35639517       3.93812870      -0.01252025      -0.00413185      -0.00485736
H       -0.25624175      11.94417339       3.97873373      -0.01055354      -0.00543150      -0.00081344
H        1.87924662       9.89110651      10.35509639      -0.00415920       0.01072440       0.00142420
H        0.11622043       9.81444253      10.44726076      -0.00371197       0.00339884       0.00043736
H        1.06130840       8.33127795      10.37144987       0.00242593       0.00735584       0.00251646
C        5.19021474      10.60556631       5.92909374       0.00079679       0.00472394      -0.00328292
C        4.32924157      10.53761965       4.67423155      -0.00164735       0.00208767      -0.00136363
C        4.36488026      10.87123141       7.18095533       0.00366461       0.00568768      -0.00159692
C        5.11206893      10.26476101       3.39806276      -0.00394875       0.00258178      -0.00291100
C        5.18717251      10.97320590       8.45558142       0.00718594       0.00772716      -0.00400728
C        4.23694653      10.22981142       2.15312387      -0.00691029       0.00186321      -0.00076374
H        5.74494705       9.66678815       6.05034217       0.00208107       0.00556177      -0.00329880
H        5.94520973      11.39155802       5.81125071      -0.00027613       0.00539804      -0.00599936
H        3.77905860      11.48035510       4.56816730      -0.00378416       0.00079507      -0.00106905
H        3.56670817       9.76076626       4.80356754       0.00020973       0.00067148       0.00077049
H        3.79206661      11.79296606       7.03692129       0.00278993       0.00515902      -0.00115511
H        3.62454726      10.07264817       7.29034173       0.00437862       0.00539556       0.00127080
H        5.88657503      11.02879944       3.28287004      -0.00490287       0.00342673      -0.00479101
H        5.64408522       9.31312573       3.49883112      -0.00279778       0.00314239      -0.00391160
H        5.74446364      10.05275594       8.63840924       0.00817530       0.00819930      -0.00435149
H        4.55083283      11.14872551       9.32564311       0.00980306       0.00876233      -0.00242981
H        5.91019554      11.79042823       8.40096183       0.00667214       0.00787407      -0.00745065
H        3.46179986       9.46473151       2.23681597      -0.00585762       0.00107531       0.00113213
H        3.73558719      11.18891420       1.99990577      -0.00842877       0.00114959       0.00060691
H        4.82230331      10.01370703       1.25813320      -0.00897394       0.00262479      -0.00225562
C        5.65998816       2.82415385      12.07533386      -0.00351566      -0.00584912       0.00315838
C        4.84831016       1.53544081      12.00677085      -0.00441101      -0.00519294       0.00892137
C        7.10583438       2.60549413      12.50829928      -0.00330463      -0.00466812       0.00188459
C        3.37824513       1.76328580      11.67587772      -0.00395195      -0.00357133       0.00984596
C        7.90663688       3.89806951      12.57162175      -0.00340021      -0.00453302      -0.00366257
C        2.56431228       0.47070954      11.65363842      -0.00576867      -0.00189376       0.01169486
H        5.64301091       3.31929677      11.09769127      -0.00486072      -0.00963277       0.00118074
H        5.17765048       3.51969906      12.77319386      -0.00241293      -0.00304748       0.00098920
H        4.92618309       1.01004895      12.96653121      -0.00389391      -0.00216244       0.01058465
H        5.29069345       0.86771585      11.25907235      -0.00661635      -0.00835089       0.01053330
H        7.11561720       2.11578925      13.48782137      -0.00224945      -0.00136387       0.00351408
H        7.59008144       1.90788303      11.81836564      -0.00436983      -0.00712892       0.00362176
H        2.94337357       2.45428070      12.40445358      -0.00268348      -0.00226644       0.00936222
H        3.29483196       2.25460959      10.70192728      -0.00412144      -0.00460032       0.00941601
H        7.94928842       4.38062268      11.59330354      -0.00417868      -0.00850558      -0.00560826
H        8.93150115       3.72292599      12.90269814      -0.00331350      -0.00305998      -0.00350444
H        7.44923220       4.60698406      13.26598617      -0.00337744      -0.00190248      -0.00638805
H        2.92603933      -0.21521444      10.88324932      -0.00273581      -0.00661747       0.01735830
H        2.66079308      -0.04562350      12.62014123      -0.01318455       0.00358088       0.01514484
H        1.51385637       0.69036259      11.42959087      -0.00304832       0.00168125       0.00310060
C        8.02915344       3.95813451       7.58613403      -0.00417292      -0.00646691      -0.00068414
C        7.81393312       4.61938762       6.23330986      -0.00305197      -0.00419956       0.00026977
C        8.85413687       2.68071489       7.50562870      -0.00363664      -0.00598732      -0.00217795
C        7.01381425       5.91339325       6.30178243      -0.00419527      -0.00501662       0.00161651
C        9.17236313       2.09383338       8.87186991      -0.00310772      -0.00771099      -0.00314870
C        6.99750651       6.64791249       4.97065561      -0.00239864      -0.00185823       0.00337335
H        8.52787781       4.66909527       8.25729627      -0.00503786      -0.00745408       0.00098865
H        7.06072157       3.73702812       8.05162397      -0.00444689      -0.00761870      -0.00201882
H        7.31837314       3.91703805       5.55376163      -0.00166193      -0.00337666      -0.00157417
H        8.78859894       4.82991857       5.78308256      -0.00270823      -0.00262707       0.00192314
H        8.31600726       1.94333063       6.90210286      -0.00351253      -0.00550807      -0.00295830
H        9.78541137       2.88731241       6.96780375      -0.00385734      -0.00512788      -0.00213626
H        5.99130301       5.69669515       6.63126686      -0.00456053      -0.00657436      -0.00081798
H        7.44668633       6.56393132       7.06889378      -0.00615877      -0.00648500       0.00393608
H        9.72916057       2.80579524       9.48637324      -0.00253354      -0.00868031      -0.00255185
H        9.77073923       1.18587965       8.78797208      -0.00336090      -0.00764836      -0.00469450
H        8.25799451       1.84298339       9.41480397      -0.00277892      -0.00822821      -0.00288017
H        8.00790755       6.94441288       4.68372664      -0.00209603      -0.00073056       0.00578966
H        6.60492288       6.01273683       4.17401059      -0.00082819      -0.00007163       0.00122797
H        6.38524731       7.55052345       5.00742284      -0.00287576      -0.00225864       0.00457487
C        8.55874058      10.01125094       2.25000037       0.00640248       0.00311762      -0.00120687
C        8.74862699      10.43377939       3.70323161       0.00569327       0.00712854      -0.00251758
C        8.40801119       8.50493855       2.07642658       0.00880634       0.00241303       0.00309029
C        8.78499988      11.94726438       3.88092738       0.00564262       0.00740254      -0.00604334
C        8.21081297       8.07650971       0.63052512       0.01002543      -0.00204838       0.00431073
C        9.01967995      12.38538438       5.31962630       0.00622135       0.01014747      -0.00703692
H        7.67128947      10.51005961       1.84133066       0.00588629       0.00065842      -0.00273044
H        9.40767331      10.37219122       1.65911253       0.00633615       0.00238399      -0.00196159
H        9.68288900      10.00171430       4.08326762       0.00532272       0.00806405      -0.00080408
H        7.94514016      10.00688982       4.31620282       0.00516000       0.00893819      -0.00196649
H        9.28929235       8.00370650       2.49063962       0.00939426       0.00509271       0.00489588
H        7.55824768       8.16022540       2.67269244       0.00913623       0.00308561       0.00390910
H        9.56726397      12.35847972       3.24130764       0.00602230       0.00607379      -0.00687939
H        7.84132485      12.37249065       3.52083562       0.00585955       0.00676446      -0.00689545
H        7.30715509       8.52111717       0.20620336       0.00960052      -0.00456122       0.00270030
H        8.11561178       6.99267115       0.54384389       0.01160184      -0.00243422       0.00740322
H        9.04950968       8.38702448       0.00443583       0.00978892      -0.00273892       0.00386709
H        8.20906998      12.06242736       5.97644700       0.00685453       0.01031206      -0.00602690
H        9.94518680      11.95787477       5.71364949       0.00687899       0.01174454      -0.00715638
H        9.09816231      13.47092293       5.39500167       0.00529600       0.01023668      -0.00876787
