198
Lattice="13.288287978862257 0.0 0.0 0.0 13.288287978862257 0.0 0.0 0.0 13.288287978862257" Properties=species:S:1:pos:R:3:forces:R:3 energy=-313285.75 stress="-0.0005395851330831647 -0.00028968324477318674 -7.620465476065874e-05 -0.00028968324477318674 0.00037854595575481653 -0.00024662505893502384 -7.620465476065874e-05 -0.00024662505893502384 -0.0007368925726041198" pbc="T T T"
Li      12.29414674      12.93780660       4.19847179      -0.00679853      -0.00857899       0.01847317
I       11.89086213       3.92473729      13.08632705       0.01283139      -0.02368326       0.00792956
O       10.82807928       2.65300302      13.78806425       0.00540930      -0.01819482       0.00576656
O       13.18170094       3.09594227      12.16717213       0.02141026      -0.03282550       0.02844915
O       10.93892529       5.01855927      12.04996823       0.02449706      -0.03303936      -0.01203987
O       12.59105490       4.87030349      14.43492735      -0.00123571      -0.01248723       0.00616154
O        1.51494860       6.26046686       3.15166961       0.02927530       0.01718748       0.00779617
N        2.23507442       8.04440755       4.38393847       0.00398353      -0.00025348      -0.00386028
C        0.97332055       8.24311718       5.05750456       0.00060679      -0.00918014       0.00252589
C        3.33859780       8.87917225       4.78952415       0.00072788       0.00481959      -0.00635029
C        2.39356183       7.02908238       3.50174369      -0.02362013      -0.02252674      -0.01496911
H        0.55421441       9.22246443       4.80530054       0.00030441      -0.00880566       0.00804109
H        1.11822912       8.18517412       6.13921958       0.00777754      -0.01260025       0.00092494
H        0.28615902       7.46135294       4.74684903       0.00587773      -0.00796729       0.00146307
H        3.07876811       9.93626668       4.68979257      -0.00827542       0.00124478       0.00171439
H        4.20145513       8.68432961       4.15820839      -0.00520203       0.01328564      -0.01573601
H        3.61153953       8.68798033       5.83126324       0.00897507      -0.00105824      -0.01151559
H        3.42384066       6.97734927       3.11141753       0.00198388       0.00614856      -0.00904344
O        8.56464215       6.63675581       0.69357965       0.00480568      -0.00287494       0.00064862
N       10.48326631       7.39556213       1.68452113       0.00382626      -0.00325254      -0.00214452
C       10.85560084       8.24987311       0.57857375       0.00885331      -0.01228270      -0.00773896
C       11.43213675       7.25080157       2.76600986       0.00256592      -0.00177308      -0.00103606
C        9.38119705       6.62721439       1.60018004      -0.00095797       0.00041516      -0.00195020
H       11.68292078       7.80418977       0.02238839       0.00433499      -0.02224259      -0.00639406
H       11.16872556       9.22633949       0.95348241       0.01783082      -0.01312226      -0.01289739
H       10.01145096       8.36299695      -0.09429794       0.00910300      -0.00845730      -0.00670522
H       12.39515163       6.89509732       2.39785442      -0.00034353      -0.01255974       0.00228409
H       11.05518842       6.52137202       3.48198938      -0.00376914       0.00776108       0.00511086
H       11.57152711       8.20741587       3.27954078       0.01014904       0.00133875      -0.00945485
H        9.28178079       5.96405170       2.48107009      -0.00335385       0.00667283       0.00472969
O       14.69305773       3.71839229       5.63337335       0.03511566      -0.01031470       0.00315797
N       13.70679929       2.31772758       4.13025724       0.01229190      -0.00836644       0.01360288
C       14.02181929       1.14486512       4.90612688       0.01128105      -0.00904971       0.01159585
C       12.98681827       2.15961599       2.88518836       0.00618509      -0.00705147       0.01665237
C       14.07707700       3.54211897       4.59514202       0.02204180      -0.00907043       0.00363731
H       14.34448198       0.32971774       4.24402112       0.00630854      -0.00998412       0.01079336
H       13.17156777       0.84970319       5.54602397       0.01253760      -0.00662200       0.01457632
H       14.84418026       1.37297485       5.58089422       0.01470160      -0.01152149       0.00881439
H       13.58304401       1.62498684       2.14132578       0.00193200      -0.00877400       0.01432756
H       12.74828161       3.14299927       2.48537037       0.00566146      -0.00701231       0.01718687
H       12.04334541       1.62715559       3.02760235       0.00622243      -0.00583778       0.02153178
H       13.77429720       4.35968806       3.92496024       0.02207501      -0.00935477       0.00883669
O       10.67597379       0.29283200       4.53076806      -0.00685179       0.00023834       0.00387717
N        8.83476071       1.52555114       4.04621769      -0.00640041      -0.00278477      -0.00409473
C        9.59118619       2.71773814       3.69473529      -0.00652403      -0.00250968      -0.00308771
C        7.39080924       1.59465079       3.96579324      -0.00610226      -0.00453449      -0.00893885
C        9.44512946       0.42627346       4.45894901      -0.00542235      -0.00186104      -0.00117955
H        9.05508645       3.58325098       4.08026549      -0.01035741      -0.00229579      -0.00901788
H        9.71825982       2.80217033       2.61221782      -0.00012584      -0.00540722      -0.00251588
H       10.55622683       2.68008538       4.18658279      -0.00943899       0.00047683       0.00268969
H        7.02193493       2.38663613       4.62239815      -0.00955800      -0.00680299      -0.00823773
H        6.94686957       0.64961573       4.26462324      -0.00600726      -0.00577712      -0.01295715
H        7.07399934       1.80968997       2.94358147      -0.00255570      -0.00189228      -0.00948045
H        8.77001869      -0.38669439       4.75727094      -0.00609419      -0.00275698      -0.00377595
O        4.50030046       0.56814126       3.15478303      -0.01845527       0.00619245       0.00595161
N        3.19250992       2.00497630       1.96402694      -0.01111701       0.00325801      -0.00605315
C        2.63947709       0.92813123       1.16019411      -0.00341929       0.00180022      -0.00961164
C        2.83638119       3.38086294       1.65593115      -0.00919767       0.00261164      -0.01156831
C        4.10542708       1.70176895       2.89196960      -0.01859438       0.00695717       0.00089645
H        2.07359223       1.36401399       0.34084613      -0.01723716       0.00010884      -0.00060524
H        1.98628983       0.29016491       1.76194899       0.01128122      -0.01120321      -0.00829083
H        3.44204299       0.31514292       0.75784042       0.00066316       0.01613155      -0.02275838
H        3.15883175       3.65429533       0.65169718       0.00666966       0.00448116      -0.00574136
H        3.31082758       4.04333088       2.37750218      -0.02416553       0.00390832      -0.00342327
H        1.76098365       3.54188394       1.71869515      -0.01058629      -0.00139650      -0.03003744
H        4.48395250       2.59314451       3.42582226      -0.02336961       0.00715268       0.00273386
O        5.88417094       7.76953665       2.08696963       0.00735310       0.02315030       0.02699125
N        6.56390189       6.09158338       3.48768279       0.00010995       0.01239468       0.01123647
C        6.53070934       5.05549662       2.47643526      -0.01456197       0.01735303       0.00605428
C        6.83664865       5.70392855       4.85203927       0.00559830       0.00286212       0.00710100
C        6.25869645       7.37048712       3.17805638       0.00616169       0.01758450       0.01444453
H        5.64055258       4.42848007       2.57832659      -0.01454085       0.01924911       0.01549447
H        7.41500282       4.42349384       2.57379928      -0.01494506       0.01479739      -0.00781221
H        6.54971013       5.52705874       1.50007300      -0.02625901       0.02172285       0.00872305
H        6.11222476       4.95612080       5.18968568       0.00343096       0.00486913       0.00606053
H        6.75837400       6.57652113       5.49830670       0.01366548      -0.00057015       0.01237595
H        7.84128419       5.28373178       4.95336259       0.00358477      -0.00284906      -0.00118215
H        6.37670987       8.04329783       4.04458329       0.01536650       0.01059219       0.02265060
O        9.64003072       3.59661784       9.60440237      -0.00411010       0.00123164      -0.00273401
N       11.40552051       2.15063604       9.67406968       0.00032589       0.00804570       0.00572684
C       10.75923422       1.19188159      10.53705361      -0.00112550       0.00513117       0.00157337
C       12.73518015       1.83367740       9.20894644      -0.00055251       0.00737177       0.00354701
C       10.78921334       3.29429476       9.31644968      -0.00349152       0.00522602       0.00144663
H       11.35340945       1.04873553      11.44290603       0.00033930      -0.00197840      -0.00063112
H       10.64745641       0.23094289      10.02696869      -0.00492195       0.00817767      -0.00345169
H        9.77898044       1.57325115      10.81072060       0.00065723       0.00647300       0.00535379
H       13.39094551       1.64494621      10.06122694       0.00061175       0.00569268       0.00207603
H       13.13433267       2.67179095       8.64049865      -0.00072558       0.00755626       0.00363420
H       12.71217754       0.94743167       8.56355052      -0.00246588       0.00813407       0.00247639
H       11.44599534       3.94019305       8.71420422      -0.00267532       0.00622189       0.00166056
O        4.80917444       1.68587680      12.50356691       0.01331294      -0.00214729      -0.00804321
N        6.47768665       3.25797298      12.41398670       0.00664485       0.00507897      -0.00415286
C        5.62266705       4.35346823      12.00337473       0.00286867       0.00127058      -0.00581846
C        7.90312343       3.53049749      12.50840499       0.00500864       0.01185451       0.00022159
C        5.98016851       2.02915093      12.62031502       0.01180637       0.00309271      -0.00540258
H        5.88351233       4.67766136      10.99157397       0.00235799       0.00172625      -0.00580961
H        5.76226163       5.20165199      12.67444975      -0.00159705       0.00215080      -0.00618771
H        4.58319288       4.04302199      12.03085655       0.00409928      -0.00273702      -0.00635048
H        8.33898165       3.70951285      11.52288718       0.00676197       0.01436045       0.00148952
H        8.41131723       2.68341331      12.96447960       0.00770835       0.01389772       0.00097510
H        8.07885265       4.41725964      13.11888140      -0.00145665       0.01217356       0.00147527
H        6.76871198       1.31471388      12.92136666       0.01420936       0.00663546      -0.00365035
O        9.85739531      11.26256941       7.22112786       0.00479180       0.00663406      -0.00118589
N       11.77538396      10.87144194       8.40439271       0.00477795       0.00314137      -0.00184376
C       12.50575431      10.37995106       7.26242664       0.00414269       0.00435269      -0.00263619
C       12.48672554      10.98180024       9.66144195       0.00517417       0.00022066      -0.00169966
C       10.48679861      11.24843140       8.27084011       0.00538069       0.00454701      -0.00041956
H       12.93940873       9.40549028       7.49430143       0.00355151       0.00369027      -0.00433756
H       13.31962490      11.06095457       6.99509598       0.00486490       0.00412849      -0.00157753
H       11.81908520      10.28959026       6.42474309       0.00389245       0.00612723      -0.00259893
H       12.99803740      10.04598273       9.88912010       0.00443847      -0.00062811      -0.00366038
H       11.77430719      11.17799989      10.45854365       0.00552621      -0.00062693      -0.00116697
H       13.23339845      11.78065163       9.62136898       0.00587887      -0.00045830      -0.00030808
H       10.04290720      11.54463876       9.23522523       0.00576890       0.00346883      -0.00041729
O        2.89859759       6.06989320      -0.29116062       0.02665538       0.00434315      -0.00029510
N        2.65022608       8.21470806       0.47271060       0.00641045       0.00055006      -0.00321437
C        1.20519683       8.19505569       0.45859083       0.00648287      -0.01083328      -0.00984717
C        3.29561314       9.45422102       0.83897395      -0.00433313       0.00451960       0.00001612
C        3.36567624       7.13631342       0.07252684       0.01475126       0.00318158       0.00030842
H        0.82336957       8.83656493      -0.34305454       0.00570561      -0.01450142      -0.01231119
H        0.82245338       8.56558066       1.41289104      -0.00000346      -0.01293376      -0.01176438
H        0.86632577       7.17205276       0.31145405       0.01466930      -0.01310569      -0.01016625
H        3.03696682      10.24986572       0.13390684      -0.00576642       0.00248927      -0.00153953
H        4.37407376       9.30911678       0.85585559      -0.00346550       0.01191896       0.00602451
H        2.98166997       9.76522027       1.84008812      -0.01206335       0.00206643      -0.00187105
H        4.45057206       7.32722638       0.12732603       0.01449990       0.01254426       0.00694624
O        3.14060183      10.14223439      10.57736690       0.00064468       0.00103343       0.00012988
N        5.26175770      10.43022564      11.38755666       0.00061786      -0.00380878       0.00233364
C        5.07083437      11.82017834      11.74569867       0.00442047      -0.00282043      -0.00008210
C        6.55278403       9.83857144      11.66948302      -0.00175910      -0.00752759       0.00576727
C        4.25771618       9.71558368      10.84069650      -0.00027514      -0.00200124       0.00213501
H        5.75742908      12.46039066      11.18695922       0.00845703      -0.00604440       0.00141615
H        5.25374402      11.97080676      12.81207332       0.00132374      -0.00185939       0.00032502
H        4.04952484      12.10665059      11.51498124       0.00618830       0.00050075      -0.00374546
H        7.35302785      10.39632070      11.17736015       0.00090700      -0.00990471       0.00749753
H        6.57428589       8.81295750      11.30790968      -0.00380961      -0.00762942       0.00583789
H        6.74608324       9.82252896      12.74513357      -0.00472894      -0.00797923       0.00626194
H        4.54953768       8.66993719      10.64428048      -0.00329280      -0.00275069       0.00370497
O        6.10579282      10.19570065       6.44682187      -0.00123715      -0.00667849      -0.00274807
N        4.30258721      11.54479284       6.86262696       0.00294872      -0.00057763       0.00171646
C        4.50090095      12.37821249       5.69738139       0.00227120      -0.00153342       0.00120197
C        3.08442698      11.73937095       7.61356338       0.00581828       0.00482511       0.00548438
C        5.13682758      10.50970768       7.11887270      -0.00186527      -0.00232035       0.00204995
H        4.52446510      13.43385447       5.97770423       0.00701438      -0.00147215       0.00063844
H        3.69624738      12.24885982       4.97051698      -0.00022283       0.00142602       0.00360590
H        5.43769174      12.10444200       5.22328887      -0.00000116      -0.00517456      -0.00146077
H        3.00890437      12.77258070       7.96311258       0.01133834       0.00523049       0.00562466
H        3.06009062      11.07969583       8.47938559       0.00522895       0.00504109       0.00550810
H        2.21468246      11.53007211       6.97989382       0.00303754       0.00888954       0.00796041
H        4.83626376       9.95730639       8.02729148       0.00039755      -0.00111654       0.00133723
O       10.02525885       9.36808301      10.86464594      -0.00013843       0.00459433      -0.00204885
N       10.56946032       7.62381731       9.47644618      -0.00392959       0.00272058      -0.00072790
C       11.87501278       7.35600776      10.04811190      -0.00474697      -0.00085746      -0.00006843
C       10.13248199       6.74150263       8.41129307      -0.00663587       0.00192600       0.00108682
C        9.76611083       8.58735798       9.95154613      -0.00142616       0.00547266      -0.00156683
H       12.65748112       7.52894146       9.30471604      -0.00541958      -0.01499651      -0.00365302
H       11.93478558       6.32004004      10.38017460      -0.01130014       0.00225526       0.01102680
H       12.02314502       8.01405496      10.89900022       0.00213825       0.00744687      -0.00780728
H       10.91448621       6.67012842       7.65124470      -0.00794882      -0.00020995       0.00008586
H        9.23572954       7.15076158       7.94864895      -0.00682180       0.00249998       0.00189492
H        9.91686826       5.74146756       8.79564036      -0.00737887       0.00267968       0.00257367
H        8.80507279       8.62663469       9.41005134      -0.00123817       0.00740551      -0.00223044
O       12.18973767      11.41738995       3.17777209      -0.00690034       0.00167950       0.00418478
N       10.22738898      11.50007792       2.01026421      -0.00267674      -0.00585980      -0.00380673
C       10.78575499      12.23454020       0.88485701      -0.00281829      -0.00024816      -0.00031880
C        8.80005892      11.24037368       1.99231070      -0.00086105      -0.01509355      -0.01079668
C       10.97659331      11.15474233       3.04967283      -0.00546235      -0.00332041      -0.00136507
H       10.51551561      13.29346898       0.93550524      -0.01172762      -0.00273156      -0.00091745
H       10.39930685      11.80543766      -0.04019011       0.00599858      -0.00263512      -0.00278258
H       11.86770936      12.14326853       0.90747330      -0.00224158       0.00923916       0.00562392
H        8.25414233      12.18429263       1.90949910      -0.00641645      -0.01849878      -0.01146095
H        8.50554637      10.74422225       2.91432545      -0.00191708      -0.01920070      -0.01329786
H        8.54212448      10.60338532       1.14511810       0.00767978      -0.01458141      -0.01372436
H       10.42556106      10.61179007       3.82870100      -0.00596766      -0.00660312      -0.00408091
O       10.02739716       2.55682975       6.66330543      -0.00287539      -0.00016153       0.00089359
N        8.19180278       1.59826323       7.63327141      -0.00390685       0.00080463      -0.00076684
C        7.41436499       2.81574617       7.65148356      -0.00275916       0.00157893       0.00160002
C        7.62958820       0.43583984       8.28574680      -0.00484498       0.00013447      -0.00285536
C        9.46322605       1.60299667       7.17866031      -0.00364953       0.00084114      -0.00130177
H        7.29352919       3.17224905       8.67697010      -0.00366922      -0.00126770       0.00239560
H        6.43140047       2.63680751       7.20871087      -0.00240007       0.00375742      -0.00016876
H        7.95374819       3.57482554       7.09094231      -0.00120576       0.00248283       0.00452375
H        7.55229073       0.59619445       9.36679702      -0.00281008      -0.00268970      -0.00241148
H        8.24881703      -0.43718663       8.08181744      -0.00660397      -0.00037962      -0.00610483
H        6.62913413       0.23531422       7.89412461      -0.00590897       0.00334364      -0.00167918
H        9.94694555       0.61928582       7.29902825      -0.00533432      -0.00071251      -0.00292098
O        1.51158624       4.90805772       9.26270498      -0.00582862       0.01821673       0.00787944
N        3.36769924       3.59132093       9.04184719      -0.01396996       0.00873194      -0.00233817
C        3.91892998       4.34919677       7.94306979      -0.01815986       0.00129965      -0.00955159
C        4.06853693       2.39396012       9.43550938      -0.01440508       0.00931280      -0.00013439
C        2.18957062       3.96102806       9.61430363      -0.00724745       0.01652229       0.00586072
H        3.94716511       3.74399459       7.03235277      -0.02398457      -0.00469422      -0.00556388
H        4.93320294       4.68158649       8.18804454      -0.01653051       0.00135951      -0.01619132
H        3.27916819       5.20842077       7.76405051      -0.01793820       0.00093991      -0.01244226
H        4.11891961       1.68121632       8.60315955      -0.02068060       0.00526606       0.00312930
H        3.57298102       1.92477297      10.28250896      -0.01028140       0.01428984       0.00492796
H        5.09238318       2.62106429       9.74521594      -0.01220271       0.00855923      -0.00727347
H        1.90187488       3.30077209      10.45033888      -0.00331229       0.02075800       0.01050353
