196
Lattice="19.02265349842704 0.0 0.0 0.0 19.02265349842704 0.0 0.0 0.0 19.02265349842704" Properties=species:S:1:pos:R:3:forces:R:3 energy=-2291449.75 stress="-0.0008748486288823187 0.00011046684812754393 -3.936805796911358e-07 0.00011046684812754393 -0.0007852889830246568 0.00018378043750999495 -3.936805796911358e-07 0.00018378043750999495 -0.0011128929909318686" pbc="T T T"
Lu      19.90337808      19.84540191      -0.48427532       0.01088560      -0.00028914       0.00102125
B        4.64731875      15.98321779       5.38762311      -0.00555213       0.00454329       0.01148116
F        4.68342654      16.67007405       6.62709466      -0.00560811      -0.00606143       0.01282835
F        4.66381233      16.93253375       4.36121645      -0.00811028       0.01730561       0.01465034
F        5.74324159      15.13692893       5.28524566      -0.01081359       0.00526845      -0.00047752
F        3.44956981      15.24259150       5.31621047      -0.00971985       0.01068139      -0.00039160
B       10.05913769      16.27492246      12.56564491       0.01367522      -0.00640426      -0.01358410
F        9.86367762      15.27366371      13.53713095       0.01483095      -0.00009739      -0.00722420
F       10.75815241      17.33710839      13.13893287       0.03214860      -0.01156640      -0.02725995
F       10.79572799      15.73204820      11.49107801      -0.00384128      -0.01707029      -0.01980376
F        8.81971614      16.71901016      12.08603595       0.01251388       0.00289553      -0.00150794
B        5.93319356      17.38793993       0.64363932      -0.00490521       0.00107323      -0.01572452
F        6.86559582      16.63346320       1.34283584      -0.00347686       0.00847173      -0.00494099
F        6.12357374      17.29419459      -0.72759112       0.01488116       0.02381983      -0.01119018
F        4.61753441      16.86353036       0.92894312      -0.00175714      -0.03011543      -0.03488350
F        5.96052551      18.71830627       1.05785230      -0.02669668      -0.00202012      -0.00358558
Cl      -1.07808391       5.08645945      19.67339118      -0.00036261       0.00621193       0.00015938
Cl       1.25188423       3.37263120      20.08409273      -0.00511567       0.00022979       0.00488330
Cl       1.38503468       5.63883890      18.29148034       0.00045940      -0.00455860      -0.00130106
Cl      -0.20142211       3.26633719      17.58767181      -0.00481722      -0.00084096       0.00444147
C        0.34502949       4.40516938      18.93531947      -0.00276548       0.00031090       0.00257672
Cl      12.33425693       9.07986104      11.77201867      -0.00534201       0.00586978       0.00228424
Cl      10.26039778      10.15714089      10.07660697      -0.00777604       0.00475058       0.00493878
Cl      10.30028084      10.77634790      12.91092115      -0.00497770       0.00377554       0.00487208
Cl       9.63013823       8.10021943      12.02907933      -0.00471094       0.00449729       0.00399385
C       10.62253561       9.54265376      11.70104341      -0.00565702       0.00480142       0.00401405
Cl       3.08942065       3.39532543      15.94588214      -0.00237493      -0.00597981      -0.00369588
Cl       3.17829087       4.22081859      13.17265637       0.00713225       0.00103221      -0.00124902
Cl       3.83304891       6.11177783      15.28365293       0.00893366      -0.00854939       0.00564314
Cl       1.10384994       5.24955316      14.87249036       0.00733584       0.00415549      -0.00247649
C        2.81107927       4.74622012      14.81824904       0.00459672      -0.00204001      -0.00091995
Cl       4.62469096      11.42987162       8.92787823      -0.00153905      -0.00945556      -0.00580519
Cl       5.38645151      11.97802768       6.18551088      -0.00481877      -0.00947508      -0.00235736
Cl       7.39316299      12.01914761       8.26722692      -0.00059587      -0.00104040      -0.00782813
Cl       5.38781897      14.10473747       8.14115485      -0.00953898      -0.00756979      -0.00746180
C        5.69639177      12.40591269       7.87629695      -0.00310401      -0.00657114      -0.00356566
Cl       8.32979884       8.98382916       0.22494838       0.00075972       0.00383772       0.00184091
Cl       5.88511085      10.53630452       0.29574236      -0.00051349       0.00126600       0.00229669
Cl       5.84434797       7.73732314       1.03834541      -0.00038874      -0.00260574      -0.01387408
Cl       6.24255659       8.49334025      -1.73102252       0.00859597       0.01342063      -0.00771612
C        6.57858387       8.93402937      -0.03767288       0.00219915       0.00406706      -0.00440127
Cl      13.14299699      19.02479351       3.15431572       0.00667894       0.01467165       0.00491761
Cl      13.97214170      16.28983729       2.67958769      -0.01212528       0.00862551      -0.00289137
Cl      15.90141763      18.23846035       3.59937489       0.00077552      -0.00657716      -0.00342041
Cl      14.84693331      18.40688576       0.90362139      -0.00703612       0.00599377      -0.00078636
C       14.47185338      17.98166859       2.58001101      -0.00272654       0.00582799      -0.00023353
Cl       0.97387519      17.53176957       4.38169654       0.02546543      -0.02081428       0.01484822
Cl      -0.27026217      19.08782274       1.46777235       0.01802757      -0.00267753       0.00454038
Cl       2.64548846      16.56581064       2.30644451       0.00758183      -0.01325820      -0.02089033
Cl       3.24989981      19.76693280      -0.80817720       0.00022894       0.00620645       0.01393807
C        1.28794686      16.44670168       3.16930396       0.00513589      -0.00016844       0.04580845
Cl       8.62189752       1.38568397       2.12134332      -0.00896066       0.00311816      -0.00955999
Cl       6.89299101       0.09950438       4.04029776       0.00128454       0.00323904      -0.00426680
Cl       5.90133110       2.31970524       2.46746044       0.00220048      -0.00431284       0.00422156
Cl       7.86118284       2.78871506       4.55148981       0.00029463      -0.00086361      -0.01105690
C        7.32394646       1.61451177       3.28861639      -0.00762974       0.00233397      -0.01038798
Cl      16.46370216       6.09810325       9.95285830      -0.00004309      -0.00461598       0.00393018
Cl      14.31231931       4.76689825       8.52643892      -0.00191326       0.00138146       0.00262022
Cl      14.30348967       7.65287955       8.81975404       0.00570965       0.00104654       0.00187704
Cl      13.81858159       5.94977521      11.11956302      -0.00111720       0.00385682       0.00158900
C       14.71979012       6.11472861       9.59644188       0.00061487       0.00045468       0.00242648
Cl       2.07058136      12.62712205       4.70004239      -0.00231610       0.02126050      -0.03092277
Cl       1.39778769       9.80288632       4.83504834       0.00298719       0.01981807       0.00303185
Cl       3.43660246      10.74501592       2.99217008      -0.00898659       0.00187241      -0.01720184
Cl       0.65290881      11.36909852       2.51109508      -0.01274842      -0.00287967      -0.00487608
C        1.88585491      11.15330399       3.77393891      -0.00409735       0.00936863      -0.01222975
Cl       4.64015395       7.70262491       4.37042679       0.00684154       0.00972480      -0.00883211
Cl       4.41381216       4.92294306       3.63676967      -0.00235033       0.00755966       0.00069642
Cl       2.47085042       6.83503740       2.65801082       0.00104290       0.00947861       0.00027394
Cl       2.50646279       6.11191821       5.47303125       0.00594616       0.01944016       0.00180715
C        3.51500864       6.38578779       4.04146003       0.00299474       0.01194522      -0.00110937
Cl      16.27090892      15.20220888      -0.02892363       0.00928724       0.01814079       0.00526321
Cl      18.27254738      14.89935801       2.05933965       0.02662516       0.00071347      -0.00624615
Cl      18.06524668      12.94645072      -0.09564378      -0.00767735       0.00670156      -0.01229438
Cl      15.98671970      13.08098468       1.92373858       0.01650831       0.01909184       0.00885740
C       17.13650720      14.04256487       0.96676650       0.00999607       0.01171888      -0.00461355
Cl       1.89883631       9.32193273      14.03155506       0.00195372      -0.00423489      -0.00224113
Cl       2.14869317      10.56198890      11.42267267      -0.00531632      -0.00627574      -0.00311053
Cl       1.94366827       7.67328756      11.64472589      -0.00605460      -0.00555414      -0.00114994
Cl       4.34419894       9.03598717      12.52501837      -0.00295115      -0.00642618      -0.00896756
C        2.58807941       9.14631834      12.40827051      -0.00311827      -0.00537583      -0.00378840
Cl       8.63831016      17.45470307       9.35253659       0.00036050       0.00711530      -0.00362134
Cl       9.93525233      18.76831768       7.10343592       0.00323284      -0.00293970      -0.00613505
Cl       7.19590293      19.39458737       7.74786918       0.00833666       0.01388878      -0.00280111
Cl       7.84234359      16.80039437       6.65412086      -0.00978065       0.00974882      -0.00122213
C        8.40385695      18.07544848       7.72251760       0.00030917       0.00708555      -0.00343931
Cl      17.71710223       9.69734731      12.39778412      -0.00319262      -0.01292720       0.00640687
Cl      15.22824392       8.58939690      13.37936365      -0.00504684      -0.00153605       0.01365688
Cl      17.32500825       9.29866794      15.24199536       0.00283305      -0.01294173       0.00698674
Cl      17.64521942       7.01266761      13.48018331      -0.01203977      -0.01278892       0.00406227
C       16.97512598       8.65553300      13.61910168      -0.00419267      -0.00985110       0.00790741
Cl      10.80984820       9.13899516       3.62066040       0.00015956      -0.00047560      -0.01523021
Cl       9.85317902       8.84407912       6.34133691       0.01260680       0.00252947      -0.01088136
Cl       8.19244530       8.00086458       4.11616084       0.00782719      -0.01072913      -0.00144883
Cl       8.65317636      10.81634884       4.59622518      -0.00255814      -0.00757647      -0.01049918
C        9.37036741       9.21056288       4.66937326       0.00455746      -0.00420973      -0.00950303
Cl       2.00461985       2.16298362       4.37794924      -0.01628417       0.01861888       0.00770342
Cl       3.46526653       2.94186222       6.76542760      -0.01554826       0.00457442       0.00826406
Cl       3.63243211       0.22864367       5.79707758      -0.02125019      -0.00301600      -0.04206660
Cl       1.15974048       1.18828957       6.97075075       0.00293636      -0.01154284       0.00420952
C        2.59198841       1.61007670       5.97698593      -0.00722638       0.00334267      -0.00206799
Cl      16.84371931       0.48431896      12.36276081       0.00046129      -0.00237077       0.00753370
Cl      16.36114062       1.86037183      14.86874262      -0.00457383      -0.00098055       0.00556737
Cl      15.02140564       2.72983369      12.45349484       0.00585124       0.00202619       0.00191194
Cl      17.87168577       3.17314741      12.76749219       0.00540845      -0.00524263       0.01071837
C       16.50477794       2.06228291      13.10955139       0.00165506      -0.00134775       0.00661819
Cl      10.68939297      16.33557531       4.27807166      -0.00361338       0.00001895       0.00360539
Cl      11.11925471      13.70558230       3.13448495      -0.01404929       0.00080597      -0.00157833
Cl       8.43287708      14.78516382       3.37768828      -0.00806832       0.01653133      -0.01152790
Cl       9.89319287      13.97277005       5.74609502      -0.02349733       0.00252831      -0.00685674
C        9.99792325      14.70438969       4.12219147      -0.01209384       0.00521365      -0.00431259
Cl       8.95533183       4.82186859      12.80567270       0.01134139      -0.00693083      -0.00240117
Cl       6.74942825       3.74626761      14.33665534       0.00922191      -0.00642025      -0.00395408
Cl       6.28628389       5.83774560      12.37417422       0.01330999       0.00412159       0.00967506
Cl       7.67891688       6.44445254      14.84157061       0.01438443      -0.01299751       0.00917462
C        7.41889605       5.21040748      13.58483501       0.01453528      -0.00542736       0.00287855
Cl      14.21955847      17.08953327      16.30259814       0.00142398      -0.00445652       0.00586275
Cl      12.03440895      15.51872584      15.22554577       0.00060213      -0.00256637       0.00629616
Cl      12.79093982      15.22925284      18.00474918      -0.00328702       0.00206740       0.00805283
Cl      14.53946221      14.23700706      15.90393370      -0.00323957      -0.00550967       0.01267430
C       13.36439967      15.51577592      16.33467971      -0.00123549      -0.00257327       0.00824007
Cl      15.61652885      13.99839249      11.21487788      -0.00763321       0.00623000       0.00480685
Cl      13.20869812      13.27074569       9.74730309      -0.00225383      -0.00377961       0.00396252
Cl      13.35209474      12.85079925      12.58755080      -0.00525403       0.00279533       0.00534856
Cl      14.95893745      11.22069184      10.78224786       0.00080240       0.00301564       0.01096688
C       14.26887409      12.83317802      11.08019055      -0.00373410       0.00195076       0.00651922
Cl      16.71762059       8.61439265       2.90506042       0.00072610       0.00145423       0.00976139
Cl      15.06101339       7.15254803       1.02408674       0.00711479       0.00358748       0.00404000
Cl      16.35011593       9.63577358       0.22901724       0.01072592       0.00303832       0.00897685
Cl      14.14610938       9.67698507       2.11283393       0.00451148       0.00394994      -0.00027522
C       15.57548652       8.77941071       1.57042156       0.00577214       0.00308225       0.00597401
Cl      12.13011583       6.20177741      14.42242471      -0.00215986       0.01014575       0.00707525
Cl      14.60961489       5.26070879      15.59633879      -0.00519812       0.00661521      -0.00542344
Cl      12.42727914       3.40394789      15.12147080      -0.00434716       0.00754780      -0.00595322
Cl      12.20141106       5.39793822      17.20949512       0.00094280       0.00028726       0.00392401
C       12.83796159       5.05818359      15.58502164      -0.00417368       0.00535372       0.00101117
Cl      10.95266513       9.46801278      16.56378990      -0.00665325       0.00405973       0.00989077
Cl      12.72841984      11.22830947      18.03271251      -0.00732107       0.01057020       0.00142390
Cl      13.07727061      10.88174648      15.18686302      -0.00784218      -0.00014266       0.00322604
Cl      13.71526399       8.71120854      16.97881078      -0.00607783       0.00797147       0.01134875
C       12.61763220      10.07608283      16.69139788      -0.00717077       0.00563243       0.00618393
Cl      15.90680769       1.69415462       6.69911194       0.00938206      -0.00404912       0.00310093
Cl      14.71583768       0.98241313       9.23505270       0.00070381      -0.00549144      -0.00106633
Cl      17.19407801       2.47726776       9.18685358      -0.00120100      -0.00245553       0.00591993
Cl      17.18243675      -0.28969860       8.38168237       0.00395671      -0.00323004       0.00912404
C       16.23822445       1.21221537       8.37378682       0.00307959      -0.00403926       0.00402165
Cl      18.01330296       4.63855632       6.66774456       0.00591590      -0.00259930       0.00393179
Cl      18.32121475       5.61742741       3.96951916       0.00838700      -0.00112163       0.00494623
Cl      17.49132844       7.42148237       6.09190232       0.00907255      -0.00218016       0.00487809
Cl      15.67541408       5.38301516       5.11044104       0.00777137       0.00061490       0.00274733
C       17.37465094       5.76502499       5.46471877       0.00761855      -0.00174529       0.00416545
Cl       1.18539996      13.40529328      14.02618321       0.00048466      -0.00843215       0.00740084
Cl       1.33370729      11.87743169      16.48609702       0.00525998      -0.00953728       0.00453714
Cl       1.77873209      14.74006175      16.53772296      -0.00743068      -0.00811207       0.00764889
Cl       3.74532621      12.98892327      15.32176532      -0.00177598       0.00239999       0.00430626
C        2.02903244      13.24981458      15.59775155      -0.00178364      -0.00442506       0.00685823
Cl       8.23638689      13.55414043      11.56504144      -0.00345397       0.00751120       0.00283086
Cl       5.40471470      13.26648506      12.08714342      -0.00637019       0.01388845      -0.00045153
Cl       7.34200701      12.59829123      14.13716222      -0.00839725       0.00988600      -0.00068676
Cl       7.06188505      10.91422525      11.78639591      -0.00581133       0.00854546       0.00491196
C        7.02998603      12.60023341      12.37686836      -0.00756136       0.01053956       0.00012383
Cl       1.63014071      -2.07499272      13.59868082       0.00635549       0.00361466       0.01126680
Cl      -0.11192490      -0.17491093      16.56953835      -0.00356552      -0.00145012       0.00254971
Cl       1.27859453       0.75313280      13.32147439       0.00039399      -0.00785542      -0.00317377
Cl       3.25036864      -0.27125045      15.11405982      -0.00490791      -0.00848222      -0.00502491
C        2.06360136      -0.52437755      14.00559932       0.01067899      -0.02438783       0.01399635
Cl       4.68053337       1.06784661      12.05779873       0.00210384      -0.00747304       0.00007433
Cl       4.16950371       0.13170627       9.37312651       0.00542487      -0.00132805      -0.00303262
Cl       5.41013962       2.72474808       9.81479160      -0.00288728       0.00042963       0.00416695
Cl       2.61236676       2.31913551      10.43017345      -0.00105703      -0.00950590       0.00360555
C        4.22807790       1.54859922      10.39605412       0.00117558      -0.00425762       0.00024016
Cl      14.74100541      16.25642941       8.60373596       0.00999480      -0.01443985      -0.02048284
Cl      11.86193523      16.15843068       8.43211943       0.00952661       0.00106901       0.00485957
Cl      13.48332701      14.87903546       6.39320911      -0.01632980      -0.01138419      -0.00603670
Cl      13.37787592      17.76276293       6.54821171       0.00209299      -0.01054996      -0.01144779
C       13.34212380      16.26048134       7.50042061       0.00053005      -0.00809623      -0.00873066
Cl       9.20630854       1.92024968      10.34365215       0.00684899       0.00570095      -0.00459224
Cl      11.63335072       3.17521213      11.31764248       0.00705767       0.00172663      -0.00140595
Cl      11.57751577       0.32038054      10.78462625       0.00705868       0.00479943      -0.01402634
Cl      10.11548923       1.38179394      13.03620912       0.00944284      -0.00641224      -0.00816977
C       10.62456723       1.67789174      11.37778857       0.00763263       0.00165774      -0.00719690
Cl       1.50707932      13.60345807       8.73969838      -0.01693684      -0.01634693      -0.00309607
Cl       0.04996747      14.94483832       6.63025132      -0.01013535       0.00751409       0.00631034
Cl       2.11919051      16.34686648       8.06739858       0.00113267      -0.01862741       0.01475514
Cl      -0.38488863      15.70273344       9.39799302      -0.00507700      -0.00967094       0.00991353
C        0.83891326      15.15893124       8.20353666      -0.00796632      -0.00948817       0.00750618
Cl      17.17838960      11.97057672       5.24186448      -0.00608958       0.00533429       0.00133574
Cl      15.01394372      10.70887234       6.69719218       0.00383508      -0.00789148       0.00561696
Cl      16.38879685      12.98269879       7.83996270      -0.00900324       0.00287527      -0.00082752
Cl      17.74702233      10.44436140       7.64627346       0.00403699       0.00980526       0.00179100
C       16.58272099      11.54039785       6.85253688      -0.00192392       0.00273415       0.00209607
Cl       4.81429515       6.76328601       9.13382634       0.00441617       0.00158821       0.00641328
Cl       6.15472069       8.59321620       7.33817594       0.00909229      -0.00741434      -0.00025278
Cl       6.46616036       5.72596793       6.98956747      -0.01364711      -0.00876707      -0.00120392
Cl       7.69988108       7.07518302       9.24073485       0.00523525      -0.01875034      -0.00612050
C        6.28801697       7.04136778       8.16575534       0.00117901      -0.00799229      -0.00044404
