196
Lattice="14.184228993452615 0.0 0.0 0.0 14.184228993452615 0.0 0.0 0.0 14.184228993452615" Properties=species:S:1:pos:R:3:forces:R:3 energy=-536913.9375 stress="-0.0004985812120139599 0.00012264256656635553 -0.0003930176026187837 0.00012264256656635553 -0.0008662950131110847 -0.0001667020987952128 -0.0003930176026187837 -0.0001667020987952128 -0.001419016974978149" pbc="T T T"
Lu      10.69055462      11.73800625       2.52306792       0.02188352      -0.03148039       0.01164427
B        6.15332179      12.70168029       3.55855304      -0.00389717      -0.00539862      -0.00659793
F        7.89234868      12.94879939       4.98987801       0.01099040       0.03099721       0.01284096
F        6.12974749      13.97735117       3.23306919       0.02081165      -0.00515300      -0.00760671
F        6.82800405      11.86083184       2.79066671       0.01642919      -0.01388767       0.01951915
F        5.37020861      12.24543345       4.50560927      -0.01045135       0.00419880      -0.00647402
B        8.53914542      13.74996745      11.91211828       0.01292511       0.00137703      -0.01516309
F        9.27558890      14.86145563      12.37866002       0.00528610       0.00356662      -0.00821042
F        8.02146819      13.99824280      10.65090315       0.03630918      -0.00992787      -0.02652073
F        9.38178733      12.62353460      11.88367641       0.01021641      -0.00084603       0.01090436
F        7.48561781      13.49487821      12.82229744      -0.00925279       0.00999844      -0.02936363
B        9.24057816      12.82916048       4.79677892       0.00549401       0.00277969       0.00562739
F        9.55241618      11.43180387       4.43340611       0.01022506      -0.00592670       0.02419133
F        9.64172821      13.47548397       3.56392504       0.01305940      -0.03503549      -0.01344785
F        9.99597161      13.22109844       5.83352914      -0.00695162       0.02344644       0.00706570
F       12.40083255      12.45260366       3.05152511       0.00424998       0.01847932       0.00647298
C       12.15382793       4.46731709       4.50254739       0.00020266      -0.00325610       0.00037274
C       13.02491109       4.06714031       3.49596665      -0.00036523      -0.00246081      -0.00029724
C       11.35073831       3.52701241       5.13857013       0.00337432      -0.00398377       0.00312857
C       13.09662266       2.72694166       3.12903023       0.00316414      -0.00346430       0.00240684
C       11.42184395       2.18862563       4.77211828       0.00467852      -0.00445786       0.00369585
C       12.29691746       1.78609990       3.76832310       0.00476454      -0.00349362       0.00381589
H       12.09344446       5.51125817       4.78697586       0.00018259      -0.00337777       0.00249529
H       13.64897698       4.80002642       2.99801949      -0.00114622      -0.00245921      -0.00105267
H       10.65793605       3.83875211       5.91012233       0.00605984      -0.00525366       0.00589065
H       13.77908497       2.41522545       2.34760757       0.00423127      -0.00434884       0.00387732
H       10.79219820       1.45886034       5.26521563       0.00726558      -0.00581492       0.00521389
H       12.35995501       0.74091120       3.49051812       0.00615355      -0.00373620       0.00526642
C        9.21557629      12.78365747       0.69321382      -0.00276852      -0.00030279       0.00687507
C        8.98391819      11.41023617       0.55899185      -0.00101209       0.00141076       0.00646722
C       10.48927339      13.30970928       0.43557702      -0.00533500       0.00286889       0.01348589
C       10.03004539      10.56402271       0.17727496       0.00000951       0.00237460       0.00915778
C       11.52810164      12.46325462       0.03197844      -0.00244814       0.00639488       0.01893415
C       11.30256097      11.08901033      -0.08375209       0.00043616       0.00551505       0.01604557
H        8.40012885      13.44048013       0.95506150      -0.01043832       0.00083484      -0.02406589
H        7.99316587      11.01259001       0.73287300      -0.00769079       0.00992645      -0.01660324
H       10.65170534      14.37629647       0.49840864      -0.01673061       0.00495219      -0.00024427
H        9.85840192       9.50396903       0.05503115      -0.00415644       0.00374608       0.00531809
H       12.50560749      12.86887497      -0.19094291      -0.00562201       0.01452513       0.02268767
H       12.09516368      10.43343220      -0.42106101       0.00508861       0.00789157       0.02436347
C        8.45580732       4.82352975       3.34461263       0.01011753      -0.00813937      -0.00593197
C        9.42935898       4.40868415       2.44417516       0.00727870      -0.00572975      -0.00514297
C        7.40046258       3.97775016       3.66212562       0.00913681       0.00819905      -0.00051486
C        9.35608565       3.14610097       1.87041758      -0.00432785      -0.01534308      -0.00735761
C        7.32309563       2.71530530       3.08760355      -0.00239404      -0.00164509      -0.00286970
C        8.30460073       2.29894316       2.19650236      -0.00515877       0.00089359      -0.00222083
H        8.50996621       5.80603355       3.79690773       0.01768609      -0.00213958      -0.00596685
H       10.25904782       5.05973568       2.20641582       0.00864442      -0.01628722      -0.01114277
H        6.63722581       4.30890000       4.35507421       0.01033214       0.00805023      -0.00189408
H       10.12130288       2.82853934       1.17322044      -0.00679478      -0.01484043      -0.00781133
H        6.49595478       2.06157550       3.32328112      -0.00367197       0.00877371       0.00076026
H        8.23710597       1.31996017       1.74230766      -0.01473953      -0.00423348      -0.00329515
C       12.72028964       5.95712044       7.69497356       0.00222934       0.00271325       0.00891212
C       13.34775842       7.03990705       7.08876983       0.00351401      -0.00350521       0.00709214
C       11.33582283       5.94113256       7.82578751       0.00552253      -0.00423373       0.00865255
C       12.59308265       8.10513359       6.61308639      -0.00141653      -0.00264871      -0.00102779
C       10.58015449       7.00539323       7.34547757       0.00052524      -0.00309521       0.00076440
C       11.20897313       8.08750412       6.73966671       0.00215942      -0.00909965      -0.00096083
H       13.30681774       5.12076321       8.05448793       0.00750356       0.00394940       0.01350825
H       14.42617006       7.05623338       6.98735320       0.00157116       0.00007147       0.00803625
H       10.84141922       5.10056571       8.29623576       0.00392763      -0.00080368       0.00912697
H       13.08834766       8.95920746       6.16849391       0.00038603      -0.00638150      -0.00191230
H        9.50271548       6.99391324       7.45895861       0.00208387      -0.00737211      -0.00007704
H       10.62355181       8.93378661       6.40068894      -0.00058711      -0.00860985      -0.00567514
C        5.61623450       9.14493795       0.75473639      -0.00294613       0.00551490       0.00321563
C        6.74431051       8.33270622       0.78130087      -0.00124665       0.00233783       0.00406211
C        4.42344703       8.68802435       1.30231239      -0.00122666       0.00400148       0.00320603
C        6.68586808       7.07470394       1.36740904      -0.00422755       0.00489722       0.00305685
C        4.36536560       7.42701924       1.88486790      -0.00437057       0.00649707       0.00201041
C        5.49723281       6.62529347       1.92982988      -0.00272406       0.00294472       0.00260735
H        5.65333062      10.11482131       0.27336176      -0.00115599       0.00434248       0.00420238
H        7.66042281       8.66714841       0.30885586      -0.00203223       0.00368405       0.00471639
H        3.54220802       9.31593006       1.26934262      -0.00164470       0.00651900       0.00354909
H        7.55067261       6.42277451       1.37072288      -0.00360596       0.00277304       0.00363998
H        3.43636844       7.07081733       2.31334929      -0.00330217       0.00577166       0.00220748
H        5.45858637       5.64288357       2.38146165      -0.00492901       0.00425585       0.00170525
C        6.89587158       9.06760751      11.51338185      -0.00109230      -0.00465119       0.00461778
C        5.69074861       8.38117299      11.60771839       0.00063313      -0.00216739       0.00066204
C        6.91457141      10.45719489      11.47857596       0.00154831      -0.00241213       0.00743222
C        4.49688749       9.08800502      11.65370147      -0.00105080      -0.00355336      -0.00000738
C        5.71579755      11.16405215      11.51306091      -0.00018489      -0.00402108       0.00670493
C        4.50994654      10.47744764      11.59406591       0.00172077      -0.00137557       0.00264299
H        7.82521178       8.51300294      11.45789866      -0.00007808      -0.00362321       0.00553584
H        5.68313653       7.29813833      11.64191789      -0.00123517      -0.00328341      -0.00144557
H        7.84979912      11.00135852      11.41960338       0.00069964      -0.00400169       0.01049319
H        3.55512460       8.55704226      11.72833901      -0.00026768      -0.00196540      -0.00292920
H        5.74259021      12.24518011      11.47181187       0.00186547      -0.00278926       0.00899003
H        3.57561665      11.02645111      11.60084575       0.00083536      -0.00224005       0.00210672
C        2.32471209      12.46768813       2.80267670       0.00786708       0.01445244      -0.01506491
C        3.27544834      12.63367175       1.80127505       0.00361502       0.01627672      -0.01956291
C        1.16679170      11.74510885       2.54342288       0.01113337       0.00789977      -0.00955020
C        3.08383918      12.06310718       0.54852670       0.00056092       0.01322993      -0.01695047
C        0.96889867      11.18211803       1.28694966       0.00821911       0.00419348      -0.00671566
C        1.92846594      11.33291921       0.29173251       0.00361771       0.00732947      -0.01174149
H        2.47653090      12.91087013       3.77903017       0.01044506       0.01648689      -0.01681572
H        4.15503016      13.23774928       1.98108401       0.00251506       0.01864905      -0.02234922
H        0.40178658      11.65729142       3.30220025       0.01616612       0.00615548      -0.00426322
H        3.83535688      12.18284409      -0.22180063      -0.00241718       0.01369267      -0.02012604
H        0.06163570      10.62600881       1.08383408       0.01016613       0.00019228      -0.00404610
H        1.77699176      10.88206407      -0.68154392       0.00171956       0.00490426      -0.00982483
C        6.60588327       2.27040461      13.40854168      -0.00632112      -0.00723531      -0.00897195
C        5.49274341       1.48527787      13.69028582      -0.01541038       0.00733341      -0.00198037
C        6.50943314       3.65422549      13.48746056      -0.01714006       0.00939040      -0.00312064
C        4.29009397       2.08268794      14.05310329      -0.00178017      -0.00909674      -0.00032458
C        5.30425311       4.25445507      13.83143834      -0.00326003      -0.00727026      -0.00094448
C        4.19458453       3.46849232      14.12022623      -0.01091026       0.00676516       0.00539915
H        7.53827591       1.79731364      13.12958356      -0.01442006       0.00251451      -0.01185066
H        5.58230622       0.40988387      13.61476686      -0.00931384      -0.00225091      -0.00669641
H        7.37992494       4.26730754      13.28724136      -0.01171865       0.00046169      -0.00893910
H        3.42549931       1.46835674      14.27531988      -0.00716162      -0.00037694       0.00413078
H        5.23157960       5.33207018      13.88147050      -0.00953220       0.00223643       0.00261696
H        3.25601378       3.93811797      14.38882146      -0.00479394      -0.00260799       0.00864188
C        3.64106380      10.88660157       7.74959896      -0.00342001       0.02076425      -0.00613311
C        4.81522527      11.61918697       7.60857470      -0.00782272      -0.00726661       0.00338529
C        3.69951487       9.54696591       8.11208593      -0.00401981      -0.00828286       0.00130451
C        6.04468879      11.01144439       7.82856909      -0.00928995       0.02204566      -0.00178174
C        4.92949573       8.93841811       8.33085119      -0.00535708       0.02117859      -0.00469285
C        6.10019465       9.67049824       8.18836014      -0.01050219      -0.00719137       0.00527914
H        2.68185585      11.35999345       7.57834545      -0.00537893       0.00372155      -0.00267821
H        4.77345090      12.66277474       7.32565532      -0.00726581       0.01088411      -0.00182548
H        2.78530184       8.97504354       8.22414873      -0.00457425       0.00755309      -0.00434026
H        6.95717626      11.58519966       7.72415456      -0.00919203       0.00661387       0.00483589
H        4.97322730       7.89446169       8.61330196      -0.00599914       0.00255758       0.00060326
H        7.05722015       9.19454275       8.35852784      -0.00822011       0.01028319       0.00238965
C       11.79729844       7.29081141      12.32257291       0.00606329      -0.00638333      -0.00058147
C       12.47076558       6.07822298      12.40982691       0.00071813      -0.01013836       0.00137644
C       10.40724703       7.31616981      12.35387542       0.00576161      -0.00142866       0.00013276
C       11.75333117       4.89213295      12.53243010      -0.00317370      -0.00641781       0.00313057
C        9.69011400       6.13220593      12.48777608       0.00155419       0.00262084       0.00461002
C       10.36298000       4.91638007      12.57583849      -0.00325622      -0.00077267       0.00638561
H       12.34855316       8.21542022      12.20947537       0.00933465      -0.00900170      -0.00348987
H       13.55321098       6.05651859      12.37145880       0.00052930      -0.01421092       0.00081857
H        9.88815558       8.26193436      12.25744054       0.00971631       0.00104307      -0.00212005
H       12.27607684       3.94563846      12.58571409      -0.00727308      -0.00915442       0.00325202
H        8.60660206       6.15678941      12.51374517       0.00127488       0.00670836       0.00591257
H        9.81046852       3.98865347      12.66681191      -0.00657938       0.00252226       0.01034565
C       10.42764480       8.92966570       3.13081738      -0.00258545      -0.00806509      -0.00232537
C       10.40395416       7.91498287       2.17463952      -0.00301933      -0.00547472      -0.00457729
C       11.65493988       9.47475709       3.53091900      -0.00274481      -0.00231620      -0.00593308
C       11.58833335       7.44406717       1.62501954      -0.00140382       0.00375701      -0.00997993
C       12.84425556       9.01380343       2.95576925      -0.00163850       0.00293406      -0.00653476
C       12.80650292       7.99857911       2.00929958      -0.00288472       0.00595286      -0.00906764
H        9.50003283       9.22239517       3.61017655      -0.00149694      -0.00711580      -0.00102526
H        9.45609965       7.48570054       1.87859207      -0.00055234      -0.01645255       0.00169525
H       11.71379545      10.16293519       4.37321908      -0.00412917       0.00288521      -0.00937714
H       11.56447058       6.64456821       0.89583361       0.00218622      -0.00136250      -0.00358704
H       13.79203678       9.42733824       3.27357724      -0.00113971      -0.00023723      -0.00299728
H       13.72790340       7.62974003       1.57654769      -0.00176676      -0.00036898      -0.00009267
C        8.89279440       2.19945894       8.13592696       0.00048625      -0.00680313       0.00353177
C        7.86271391       2.39552854       7.22289336       0.00602199      -0.00457217       0.00120565
C        9.05223181       3.07850808       9.20103716      -0.00016156      -0.01085222       0.00636175
C        6.98557573       3.46204033       7.38435767       0.00566261      -0.00165378       0.00011837
C        8.18489319       4.15543330       9.35120327      -0.00080019      -0.00820876       0.00545721
C        7.14656663       4.34490752       8.44613740       0.00474785      -0.00588164       0.00307022
H        9.56072191       1.35504399       8.02562955      -0.00048850      -0.00937591       0.00492374
H        7.73899465       1.71436361       6.38958966       0.00663202      -0.00249365      -0.00029799
H        9.84053607       2.91297483       9.92436082      -0.00562628      -0.01428080       0.00961730
H        6.16837290       3.60074837       6.68660142       0.01033653       0.00120554      -0.00289037
H        8.31327922       4.84142065      10.17959094      -0.00187366      -0.01167420       0.00822406
H        6.45528974       5.16925879       8.57479258       0.00423986      -0.00447179       0.00270038
C        3.96380466       3.27954264       9.29908405      -0.00980999      -0.00161228      -0.00838235
C        3.20824061       3.92088013       8.32484494      -0.00506630       0.00271745      -0.00856116
C        4.18250545       3.89097784      10.52739172      -0.01043651      -0.00312766      -0.00663592
C        2.67268183       5.17962605       8.57622111      -0.00144996       0.00343794      -0.00879580
C        3.64140434       5.14663698      10.78005354      -0.00674544      -0.00225362      -0.00680634
C        2.88888886       5.79298884       9.80538907      -0.00252256       0.00180748      -0.00702341
H        4.39987196       2.30940252       9.09803327      -0.01345977      -0.00296207      -0.00769122
H        3.03899281       3.44126236       7.36855007      -0.00455477       0.00467674      -0.00993335
H        4.77702006       3.39624057      11.28401066      -0.01383704      -0.00663617      -0.00662786
H        2.08890505       5.68100735       7.81460865       0.00201160       0.00584197      -0.00941056
H        3.80763416       5.61715753      11.74120183      -0.00765308      -0.00377411      -0.00542572
H        2.47294895       6.77365861      10.00264207      -0.00032441       0.00248596      -0.00795949
C       10.91015475      10.19969148       9.64717488       0.00531581       0.00523571       0.00297670
C       11.08151690      11.57819224       9.69386789       0.00511029       0.00685862       0.00704795
C       12.01303550       9.35479448       9.69259042       0.00585292       0.00720263      -0.00021850
C       12.36272264      12.10877978       9.79292619       0.00456426       0.00524199       0.00741679
C       13.29283505       9.88721096       9.79461030       0.00527300       0.00560591      -0.00021602
C       13.46780357      11.26582097       9.84496928       0.00505963       0.00724778       0.00436186
H        9.91277603       9.78176866       9.56971036       0.00574718       0.00640328       0.00147114
H       10.22238155      12.23422498       9.68298042       0.00487581       0.00573832       0.00779220
H       11.87679978       8.28267741       9.63887423       0.00588412       0.00646704      -0.00374812
H       12.49554719      13.18212038       9.83616218       0.00434598       0.00599481       0.01078783
H       14.15145376       9.22649278       9.82326953       0.00578596       0.00693247      -0.00301182
H       14.46529332      11.68220063       9.92035855       0.00469640       0.00641489       0.00520282
C        4.76196243       7.80759200       5.19574854      -0.00290152      -0.00521080       0.00553789
C        5.39962440       8.95122375       4.73415535      -0.00600076      -0.00719327       0.00656134
C        5.50154326       6.76586799       5.74093389      -0.00214856      -0.00774133       0.00422751
C        6.78175118       9.05322854       4.81796217      -0.00475970      -0.00367545       0.00311640
C        6.88557072       6.86621528       5.82332144      -0.00059257      -0.00470936       0.00018611
C        7.52373245       8.01078743       5.36044640      -0.00410289      -0.00640986       0.00113609
H        3.68333559       7.73412808       5.13536799      -0.00355753      -0.00799237       0.00771455
H        4.82120779       9.76324689       4.31592149      -0.00595322      -0.00512241       0.00783943
H        4.99891863       5.88140067       6.11588605       0.00013232      -0.00719242       0.00334731
H        7.27530231       9.95201711       4.47189070      -0.00768803      -0.00434682       0.00368460
H        7.46409417       6.05439388       6.24713956       0.00018272      -0.00645053      -0.00191337
H        8.60228887       8.08565869       5.43261400      -0.00348257      -0.00376447      -0.00148754
