197
Lattice="14.051798885622956 0.0 0.0 0.0 14.051798885622956 0.0 0.0 0.0 14.051798885622956" Properties=species:S:1:pos:R:3:forces:R:3 energy=-700546.375 stress="-0.0019154628971591592 0.0002607589267427102 0.000538698019227013 0.0002607589267427102 -0.0011129764607176185 -0.00044052429439034313 0.000538698019227013 -0.00044052429439034313 -0.0015288947615772486" pbc="T T T"
Lu      12.24183741      13.85237714      -0.63358684       0.00609577      -0.00054970       0.00776158
O       13.82172531      14.30120121      12.37573427       0.00275553       0.02871394       0.01692874
H       14.37163193      14.75160795      11.73173619       0.01496626       0.03123142       0.03240763
O       10.38114543      13.84799375      12.94514932       0.00723863      -0.00188811      -0.00013047
H        9.64715731      13.95666194      12.28776583       0.00935552      -0.00361137       0.00274272
O        9.94168536      14.53529307       6.66733847       0.00114563      -0.00216291      -0.00920182
H        9.42333069      13.79068422       7.02173696       0.00421569      -0.00312911      -0.00707392
S        2.84214162       8.33040180       2.73047293      -0.00731778      -0.00369835       0.00995994
O        2.10258848       7.11760655       3.17394160      -0.00584936      -0.00177407       0.01796144
C        4.47343672       8.23170236       3.52963311      -0.00785625       0.00306601       0.01087373
C        2.24342468       9.72589612       3.69986203      -0.00915140       0.00176531       0.00013375
H        5.13479007       7.64263747       2.89663883      -0.00886080      -0.00401270       0.01665173
H        4.30641066       7.72019549       4.47741985      -0.00768629       0.01295310       0.01613462
H        4.89590178       9.22014767       3.69365936      -0.00727514       0.00443722       0.00055334
H        2.91218541      10.57369081       3.55427783      -0.01015133       0.00142203      -0.00537588
H        2.21504175       9.44061740       4.74908360      -0.00871879       0.00910483       0.00205490
H        1.23437067       9.95094386       3.35977738      -0.00922588      -0.00184563      -0.00160000
S        7.73881199      12.64747620      10.95940214       0.00474846       0.00348413      -0.00306857
O        8.47614287      13.95584573      11.13284943       0.00911176      -0.00000131       0.00032747
C        5.99924641      13.07181986      11.02597141       0.00642830       0.01001197      -0.00385876
C        7.83778580      11.80178941      12.54610312       0.00003023      -0.00049590      -0.00522655
H        5.78354779      13.65359876      10.13239077       0.01163438       0.01699920      -0.00044608
H        5.79605806      13.63266628      11.93440752       0.00676467       0.00501338      -0.00073490
H        5.41715803      12.15429029      11.01965669       0.00237869       0.01269332      -0.01178812
H        7.28006725      10.86707358      12.48260747      -0.00561498       0.00309055      -0.00710953
H        7.43709056      12.42816124      13.34185789       0.00356548      -0.00016625      -0.00395775
H        8.89151036      11.58453080      12.71112186      -0.00161415      -0.00787567      -0.00524123
S        4.55253250      11.40862009      -0.22444863       0.00286651      -0.00410998      -0.00265676
O        5.21504913      12.68917850       0.17889472       0.00164056      -0.00229418      -0.00731009
C        2.89227696      11.46688342       0.46779724       0.00068873       0.00042316      -0.00513318
C        5.22486530      10.15085961       0.85654313      -0.00083180       0.00015998       0.00357747
H        2.35182439      12.23480166      -0.08068888      -0.00065228      -0.00330713      -0.00978191
H        2.96931234      11.73402090       1.52159777       0.00046039       0.00590131      -0.00540839
H        2.41158691      10.49651569       0.34469867       0.00213697      -0.00187768       0.00073802
H        4.69188770       9.21402909       0.69830643      -0.00235246       0.00070901       0.00709298
H        5.12105684      10.50368654       1.88285591      -0.00185129       0.00530431       0.00123185
H        6.28340214      10.03039821       0.63054344      -0.00098270      -0.00208432       0.00446455
S        6.24265110       3.02503906      14.11282695       0.00262040       0.00318217       0.00757051
O        5.73633245       4.25093501      13.42535107       0.00047112       0.00230515       0.00791907
C        7.76406952       2.50942383      13.29349830      -0.00098765       0.00179708       0.00227141
C        5.20617947       1.67658884      13.54172289       0.00076070       0.00228852       0.01318669
H        8.43428272       3.36604921      13.30526746       0.00118235      -0.00007290       0.00173695
H        7.56655887       2.21800025      12.26429056      -0.00471637       0.00427580       0.00234182
H        8.18681920       1.67015920      13.84678439      -0.00139242       0.00006685      -0.00038084
H        5.54073148       0.72545160      13.94870807       0.00373060       0.00257228       0.01103013
H        5.22491002       1.66986178      12.45282915      -0.00523758       0.00220006       0.01320928
H        4.19522220       1.88701641      13.88345616       0.00247705       0.00144290       0.01834303
S        4.24456000       8.67742313       8.79650495      -0.00504196      -0.00042227       0.00395378
O        2.83546948       8.35092316       9.19217067      -0.00426185      -0.00397919       0.00330883
C        4.83237849       9.84329546      10.03537944      -0.00702235      -0.00027704       0.00477409
C        4.15003987       9.89916624       7.46507235      -0.00775306      -0.00047332       0.00445247
H        4.86295997       9.31759188      10.98683995      -0.00697508      -0.00084065       0.00433162
H        4.11230356      10.66088350      10.08478890      -0.00722834      -0.00063424       0.00531777
H        5.82587779      10.18090303       9.74305136      -0.00710955       0.00013509       0.00536795
H        5.10828850      10.40306187       7.36538451      -0.00875235       0.00117416       0.00451556
H        3.35190260      10.59702497       7.72074384      -0.00927359      -0.00231776       0.00423074
H        3.89800953       9.38542233       6.54080828      -0.00648844      -0.00117518       0.00458797
S        8.48445314       6.58914962      11.49462091      -0.00641537      -0.00690460      -0.00381911
O        7.92047683       5.21351947      11.54147137      -0.00975144      -0.00601792      -0.01769015
C        8.78238064       7.09518568      13.19987684      -0.00783657      -0.02381523       0.00103962
C        7.08275874       7.68610462      11.21754379      -0.00330234      -0.00132006       0.00376246
H        9.64085142       6.53055701      13.56094114      -0.00837815      -0.02778562      -0.00398928
H        7.90201555       6.86905044      13.79932460      -0.00876099      -0.03061674      -0.00298747
H        8.98934158       8.16362420      13.25015528      -0.00837729      -0.02436163       0.01273752
H        7.41297359       8.72295933      11.28585949      -0.00115937      -0.00277685       0.01338906
H        6.31203458       7.45666398      11.95481524      -0.00462044      -0.00568853       0.00087473
H        6.73268685       7.50261205      10.20330993      -0.00240740       0.00784999       0.00187674
S        9.34016629       9.85623075       2.20011533       0.00585318       0.00557953      -0.01753485
O        8.26965600       9.30047683       1.30689110       0.01222837       0.01424569      -0.03006124
C        9.42613628      11.61766890       1.89009945       0.01833189       0.00586325      -0.01113385
C       10.91947659       9.41893797       1.45208781       0.01067966       0.00055043      -0.00917110
H        8.48389411      12.02488392       2.25115154       0.02021468       0.00968919      -0.01137495
H        9.56861335      11.78928339       0.82246608       0.02050700       0.00855644      -0.01046556
H       10.25246750      12.02333391       2.47607712       0.01988758      -0.00094196      -0.00877735
H       11.71042856       9.95875405       1.97408347       0.00899962      -0.00682020       0.00326829
H       10.88488534       9.68720871       0.39511250       0.02463455       0.01300021      -0.00457725
H       11.04462311       8.34262337       1.55893980       0.00383903      -0.00285743      -0.00740810
S       13.13956177      12.47090980       4.22294622       0.00839686       0.00230506      -0.00097879
O       12.25013828      11.67827807       3.30626811       0.00698137       0.00566173      -0.01143992
C       13.28107710      11.56402175       5.77639470      -0.00366502      -0.00649011      -0.00783098
C       12.35889575      13.86774419       4.76279092       0.00225246      -0.00090009       0.00007963
H       13.75477653      10.60823770       5.55855129      -0.00061027      -0.00516734      -0.00835861
H       12.28782414      11.43019196       6.20399471      -0.00683184      -0.01186131      -0.01476797
H       13.91934775      12.15118365       6.43597441      -0.01129417      -0.01133583       0.00134334
H       12.86011494      14.32589540       5.61140001      -0.00015193      -0.00678581       0.00331360
H       10.56680863      14.12433459       6.04432134       0.00227906      -0.00173047      -0.00858964
H       12.12385709      14.55568825       3.95607011       0.00796779       0.00311524       0.00246078
S        9.17054387       4.44196708       8.76753679       0.00768781      -0.01023459      -0.00263178
O        8.15264760       4.57393636       7.65985116       0.00817549      -0.01252863      -0.00316858
C       10.63763191       3.69624396       8.04679291       0.00880867      -0.00801226      -0.00209212
C        8.68195097       2.99386185       9.70879621       0.00969000      -0.01056951      -0.00236377
H       11.11195083       4.46738028       7.44598914       0.00772633      -0.00735083      -0.00202136
H       10.35261927       2.81598291       7.46940555       0.01012576      -0.00819154      -0.00222258
H       11.29024486       3.43188142       8.87856595       0.00892982      -0.00708407      -0.00200205
H        9.43009528       2.82765386      10.48165975       0.00758084      -0.00683530       0.00025631
H        8.59830234       2.13731327       9.04000829       0.01463621      -0.01177492      -0.00117917
H        7.73835598       3.24379725      10.18352265       0.00721230      -0.01305722      -0.00605682
S        3.15717254       3.79743518       9.88682584       0.00233924      -0.00002325       0.01133978
O        2.32296770       2.82640033      10.66013540       0.00266385       0.00220275       0.01448190
C        4.88432693       3.54800078      10.34114430       0.00331962      -0.00571509       0.00418168
C        3.02567773       5.41118440      10.67571687       0.01067835       0.00010705       0.01223260
H        5.14287415       2.52556782      10.06919412      -0.00202638      -0.00719288       0.00516454
H        5.02972966       3.73768123      11.40668202       0.00858113      -0.00397352       0.00307831
H        5.49357969       4.24248174       9.76060803       0.00347685      -0.00921805       0.00048922
H        3.86004043       6.02695667      10.34476074       0.01352181      -0.00429283       0.01140267
H        3.03361751       5.27099149      11.75858177       0.01154995      -0.00078735       0.01191172
H        2.10412754       5.88210276      10.34859435       0.01276423       0.00530857       0.01408611
S       10.20622938      11.47190384       8.11504110       0.00522697      -0.00189137      -0.00067404
O        8.91533156      12.21072007       7.95442191       0.00667667      -0.00052863      -0.00482293
C        9.96612430      10.15835488       9.32672166       0.00226452       0.00489631       0.00564837
C       11.28081566      12.52791348       9.11276868       0.00712189       0.00050631      -0.00513893
H        9.08112991       9.60834619       9.00605564       0.00011964       0.00670892       0.00906862
H        9.81527403      10.57078492      10.32427751       0.00501126       0.01035877       0.00356844
H       10.83879003       9.50516672       9.29181673       0.00006181       0.00197364       0.00776439
H       12.20156088      11.99151689       9.34368659       0.00530913      -0.00111955      -0.00230146
H       10.74359446      12.81762531      10.01775553       0.00798646       0.00566988      -0.00649847
H       11.48587342      13.41185476       8.51042806       0.00884520      -0.00351471      -0.00999916
S        7.73822341       8.35367080       6.88058582       0.00526321       0.01936942       0.00348616
O        7.16538013       8.98461222       8.12008091      -0.00255686       0.01055765       0.00416791
C        7.47605324       9.50786583       5.52947605      -0.00633112       0.01823145       0.00516862
C        6.55961269       7.09313383       6.37377168       0.02097058       0.00548223       0.00233807
H        8.11378843      10.37479035       5.69361408      -0.02006684       0.02730648       0.01019994
H        6.43732812       9.83475172       5.50690972      -0.01115520       0.00244058       0.00091179
H        7.75277439       9.01646725       4.59593461       0.00547928       0.02491985       0.00536665
H        6.82937449       6.72724437       5.38395522       0.02292042       0.01237680       0.00040153
H        5.55999521       7.52549679       6.37228945       0.01538590      -0.00748169       0.00693034
H        6.64299607       6.28060479       7.09361110       0.03358027       0.00388627      -0.00086340
S        2.86396432       4.18787546       0.93535477      -0.01296985      -0.00104904       0.00202048
O        2.25043087       5.23554140       0.06686914      -0.01317012      -0.00110292       0.00226593
C        1.77008560       3.93694308       2.35009514      -0.01324618      -0.00102379       0.00160569
C        4.17564326       4.95552472       1.91441066      -0.01339251      -0.00065711       0.00150281
H        0.89506820       3.38483738       2.01585033      -0.01322879      -0.00074761       0.00135670
H        1.49897939       4.91891731       2.73686734      -0.01304307      -0.00099027       0.00143142
H        2.32012773       3.36282449       3.09772811      -0.01388241      -0.00098025       0.00190406
H        4.64770059       4.16466889       2.49817884      -0.01414433       0.00015391       0.00305048
H        3.71670187       5.69396277       2.56696742      -0.01351033       0.00020124       0.00033769
H        4.87999710       5.38004258       1.20394887      -0.01284795      -0.00184254       0.00149179
S        2.75965618      12.79215747       5.41295963      -0.00695896       0.00855322      -0.00528091
O        4.10584925      12.22983943       5.07246484      -0.01312363      -0.00303525      -0.01052666
C        2.44769107      14.14623644       4.26795536       0.00065335       0.01147097      -0.00362870
C        2.97387367      13.81547135       6.88616303       0.00851215       0.00635493      -0.00637978
H        2.41213159      13.70300616       3.27433510      -0.00817132       0.01205415      -0.00337967
H        3.24695802      14.88474315       4.34282254       0.00746509       0.00423098      -0.00675424
H        1.47582429      14.58288470       4.49847239       0.00599962       0.02074606       0.00101591
H        2.02047692      14.28186092       7.13766061       0.01469119       0.01736650      -0.00381433
H        3.73592559      14.56625893       6.68515363       0.01631027      -0.00246176      -0.00905648
H        3.28429586      13.15368564       7.69225772       0.00337614       0.00320297      -0.00719764
S       10.74574126       6.93531306       5.81225574      -0.00609827      -0.00720619      -0.00296223
O       11.19835433       6.79719258       7.23522720       0.00120860      -0.00792167      -0.00561738
C       11.90869872       5.98302258       4.81179051      -0.00411522       0.00352931      -0.01095754
C       11.28824920       8.56187621       5.27180992      -0.01972860      -0.00264782      -0.00220923
H       11.78484516       4.94046026       5.10070395       0.00833286       0.00264438      -0.00926391
H       12.91958860       6.34453891       5.00342364      -0.00620562       0.01308389      -0.01831052
H       11.64924810       6.10074586       3.76001646      -0.01357032      -0.00001181      -0.00896195
H       11.10610826       8.67717509       4.20537316      -0.02546421      -0.00260748      -0.00116071
H       12.35125212       8.64683502       5.49541730      -0.01966915       0.00459479      -0.00598451
H       10.70173724       9.29886380       5.81738837      -0.02266159      -0.00768152       0.00132850
S       12.13424284       5.65874471      11.99252097       0.00171983      -0.01296711       0.00206518
O       11.16824541       4.70981877      11.36589310       0.00191379      -0.01105988      -0.00079089
C       12.05301404       7.19799882      11.03799522       0.00131866      -0.01091105       0.00622529
C       13.77998880       5.18595730      11.44662068       0.00225860      -0.01106612       0.00191090
H       11.16171484       7.73553617      11.35379235      -0.00018260      -0.01331614       0.00570455
H       11.96677959       6.93929079       9.98182946       0.00397207      -0.00834715       0.00553465
H       12.94402197       7.79513241      11.22967847      -0.00010630      -0.01003230       0.00951067
H       14.51371877       5.82770730      11.93312144       0.00191373      -0.01490609       0.00740559
H       13.82991162       5.25339059      10.35891487       0.00488207      -0.00493850       0.00250703
H       13.95477250       4.15931993      11.75889022       0.00054771      -0.01290113      -0.00356744
S        5.17996442       3.66050083       5.46540037       0.00377235       0.00185812       0.00106502
O        4.45767014       2.71404612       4.54984877       0.00035667       0.00481963       0.00085169
C        6.87457898       3.76930117       4.87289416       0.00251597      -0.00118592      -0.00214897
C        5.57304837       2.74761447       6.96250426       0.00422895      -0.00128162      -0.00116807
H        6.84962489       4.24047147       3.89164678       0.00113518      -0.00072905      -0.00176725
H        7.26439137       2.75486694       4.80813149       0.00025603      -0.00182420      -0.00361117
H        7.46549771       4.34116059       5.58827655       0.00523204      -0.00280461      -0.00330549
H        6.30074962       3.32827777       7.53273268       0.00720389      -0.00440289      -0.00194605
H        5.99882028       1.78664321       6.66876221       0.00094768      -0.00193040      -0.00349712
H        4.64503979       2.61796885       7.51572954       0.00518756       0.00033895       0.00057437
S        1.19504299       7.86262092       6.75219199      -0.01270437       0.01159719       0.00344718
O        0.28307610       8.03714862       5.57537177      -0.01536286       0.01732363       0.00650251
C        1.61178394       6.10854932       6.84309550      -0.00972243       0.01181787      -0.00789682
C        0.12516327       7.93028926       8.19684246      -0.00921601       0.00003159       0.00631160
H        2.12311035       5.86987155       5.91194468      -0.00863156       0.01888610      -0.00902945
H        0.70096753       5.51762393       6.94011224      -0.00911587       0.01028184      -0.01299057
H        2.27554292       5.95063316       7.69229907      -0.01092176       0.00716902      -0.00789094
H        0.67975624       7.60548620       9.07143852      -0.00617959      -0.00500306       0.00241856
H       -0.75965077       7.33055508       7.97586188      -0.00821714      -0.00044511       0.00419022
H       -0.15272664       8.97686392       8.31807510      -0.01104236      -0.00157245       0.01434770
S        7.43399458      -0.06207841       4.39241038       0.00133640      -0.00632048      -0.00563371
O        7.90036887      -1.47949741       4.44746125       0.00416881      -0.00550818      -0.00971731
C        6.16240238       0.02750135       3.12265082      -0.00314271      -0.00778633      -0.00085682
C        8.71047423       0.86172206       3.49603511      -0.00341839      -0.00311163      -0.00818262
H        5.35466583      -0.61133296       3.47717643      -0.00095820      -0.00898656       0.00186734
H        6.54335772      -0.34084658       2.17058562      -0.00589567      -0.00723713      -0.00203966
H        5.81023874       1.05753401       3.04822668      -0.00478690      -0.00833164       0.00043276
H        8.31427249       1.81546732       3.15204394      -0.00590639      -0.00304922      -0.00479612
H        9.03609437       0.25963579       2.64781607      -0.00567744      -0.00088863      -0.01046219
H        9.53056031       1.01769792       4.19353514      -0.00130974      -0.00351034      -0.01079971
