198
Lattice="12.507822464461556 0.0 0.0 0.0 12.507822464461556 0.0 0.0 0.0 12.507822464461556" Properties=species:S:1:pos:R:3:forces:R:3 energy=-558187.375 stress="0.0034312165807932615 -0.00012182057616882958 0.0005114834639243782 -0.00012182057616882958 0.003544809529557824 4.837128835788462e-05 0.0005114834639243782 4.837128835788462e-05 0.0018807172309607267" pbc="T T T"
Lu      12.09087761      12.66072256       1.25578083       0.00054392       0.01873714      -0.00188026
P       11.33010493       9.74602510       1.31844246      -0.00767335      -0.00244349      -0.03592118
O       10.78511129       8.76931175       0.30877891       0.00522384       0.03563213       0.01078624
O       11.67390846       9.19972680       2.69845542       0.00207725       0.00878954       0.00283962
O       12.72639806      10.37529005       0.71789629      -0.00150037       0.01974379      -0.00209486
O       10.52295662      11.05529304       1.45183148      -0.00202107       0.02352938       0.00194487
O        1.84917344       1.24232596       9.23396461      -0.00025916      -0.01263218      -0.00611016
H        2.56746063       0.81892039       8.70192022       0.00323828      -0.00879504      -0.00459512
H        1.62503749       2.06885324       8.75473074      -0.00077007      -0.01160485      -0.00482444
O        8.14443978      12.02042852       4.67386997      -0.00448863       0.00374081      -0.00214145
H        8.18065550      12.89355424       5.12762542      -0.00636644       0.00229564       0.00167148
H        7.34156174      11.56098982       5.00931987      -0.00300856       0.00020703      -0.00216515
O        1.15602526       9.93074341       6.40995808       0.00299218       0.00307302      -0.00304097
H        1.50650968       9.15249908       6.90426404       0.00111442       0.00119527      -0.00311579
H        0.22856695      10.01943664       6.65924475       0.00489414       0.00859141      -0.00099578
O        3.94458043      12.60235329       8.00114878       0.00846714      -0.00029090      -0.00362955
H        4.29413191      13.25473863       7.36129785       0.00691882       0.00348302      -0.00056871
H        4.72365407      12.30643348       8.52036046       0.00983632      -0.00237479      -0.00593851
O       11.43606755       5.01960444       5.48553984      -0.00188901      -0.00749327      -0.00629945
H       12.29376091       5.44304983       5.32069163      -0.00372723      -0.00557074      -0.00903109
H       11.35228015       5.01675095       6.45801700       0.00136780      -0.00727810      -0.00509446
O        1.87769721       0.18041076       1.29938231       0.00080404       0.01639498      -0.00011978
H        2.48880862      -0.05040295       0.55248486      -0.00155415       0.00726529       0.00034383
H        2.35802698      -0.10766191       2.09723906      -0.00055934       0.01416388       0.00020846
O        4.63703843       7.98866145       0.81984622       0.00006056      -0.00640965      -0.00556664
H        4.75216747       8.94008415       1.01566842      -0.00400936      -0.00662613      -0.00412315
H        3.70298368       7.85983212       0.61316230      -0.00055537      -0.01125386      -0.00232019
O        5.13040044      10.71395197       1.32954685      -0.00601891      -0.00683233       0.00240953
H        6.10061107      10.70696357       1.36994653      -0.00581360      -0.00877760       0.00706948
H        4.85094987      11.26803023       0.56730556      -0.00179684      -0.00494548       0.00219581
O        5.41907860       1.76770346       3.36964474      -0.00297248      -0.00109202      -0.00437815
H        6.23454156       1.43822924       2.92839248      -0.00313346      -0.00024781      -0.00542255
H        4.82657569       0.98895036       3.40027852      -0.00132522      -0.00222733      -0.00038922
O        7.01771817       9.17974598       2.70825451      -0.00061843       0.00402328      -0.00015289
H        6.22056693       9.04680542       3.24641852       0.00032976       0.00175574       0.00106811
H        7.75699728       9.27657710       3.33179940       0.00007895       0.00680915      -0.00220969
O        4.71282979       2.25143033       6.36331023       0.00382060       0.00642487       0.00349614
H        5.34550006       2.06239846       5.65639185       0.00898141       0.00751740       0.00745982
H        3.83310090       2.33032731       5.92886129       0.00603790       0.00335952      -0.00086688
O        8.50497337       4.38490532      11.07585084       0.01776722       0.00054657       0.00215934
H        7.78987051       4.52155565      11.75384099       0.01553693       0.00161988       0.00164425
H        8.67034680       3.43963184      11.03382422       0.01510913       0.00044212      -0.00055072
O        7.54683522       9.04666489      11.56699023      -0.00729744       0.00747739       0.00086182
H        7.68890733       8.31834023      12.20866439      -0.00494843       0.00641494       0.00000327
H        6.70156078       8.86872405      11.13590742      -0.00364020       0.00503125      -0.00220427
O        3.14619892      10.51141960       9.85750690       0.01140627      -0.00275303      -0.00306484
H        3.02317170      11.02350046       9.04677881       0.01180747      -0.00281515      -0.00244179
H        2.27408240      10.12557013      10.12296970       0.01013841      -0.00128274      -0.00119238
O       11.42470489       2.31573271       4.73651072      -0.00794206      -0.00817530       0.00843614
H       11.52691510       3.28024131       4.86919372      -0.00581138      -0.00758310       0.00877924
H       10.99281475       2.04320428       5.56110023      -0.01068704      -0.00766641       0.00726674
O        8.15590839       2.07673117       5.65048628      -0.01367047       0.00047016       0.01038752
H        8.73076286       2.12506580       6.43142926      -0.01522579      -0.00629720       0.01262847
H        8.28446989       2.93917626       5.22089076      -0.00505177       0.00044651       0.01262870
O        4.62190290       6.27064056       2.92129717       0.00664578      -0.00238787      -0.00212553
H        4.80512049       6.88380573       2.16935568       0.00494411      -0.00414970      -0.00454070
H        5.40319871       5.68207972       3.00008770       0.00693046      -0.00265892      -0.00279084
O       10.54791675       1.38669256       2.38051577      -0.00522238       0.01230527      -0.00029472
H        9.58593508       1.19078522       2.35938416      -0.00492518       0.00995987      -0.00171641
H       10.76768691       1.75703719       3.27452752      -0.00674269       0.00405608       0.00433275
O       10.20745927      10.30719237      10.47156853      -0.00209621      -0.01487177       0.01145664
H       10.98817792      10.82129752      10.19950700      -0.00208859      -0.02593584       0.01862816
H       10.40702166       9.87016034      11.32817242      -0.00263509      -0.03055033       0.01789676
O        0.34040797       5.07447199       2.62112593      -0.00591834       0.00365847      -0.00477937
H        0.80084936       5.23621968       3.46585527      -0.00568492      -0.00017670      -0.00438142
H        0.45638670       4.13108522       2.42748720      -0.01534485       0.00236709      -0.00491024
O        1.49749053       3.68832332       7.92688097      -0.00015524      -0.00781184       0.00301707
H        1.76506508       3.54272964       6.99648158       0.00519145      -0.00109356       0.00376148
H        2.15803054       4.27638675       8.34516739      -0.00546807      -0.00686354       0.01119175
O        5.92529404      11.59205675       9.60975709       0.01147791      -0.00683022      -0.00879021
H        6.81861010      11.86962459       9.88824936       0.01229453      -0.00869268      -0.00898858
H        5.93506802      10.62609421       9.61552417       0.00961228      -0.00678739      -0.00730892
O        0.21175289       2.49146854       1.18066914      -0.00574471       0.01542133       0.00699458
H        0.93566496       2.81518697       0.58859684      -0.00384833       0.01519431       0.00614953
H       -0.59577506       2.84561733       0.78670708      -0.00559115       0.01544560       0.00642863
O        6.09632375      10.52479249       5.71234589       0.00411996      -0.00827621      -0.00081381
H        6.65739084      10.06963814       6.35905555       0.00890996      -0.01078241      -0.00636489
H        5.55072052       9.83439445       5.29644391       0.00124902      -0.00622297      -0.00000087
O       11.52140328       4.67744579       8.26961124       0.00376087      -0.00299045      -0.01024443
H       11.46076302       5.33415874       8.97378799       0.00845353       0.00595746      -0.01739849
H       12.46589316       4.39459466       8.21815086       0.00265262      -0.00748461      -0.00822181
O        2.06911877       3.77463228      12.10283130      -0.00235905      -0.00648753       0.01313886
H        2.33655105       4.53896816      12.66900971       0.00317527      -0.00569677       0.01035996
H        2.85969932       3.23120852      11.93146921      -0.00508505      -0.00902978       0.00793319
O        2.00228821       7.59665858       7.42491436       0.00088048       0.00084755      -0.00819247
H        1.79120424       6.93411782       6.74717851       0.00019627      -0.00035429      -0.00525098
H        2.82117200       7.29456671       7.82817023      -0.00280061      -0.00378415      -0.00083321
O        3.75316408      12.11515693      11.99724631       0.00104152      -0.00384293       0.00120768
H        3.99915357      12.98513515      11.61999199      -0.00036103      -0.00320933       0.00113264
H        3.58369697      11.54545839      11.21318929       0.00395638      -0.00428029       0.00032485
O        3.21498130       3.62935804       3.08143469       0.00411794      -0.00223152       0.00108697
H        3.97835926       3.03246755       2.99300150       0.00277542      -0.00406594       0.00078003
H        3.60141000       4.51469607       3.16281961       0.00673152      -0.00315578       0.00242171
O        0.85339410       9.52350302      10.75077604       0.00910193       0.00952326       0.00184280
H        0.33370496      10.03242425      10.10668748       0.01382519       0.01353848       0.00096630
H        0.74357620       8.55093986      10.54350395       0.00152614       0.00911276       0.00016672
O        4.52171697       8.71507348       4.22543149      -0.00226375      -0.00346836      -0.00237597
H        3.58951378       8.84710788       3.98322819      -0.00171854      -0.00276000      -0.00173472
H        4.65848352       7.76267470       4.05071073      -0.00126022      -0.00344116      -0.00587190
O        3.90734201       5.18699193       6.22647083      -0.00902055       0.00533665       0.00634876
H        4.55959214       5.82857245       6.56517254      -0.00618527       0.00544739       0.00214132
H        4.31989111       4.31392571       6.31280071      -0.00785346       0.00556791       0.00411462
O        8.88726714      12.25761787       7.71486931       0.00096330      -0.00774649      -0.00355139
H        8.59806660      11.33039999       7.58708436       0.00026166      -0.00712669      -0.00770795
H        8.62089459      12.49924039       8.61373182       0.01147386      -0.01605400       0.00230898
O       -0.01576550      11.76086532       3.38209897       0.00127676       0.01135588      -0.00267991
H       -0.18504413      10.79243825       3.38278577       0.00316792       0.01424682      -0.00239506
H        0.55159821      12.00546812       4.14666725       0.00103338       0.01182287       0.00100274
O        7.97236645      11.27861806       0.47390418       0.00039454       0.01144361       0.00084443
H        7.75611109      10.45468743      -0.03387705      -0.00422331       0.00851123      -0.00070235
H        8.87884666      11.12552174       0.83065036      -0.00334718       0.01123361      -0.00482925
O       10.57180725       6.32223963      10.90538379       0.00316246       0.00216787       0.00349334
H        9.94447264       5.63043105      11.18632948       0.01044880      -0.00324536      -0.00297503
H       10.57754773       6.97040719      11.62783264      -0.00492471       0.00036548       0.01191053
O        1.59711454       6.04452078       4.97122381      -0.00584522      -0.00026654      -0.00741587
H        1.72779983       6.93433738       4.56791788      -0.00717959       0.00034546      -0.00554032
H        2.47346395       5.69568231       5.24153371      -0.00552431       0.00137788      -0.00482189
O        0.64720447       6.96960139      10.18350686      -0.01207978       0.01163021      -0.00967452
H        1.45536656       6.43683635      10.03935351      -0.01957406       0.00076037       0.00572666
H        0.04752896       6.45788220      10.74200243      -0.03555233       0.01795568      -0.02631860
O        5.72617350       7.04470679       7.34369753       0.00200771      -0.00192623      -0.00235999
H        5.45446624       7.77848656       7.92985060       0.00345367      -0.00230829      -0.00093685
H        6.36216002       6.55328008       7.90155727       0.00067353      -0.00443534      -0.00195809
O       10.33815549       2.33374012       7.47741724      -0.00854830      -0.00496193       0.01058584
H       10.67151539       3.15311665       7.89613997      -0.00458799      -0.00382033       0.00512533
H       10.39329999       1.64499397       8.14474715       0.00071574      -0.00375671       0.01126243
O        5.16224510       6.19950859      10.63398086      -0.00847350      -0.01034422       0.00128317
H        5.39594665       5.87767828      11.52541230      -0.00368553      -0.00415186       0.00218953
H        6.01109671       6.15100800      10.13607522      -0.00881151      -0.01047580      -0.00037804
O        1.19235045       0.14093732       5.62663040       0.00108002       0.00265649       0.00281507
H        1.59017982      -0.63055606       6.06204922       0.00037460       0.00021499       0.00002389
H        0.30095598       0.18874875       6.02055972       0.00181186       0.00353393       0.00499824
O        8.65544026       4.76919322       4.62527393      -0.00033021      -0.00668441       0.00382498
H        9.61318373       4.91153222       4.68447005       0.00003910      -0.00731017       0.00075392
H        8.24898906       5.61913125       4.90805831       0.00074957      -0.00497608       0.00129731
O        3.83630609       2.07891583      10.87521104      -0.00908804      -0.00422274       0.00127816
H        4.53155940       2.39678455      10.29183120      -0.00904439       0.00096494       0.00244454
H        3.08195184       1.82606488      10.28011451      -0.00748484      -0.00846159       0.00200704
O        2.22470518       2.73450396       5.44411088       0.00301203       0.00118799       0.00070155
H        1.76389712       1.88274952       5.34796154       0.00417106       0.00066958       0.00244488
H        2.42862563       3.08202518       4.54673341       0.00347508      -0.00022118      -0.00021917
O        6.54252420       4.31279885       2.95093193       0.00555661      -0.00384423      -0.00228179
H        6.18075517       3.48186401       3.29270292       0.00327523      -0.00309982      -0.00424366
H        7.40249219       4.44767171       3.40316898       0.00457148      -0.00529170       0.00126619
O       10.36997498       6.29025514       1.47044142       0.00983670       0.01725601       0.00698324
H       11.02264626       5.88577513       2.05882298       0.01183683       0.01896785      -0.00480316
H       10.72830139       7.16634939       1.23605384       0.00925084       0.02673072       0.00472077
O       11.48507459      13.07108952      -0.60559955       0.00914180       0.02034295       0.00026745
H       10.77473520      12.92953832      -1.22722251       0.01600856       0.00421673      -0.01300734
H       12.96576235      10.01945926      -0.17879718       0.00292555       0.01413644      -0.00370499
O        2.41544256       6.04258320       1.02210641       0.00508589      -0.00457397       0.00654975
H        3.12723219       5.96499479       1.67755140       0.00253907      -0.00493038       0.00937928
H        1.60377906       5.86256793       1.54120451       0.00237009      -0.00415151       0.00270692
O        7.83616615       7.18593976       1.08804879       0.00299248       0.00638551      -0.00047189
H        7.50437973       7.82458613       1.76128254       0.00217208       0.00418467      -0.00117384
H        8.70600382       6.84764129       1.39231451       0.00692572       0.01062808      -0.00111916
O        9.46154149       8.07882044       9.04173919      -0.01727453      -0.00219724       0.00543638
H       10.02143115       7.42144823       9.49515772      -0.00400157       0.00217321      -0.00321994
H        9.59749645       8.89061713       9.57344415      -0.01196234      -0.00137498       0.00548822
O        6.54934095       5.06638778       0.26331623       0.01275279      -0.00169758      -0.00221418
H        6.44616448       4.56075362       1.09003173       0.01420463      -0.00066353      -0.00207559
H        6.96723900       5.90926520       0.59304526       0.01006916       0.00099475      -0.00245395
O        9.39256499       9.57376972       4.34928731       0.00372604       0.00811318      -0.00873087
H        9.19092560      10.52483815       4.26261559       0.00047111       0.00825281      -0.00488994
H       10.17898172       9.38924123       3.78702483       0.00071920       0.01067894      -0.00914068
O        7.40196759       7.14962691       5.12686408       0.00078486      -0.00468779      -0.00345491
H        8.00079493       7.90440377       5.13575099      -0.00050049      -0.00421343      -0.00280011
H        6.83189891       7.25278609       5.91424741       0.00001149      -0.00485945      -0.00337724
O        7.80225712      13.26657776       2.36271530      -0.00252113       0.00602181      -0.00168265
H        7.68234931      12.62487452       1.63868264      -0.00213150       0.00529363      -0.00157305
H        7.89688985      12.70240020       3.17400637      -0.00310344       0.00637068      -0.00115005
O        3.81662727      11.99545411       3.27550208      -0.00337275      -0.00124761       0.00083795
H        3.83412501      11.54162204       4.12386473      -0.00615822      -0.00246894       0.00046691
H        4.35777844      11.43926508       2.65681575      -0.00539990      -0.00380394       0.00038059
O        2.77289761       5.23597237       9.77445881      -0.01853010      -0.00513833       0.01329160
H        3.67509098       5.54939165      10.01614583      -0.01704868      -0.00633508       0.00979343
H        2.49229561       4.68375320      10.53177392      -0.01627493      -0.00413098       0.01486868
O       12.36327286      11.63449072       9.18173193      -0.00460317      -0.00623539       0.00675964
H       12.93477662      12.40545992       9.37102791       0.00074603      -0.00825226      -0.00034976
H       12.17228831      11.66819770       8.23529624      -0.00835834      -0.01119354       0.00797036
O       11.20925976      11.84558491       6.49153038       0.00355494      -0.00335006       0.00694492
H       10.36951713      12.07947471       6.96649421      -0.00038123      -0.00543171       0.00505949
H       10.93141026      11.62057424       5.59584279       0.00642495      -0.00678835       0.00769895
O        8.46721320      12.36759354      10.52501928       0.01381269      -0.00887144      -0.00723300
H        9.04671218      11.57059591      10.47036399       0.00963368      -0.01482773       0.00735605
H        8.18570145      12.30199373      11.46074542       0.00763561       0.00570390      -0.00946069
O        7.48211011       6.17547966       9.24745585      -0.00513849      -0.00496386       0.00417351
H        8.08466170       6.95072936       9.27476563      -0.00790280      -0.00180742       0.00463933
H        7.94457596       5.44583847       9.70282989       0.00035758      -0.00272834       0.00246645
O        8.45181453       9.60984271       7.00863027       0.00694364      -0.00772125      -0.01047136
H        8.84095244       8.94906450       7.61370166       0.00750359      -0.00569265      -0.00650510
H        8.97382412       9.56322765       6.18799691       0.00812907      -0.00630388      -0.00897324
O        1.61868770       8.60120773       3.97719265      -0.00737411       0.00105545      -0.00439656
H        1.38008638       9.10816077       4.77859905      -0.00491094       0.00169431      -0.00305051
H        0.85134928       8.71216721       3.37690773      -0.00369236       0.00477811      -0.00385596
O        5.14424603       8.71490051       9.57258740       0.00621969      -0.00770421       0.00189677
H        4.35090517       9.28533332       9.67821356       0.00789613      -0.00474638       0.00032099
H        4.99794952       7.92496297      10.13274410       0.00169952      -0.00767589       0.00055104
