199
Lattice="13.928747604524773 0.0 0.0 0.0 13.928747604524773 0.0 0.0 0.0 13.928747604524773" Properties=species:S:1:pos:R:3:forces:R:3 energy=-1190070.75 stress="0.0004968778812326491 0.00041861998033709824 -4.0614950194139965e-05 0.00041861998033709824 0.00040384818566963077 0.00047575221105944365 -4.0614950194139965e-05 0.00047575221105944365 -3.5929540445067687e-06" pbc="T T T"
Md      13.45297710      12.67955045       0.70580933       0.00333187      -0.00888973      -0.00858805
O        7.93327520      13.43025018      10.02362981       0.00091690       0.00178424      -0.01065461
H        8.76187232      13.81646075       9.70222848       0.00678056      -0.00349343      -0.00191259
O        7.93843078      13.86206063      11.40807897      -0.01485872       0.00626636      -0.01114412
H        7.27737212      14.56764440      11.38303283      -0.00860611       0.01164034      -0.02253924
O        7.91966089      13.14606716       5.34388567       0.01124366       0.01381662      -0.00628122
H        8.11248379      14.06323169       5.55890943       0.00994186       0.01301281      -0.00050016
O        6.86074010       5.77970437       9.63397418       0.00110722      -0.00378634       0.00431529
O        5.79871222       3.81363460       9.74835667       0.00435712      -0.00471210       0.00657150
C        4.72214843       5.75863930      10.65351401       0.00072283      -0.00612336       0.00348118
C        5.82228869       5.01215076       9.96514723       0.00255442      -0.00646627       0.00476485
H        4.63643836       5.37519362      11.67230390       0.00028263      -0.00479345       0.00407059
H        4.91503811       6.82883822      10.67404972      -0.00076888      -0.00594544       0.00240196
H        3.77928154       5.55516888      10.14908697       0.00146084      -0.00819176       0.00290421
H        7.56550648       5.20279408       9.22093454       0.00257744      -0.00272986       0.00471308
O       12.95079766      12.33357231       8.69798428       0.01135111       0.00834374       0.01670177
O       13.44746385      10.20048698       8.20968612       0.01381588       0.01146394       0.00796552
C       11.23360650      10.70117203       8.96815571       0.01384908       0.00502238       0.01107061
C       12.64262247      11.02243646       8.57510251       0.01389480       0.00778782       0.01116660
H       10.57460635      11.56059136       8.88816398       0.01087382       0.00209749       0.00432474
H       10.87286836       9.88717754       8.34641048       0.01779100      -0.00035386       0.01589006
H       11.24316582      10.33818844       9.99975372       0.01299581       0.01189181       0.01350281
H       13.86928559      12.46778455       8.39499614       0.01078719       0.01144357       0.01460528
O        7.98133223       7.51366404       5.74730808      -0.00502591       0.00243193      -0.00051826
O        8.34345148       7.64226999       3.53500227       0.00388566       0.00082123       0.00065053
C        8.00797630       9.67031763       4.77932935      -0.00558436       0.00154507      -0.00238159
C        8.14659686       8.19033699       4.59899612      -0.00162333       0.00194722      -0.00019145
H        6.95557053       9.91726311       4.62782584      -0.00685720      -0.00213527       0.00067886
H        8.30190614      10.00227421       5.77184003      -0.00332142       0.00360571      -0.00382860
H        8.58018377      10.20143390       4.02300346      -0.00937539       0.00204028      -0.00500916
H        8.03293257       6.54404805       5.56861769      -0.00133500       0.00230482       0.00048468
O        3.67906290       3.28642729       4.31643534      -0.00659394      -0.01770197       0.00465134
O        3.20568005       2.30198793       2.37016589      -0.01590356      -0.04163644       0.01953259
C        5.50800016       2.74731897       2.93065862      -0.01580322      -0.01001654      -0.00900823
C        4.03040785       2.75479903       3.14091482      -0.01420170      -0.02498947       0.00621027
H        5.97355034       3.62488721       3.37880272      -0.01994505      -0.00555027      -0.01349597
H        5.91771222       1.86403820       3.42952833      -0.00141981      -0.00585309      -0.01357563
H        5.73607425       2.69387225       1.87058219      -0.02436144      -0.00690643      -0.01115793
H        2.71397325       3.21454783       4.44417473      -0.00479901      -0.02608594       0.01789393
O        2.87282816      14.87815385       6.47504048       0.00576228      -0.00759491       0.00780166
O        1.60929798      13.42495693       7.62268916      -0.00606793       0.00177616       0.00574416
C        4.02220475      13.32403819       7.80157273      -0.00755954      -0.01165342       0.01440263
C        2.70691081      13.83916600       7.32086955      -0.00336003      -0.00484878       0.00925466
H        4.69081494      13.16445338       6.95608861      -0.00519960      -0.00876438       0.01585236
H        4.48764989      14.08012047       8.43860228      -0.00959924      -0.01690328       0.02205032
H        3.89167708      12.40176568       8.35771247      -0.01413354      -0.01409520       0.00823261
H        2.01333392      15.29926772       6.27124296       0.00788468      -0.00517908       0.00341989
O       10.87839930      10.98152295       5.64919193      -0.01261311      -0.00490481      -0.00300989
O       12.39989221      10.06174794       4.28968081      -0.00799748      -0.01104665       0.00691241
C       11.35259840       8.69593034       5.95675576      -0.00381990      -0.00034904       0.01783913
C       11.59852918       9.96152367       5.21534053      -0.00841153      -0.00571822       0.00693145
H       12.11660023       8.61021626       6.73129718       0.00243938       0.00418343       0.01226614
H       10.36223973       8.68701859       6.40420963      -0.00040773       0.00275303       0.02515619
H       11.47693185       7.84721414       5.29008828      -0.00882939      -0.00495379       0.02256568
H       10.84790704      11.68840025       4.95279895      -0.00965653      -0.00773655      -0.00716490
O       11.60082282       6.98587188      13.29524338       0.00235388      -0.00745815      -0.00694972
O       11.95570878       9.02603364      12.44146718      -0.01329044      -0.00291011      -0.00109251
C       12.66945252       7.08289452      11.19282445       0.00501132       0.00709358      -0.00492501
C       12.05222337       7.82498258      12.33066784      -0.00318275       0.00000572      -0.00369416
H       13.60920499       6.63210849      11.52028181       0.00435930       0.00712958      -0.00286902
H       12.00608316       6.27957665      10.87757007       0.00884475       0.00716448      -0.01312169
H       12.85510802       7.76031809      10.36455583       0.00749180       0.01206920      -0.00027345
H       11.30852598       7.53591992      14.03769317      -0.00349835      -0.01277566      -0.00522411
O        0.12150789       3.46887576       2.64972285      -0.00595874      -0.00226603       0.01475203
O       -1.62652918       4.86076741       2.76414244      -0.01995409      -0.01874245      -0.00530767
C        0.18503939       5.41155814       1.28335775      -0.01324496      -0.00647965       0.00832915
C       -0.54235230       4.58873631       2.29264687      -0.01388866      -0.01034948       0.00502652
H        1.17324591       5.01784022       1.06705725      -0.01263925      -0.00459871       0.00767548
H       -0.40911859       5.44625944       0.36844171      -0.01285006      -0.00219029       0.00824124
H        0.25523455       6.43295108       1.65971522      -0.01388980      -0.00801361       0.01323287
H       -0.42009850       3.01755554       3.31620951      -0.00655413      -0.00560853       0.01213455
O        8.46861030       2.63314729       5.85842544       0.00050956       0.00453989       0.00192361
O        8.23135768       4.81263292       5.45584610       0.00292566       0.00497919       0.00148022
C        6.39338495       3.59543895       6.43890914      -0.00119436       0.00540559      -0.00572881
C        7.76127706       3.77190444       5.87476667       0.00085014       0.00448835      -0.00091831
H        5.86630789       2.80454699       5.90399826       0.00563945      -0.00537060       0.00388791
H        6.47386978       3.29152423       7.48432788      -0.00395088       0.02096964      -0.00097010
H        5.83173786       4.52377535       6.38046907      -0.00567091       0.00155434      -0.02112065
H        9.38991638       2.87152852       5.63578635       0.00162983       0.00461480       0.00549755
O        4.53957816       8.87433441       8.23570531       0.01277041      -0.02087370      -0.01058078
O        3.68842766       6.86994162       7.70437396      -0.00085092      -0.01494348      -0.01158684
C        2.22479599       8.54828083       8.62167249       0.01325196      -0.00933000      -0.00164247
C        3.51778200       7.98752128       8.12758108       0.00782833      -0.01579505      -0.00868815
H        2.06970834       8.21590681       9.65157695       0.01568409      -0.01071624      -0.00110549
H        2.21718761       9.63522224       8.61341004       0.01829826      -0.00896165       0.00112250
H        1.40894008       8.16896335       8.01108968       0.00787336      -0.00382783       0.00151326
H        5.32016582       8.43036943       7.87174357       0.01038021      -0.02571574      -0.01453257
O       11.01505469      13.22659793      10.81238557      -0.00232315       0.01224889      -0.00479579
O       12.09109331      12.61692223      12.66100867       0.00593448       0.00493190      -0.01148235
C        9.91975795      11.67002136      12.20532444      -0.00228089       0.01732844       0.00127245
C       11.09986306      12.53327931      11.93984464       0.00039551       0.01087224      -0.00583190
H        9.22590441      11.67195458      11.37033575      -0.00569472       0.01836721       0.00391832
H       10.27873755      10.65903916      12.40724427      -0.00671589       0.01586553       0.00213257
H        9.39852076      12.03699954      13.09119399       0.00262696       0.02163203       0.00232819
H       11.87793970      13.62036169      10.60238969      -0.00043094       0.00341654      -0.01287785
O        5.07432445       8.86909330       3.22857792      -0.00503901       0.00051367      -0.01006740
O        3.59850364       7.43433070       2.35392673       0.00025034      -0.00147176      -0.01415646
C        5.08424898       6.67237486       4.09821679      -0.00256601      -0.00025231      -0.01203483
C        4.48673341       7.64828649       3.14526156      -0.00284451      -0.00028908      -0.01264626
H        6.13677348       6.52338700       3.84832840      -0.00186583       0.00150373      -0.01063297
H        5.03087862       7.06788255       5.11341705      -0.00471969      -0.00117426      -0.01164883
H        4.54675450       5.73098037       4.04768377      -0.00136241      -0.00103979      -0.01365289
H        4.58284536       9.43491123       2.61784479      -0.00382680      -0.00003105      -0.01171067
O       10.30695683       2.68194292       8.78774015       0.00768646       0.00315014      -0.00140697
O        8.76026979       4.27237556       8.56974026       0.00483945       0.00148192       0.00270531
C        8.95807133       3.15635172      10.68058370       0.00873898      -0.00281389       0.00045770
C        9.31179371       3.42477201       9.25426088       0.00724205       0.00039271       0.00091606
H        9.35348832       2.20548527      11.02778387       0.00850825      -0.00410666      -0.00257740
H        9.38353513       3.95981011      11.28801804       0.01009111      -0.00488347       0.00227208
H        7.87505212       3.20059914      10.79186163       0.00879890      -0.00251972       0.00184699
H       10.53540027       2.98524099       7.86110750       0.00584506       0.00398114      -0.00176924
O        3.76155777      10.11263107       0.14752598      -0.00746077       0.01887250      -0.00903249
O        5.08681800      11.72439132       0.95936863       0.00427498       0.00524686      -0.00202310
C        6.10201432       9.83475679      -0.09050752      -0.00986567       0.00788417      -0.01929136
C        4.95178507      10.65653494       0.36793501      -0.00391622       0.01103544      -0.00915058
H        6.28869366       9.06584976       0.66534131      -0.00857317       0.00438181      -0.02294463
H        5.89028289       9.32164166      -1.02479560      -0.01780634       0.01198013      -0.01973787
H        6.98672256      10.45821873      -0.17646566      -0.00721087       0.00385088      -0.02187929
H        3.05370646      10.70267559       0.49340086      -0.00397411       0.02031547      -0.00241205
O        1.83824745       2.66378415      14.08390971      -0.00906059      -0.00238168       0.01882136
O        0.91206539       0.67375052      14.43274936      -0.00200696      -0.00934797      -0.00923944
C       -0.29485605       2.29464348      13.14358318      -0.00202495      -0.00175527       0.00110914
C        0.86986385       1.80412575      13.93484177      -0.00439222      -0.00461125       0.00277552
H       -0.07213398       3.22895563      12.63469431       0.00147185      -0.00406599      -0.00167862
H       -0.60316288       1.53142106      12.42862378      -0.00598453      -0.00315702       0.00419106
H       -1.12682580       2.44765279      13.83691273      -0.00138718       0.00459947       0.00072321
H        2.47184667       2.37499187      14.79436009      -0.01260090      -0.00942600       0.01965842
O        8.32225582       8.23993613      11.55817193       0.00470155       0.00273895       0.00465429
O        9.70904635       7.23210329      10.11622580       0.00127691       0.00427681       0.00043744
C        8.04613192       8.76603815       9.27470798      -0.00169581       0.00225636       0.00660414
C        8.79232564       7.99377468      10.31057426       0.00226533       0.00151020       0.00353676
H        6.99598091       8.48005066       9.32818765      -0.00542152       0.01710495       0.01872792
H        8.10349243       9.83633225       9.47690289       0.01340371       0.00337631      -0.00147803
H        8.43826529       8.54202303       8.28695642      -0.01417249      -0.00764690       0.00373349
H        8.83243618       7.67148760      12.15282637       0.01031750       0.00407797       0.00418088
O        1.10100455       2.20604215       9.94250440      -0.00432730      -0.00140804      -0.00360421
O        1.58091424       4.10259663      11.03683684      -0.00909436      -0.00131840      -0.00175291
C        3.22846383       2.34337192      10.96539648      -0.00855356      -0.00057176       0.00536984
C        1.92016294       2.99614647      10.68703235      -0.00779162      -0.00088096      -0.00048295
H        3.13146086       1.26041956      11.02030611      -0.00698891      -0.00097324      -0.00096058
H        3.91242836       2.59959276      10.15116891      -0.00264341       0.00503532       0.01199389
H        3.66002594       2.75138733      11.87542903      -0.01621538      -0.00479414       0.01085263
H        0.30793931       2.73051046       9.75641702      -0.00417626      -0.00191063      -0.00628278
O        3.71177417      11.11636749       5.38563389       0.00100815      -0.00399974       0.00053303
O        3.15542262       8.94643405       5.48193492      -0.00327203      -0.00330889      -0.00624911
C        1.41564913      10.59332128       5.60981151      -0.00027436      -0.00036824      -0.00209700
C        2.81717711      10.10527560       5.50004793      -0.00102797      -0.00255322      -0.00304116
H        1.36129129      11.59221781       6.03370237       0.00144089       0.00050636      -0.00378902
H        0.98260067      10.60608346       4.60802538      -0.00194283      -0.00200448      -0.00149712
H        0.83153303       9.89535803       6.20096365      -0.00032924       0.00169873       0.00034060
H        4.58563812      10.70970787       5.28507367       0.00013292      -0.00548851      -0.00097077
O        5.70084200       6.50597667       0.60564840       0.01210690       0.01197461       0.00661929
O        5.77802508       4.34537272       0.00338500      -0.00749689       0.00915599       0.01429266
C        7.75265300       5.40465938       0.90574188       0.00783390       0.00000797      -0.00843596
C        6.33236298       5.32560629       0.44349633       0.00311196       0.00766981       0.00543162
H        8.25401896       6.26350750       0.45958074       0.00778084      -0.00179255      -0.01192595
H        7.77802209       5.58423321       1.98306359       0.01927304      -0.00130516      -0.00854757
H        8.27721447       4.48597173       0.66431705       0.00162688      -0.00207850      -0.01420359
H        4.75557558       6.37737871       0.43075997       0.00886160       0.01709953       0.02021539
O        2.99727823       3.62214353       7.52101583       0.00316426      -0.00003314       0.00121009
O        1.35152186       3.18235164       6.06529720       0.01093872      -0.00388727      -0.00628394
C        1.00828241       4.86211153       7.74920844      -0.00401273      -0.01002008      -0.00427529
C        1.77567257       3.81438516       7.02904021       0.00449923      -0.00434336      -0.00385097
H        1.36329467       4.99510820       8.76776579      -0.00195369      -0.00214522      -0.00616527
H        1.13045389       5.81322610       7.22407316      -0.01859506      -0.01049680      -0.00846282
H       -0.04998566       4.61443392       7.72267769      -0.00115177      -0.02312419       0.00100190
H        3.42462634       2.91041501       7.01291763       0.00914219       0.00361836       0.00130266
O       10.29749794      12.40641064       3.52343004       0.01952660       0.01661184       0.00539923
O       11.83936459      13.15409201       2.10783462       0.01013869       0.01194119      -0.00720504
C       11.02749594      10.94483720       1.76612455       0.00933526       0.01127988       0.00441444
C       11.03588901      12.24438322       2.54516310       0.01297659       0.01369667       0.00091290
H       10.46422102      10.16845194       2.28071115      -0.00409944       0.01763710      -0.00114387
H       10.58863909      11.11077214       0.78203486       0.02527642       0.01234119      -0.00250962
H       12.04416128      10.56265837       1.61780813       0.00767523       0.00099166       0.02145361
H        8.59067196      12.91252685       4.68997990       0.01509808       0.01740544      -0.00356238
O        3.36774965      12.72102418       2.51210510       0.00610191       0.00194934       0.00028157
O        1.74194251      11.82047975       1.27451899       0.00610257       0.00427216      -0.00162405
C        1.16158741      13.10029416       3.22437982       0.00615665       0.00673586      -0.00327510
C        2.12506830      12.49131596       2.26091216       0.00640151       0.00447050      -0.00106752
H        0.90167166      14.09763524       2.85904215       0.00964600       0.00709161      -0.00443579
H        0.25545541      12.50030857       3.33110085       0.00404754       0.00962113      -0.00531946
H        1.62775089      13.22373312       4.19994249       0.00463352       0.00587363      -0.00250491
H        3.99980043      12.32765456       1.80267230       0.00740910       0.00280765      -0.00013453
O       11.72915560       5.43799356       5.29255475      -0.00394473       0.00040150      -0.00721312
O       11.05155228       3.59744444       6.37014987       0.00112267       0.00122365      -0.00282605
C       11.37017158       5.65314939       7.58993285       0.00687192       0.00150332      -0.00511110
C       11.36567768       4.78860721       6.37562502       0.00106961       0.00119627      -0.00490312
H       12.13333473       6.42330388       7.50808480       0.01015499      -0.00190479      -0.00675523
H       10.39417177       6.13539764       7.67507479       0.00910664       0.00598685      -0.00389429
H       11.50851443       5.06005859       8.48985140       0.00573998       0.00115921      -0.00525099
H       11.72859148       4.89452958       4.47415255      -0.00915310      -0.00042874      -0.00689772
O        0.15353186       7.98524283       3.78831406      -0.00913730      -0.00476050       0.00643510
O        0.24268570       7.58084999       5.99529163      -0.00114170      -0.00525883       0.00552988
C        1.52876243       6.20402850       4.52702005       0.00118089       0.00160426       0.00114585
C        0.59238684       7.32092702       4.86152966      -0.00324064      -0.00278991       0.00539160
H        1.91245879       6.27834168       3.51483761       0.00292545       0.00870031       0.00241572
H        2.35208167       6.22309277       5.24086890      -0.00078835      -0.00087833       0.00346112
H        0.99422996       5.26095589       4.66246761       0.00376788      -0.00104298      -0.00717410
H       -0.48542375       8.69619041       4.06260284      -0.01113077      -0.00657659       0.00833392
