190
Lattice="14.20884274113941 0.0 0.0 0.0 14.20884274113941 0.0 0.0 0.0 14.20884274113941" Properties=species:S:1:pos:R:3:forces:R:3 energy=-1136562.875 stress="-0.001234726165421307 0.0005801963561680168 -0.00033481657737866044 0.0005801963561680168 -0.0030875031370669603 0.0005180522857699543 -0.00033481657737866044 0.0005180522857699543 -0.005613470450043678" pbc="T T T"
Md      14.52487046      14.28895652       0.72885696       0.05018792      -0.04868538       0.02022146
O        1.80012723      14.30775766       5.03010244      -0.02219504       0.01827215      -0.01003790
N        0.88330213      14.26851186       2.83358337       0.02548301       0.07050051       0.02841246
C        1.35592236      14.28512063       3.93938357       0.01345148       0.04121973       0.03885017
O        8.91309625      12.75398134      13.36911605      -0.02671838       0.06832361       0.03908832
N        7.50091716      14.70159136      13.41765482      -0.03161573       0.06199884       0.01038267
C        8.20763803      13.73499957      13.40663165      -0.03302240       0.06750125       0.02352806
O       10.66607633      13.64315180       1.94305037       0.01044905       0.01056030      -0.05547386
N       12.38423855      13.77741802       0.28484949       0.04438311       0.02713785      -0.01695991
C       11.52144468      13.70483955       1.12721021       0.02343810       0.01885612      -0.03642883
C       10.11895624       2.56065406       3.24027300       0.00257888      -0.00519688      -0.00705919
C       11.28716370       2.64831708       2.48081579      -0.00100090       0.00224192      -0.01052698
C       10.14630381       3.07163437       4.54025485       0.00571826      -0.01342808      -0.00421241
C        8.88892418       1.90215280       2.69163329       0.00145724      -0.00231591      -0.00704040
C       12.44137453       3.21925635       3.00263038      -0.00057305       0.00089789      -0.01143438
C       11.29892280       3.64504890       5.06437622       0.00620393      -0.01459233      -0.00490940
C       12.45390624       3.72401765       4.29687399       0.00294890      -0.00761273      -0.00870076
H       11.28309764       2.25458130       1.47120583      -0.00377587       0.00808476      -0.01217009
H        9.24778686       3.01902710       5.14750400       0.00810402      -0.01828696      -0.00161470
H        7.98186248       2.39833936       3.03673286       0.00370301       0.00589374      -0.01374561
H        8.87686945       1.88081601       1.60259243       0.00478427      -0.00845027      -0.00656384
H        8.84598730       0.86173712       3.01831402      -0.00697019       0.00030571      -0.00036801
H       13.34354749       3.26506058       2.40239914      -0.00317341       0.00635970      -0.01345714
H       11.29987377       4.03412495       6.07559147       0.00925249      -0.02125400      -0.00249372
H       13.35162794       4.17089099       4.70500701       0.00383540      -0.00980888      -0.00854242
C        3.98915402       2.61266738      13.62402341      -0.01186393      -0.02073602       0.01196965
C        5.17378904       3.26568364      13.95995098      -0.00392696      -0.03769022       0.01548127
C        2.82245621       3.36062531      13.47033318      -0.00260180      -0.00680307       0.01224549
C        3.96794273       1.14682788      13.33364604      -0.02745441      -0.01853222       0.00792168
C        5.18879600       4.65283048      14.06209466       0.01004393      -0.03904749       0.02852975
C        2.83830514       4.73832758      13.56944644       0.01171042      -0.00792132       0.02553837
C        4.03858640       5.38495592      13.82618754       0.01788065      -0.02366233       0.03743472
H        6.08836480       2.68731001      14.05353613      -0.01003309      -0.04842606       0.01066218
H        1.89956854       2.84928635      13.20300276      -0.00569645       0.00684337       0.00005685
H        3.31213045       0.94414706      12.48347590       0.01993585      -0.00605232      -0.02812824
H        4.97313022       0.77361720      13.12103846      -0.02691337      -0.03824367       0.05923980
H        3.58779405       0.57942465      14.18918768      -0.08584990      -0.01413276      -0.01673265
H        6.12068516       5.17606943      14.24044176       0.01465985      -0.05103011       0.03753329
H        1.93669805       5.31241829      13.39487500       0.01854296       0.00409516       0.02944690
H        4.07430681       6.46275707      13.79305521       0.02913017      -0.02345809       0.05390314
C        6.58151713       5.69359170       3.55788117       0.00208651      -0.01712996      -0.00680737
C        6.17802082       4.55170734       4.25435013      -0.01385563      -0.02272323      -0.02607124
C        5.80068605       6.83846804       3.67394767       0.01282666      -0.01149750       0.00478761
C        7.79880809       5.67779619       2.68462724       0.00707218      -0.01809112       0.00112100
C        5.00510765       4.54291930       4.99032577      -0.01834498      -0.02116363      -0.03436268
C        4.62162756       6.83568019       4.41188625       0.00911570      -0.00975917      -0.00147540
C        4.21198511       5.68406703       5.06222682      -0.00773473      -0.01504546      -0.02269267
H        6.80154156       3.66707746       4.22672073      -0.02369806      -0.02883019      -0.03613834
H        6.11279490       7.74777256       3.17155534       0.02364724      -0.00852072       0.01796732
H        8.20708923       6.67966128       2.56159802      -0.00111473      -0.01659903      -0.01009041
H        8.57819260       5.03003405       3.08560149       0.01025468      -0.00602958       0.01365507
H        7.54775127       5.29994209       1.69036933       0.01611315      -0.03471891       0.00575843
H        4.72183745       3.65115084       5.53530844      -0.03120373      -0.02613984      -0.05033765
H        4.02636296       7.73917350       4.46555511       0.01676140      -0.00575680       0.00674275
H        3.29753211       5.67909412       5.64273597      -0.01376177      -0.01519344      -0.03277227
C       11.86315502       3.40409681      10.94998659      -0.00041980      -0.00148775       0.01310557
C       12.27073956       2.12445855      10.57002246      -0.00239889       0.00107794       0.00410556
C       10.54306463       3.58112175      11.36426138       0.00494689      -0.00607854       0.02988976
C       12.82138538       4.56047203      10.89507323      -0.00310683      -0.00022429       0.00703340
C       11.38091919       1.05746284      10.59211248       0.00174008      -0.00144930       0.01324474
C        9.65154287       2.51512637      11.39464480       0.00899462      -0.00864960       0.03961381
C       10.06767633       1.24922868      11.00493821       0.00759032      -0.00658779       0.03254974
H       13.30006882       1.96413150      10.26478916      -0.00704371       0.00521301      -0.01151483
H       10.20874814       4.57076141      11.65836334       0.00656765      -0.00830287       0.03797748
H       12.48330548       5.38595872      11.52135463      -0.00497845       0.00140829       0.00327791
H       13.81792110       4.26522019      11.22754950      -0.00325900       0.00266664       0.00895305
H       12.92447487       4.94255441       9.87445693      -0.00244099      -0.00479067       0.00565919
H       11.71537545       0.06698891      10.30917184       0.00067720       0.00113368       0.00376531
H        8.63305505       2.65195058      11.73601258       0.01364435      -0.01277715       0.05327918
H        9.37686198       0.41922439      11.05650068       0.01109225      -0.00863558       0.04028702
C        9.91678956       7.67043403       6.42995079       0.01605717       0.01538156      -0.00479613
C       10.81886749       7.30726817       7.43112907       0.01239099       0.01019830      -0.00378220
C        9.76156870       9.02661990       6.14388286       0.01611120       0.01644741       0.00252941
C        9.10511275       6.64969434       5.69861007       0.02198303       0.01814404      -0.01464672
C       11.52494007       8.26992125       8.14082678       0.00982115       0.00616334       0.00338415
C       10.46433109       9.99344849       6.84970776       0.01428137       0.01252656       0.00931073
C       11.34640041       9.61922747       7.85592794       0.01094464       0.00726944       0.00964028
H       10.96065512       6.25706184       7.65925792       0.01166115       0.00916099      -0.00918995
H        9.08635810       9.32184361       5.35007590       0.01846962       0.02072933       0.00255731
H        8.75579323       7.04455724       4.74779204       0.01678843       0.02661914      -0.00909215
H        9.67290093       5.74046328       5.50476880       0.02930196       0.02540021      -0.02668485
H        8.22272792       6.36520356       6.27702096       0.02619252       0.00391078      -0.01575802
H       12.21546230       7.96771377       8.91892551       0.00699585       0.00213234       0.00399885
H       10.32473156      11.03952802       6.60665107       0.01567383       0.01361908       0.01437156
H       11.89516678      10.37097787       8.40781840       0.00897173       0.00455427       0.01478830
C        3.21229603       8.51774368       1.16906304      -0.03940250       0.01711984      -0.01868335
C        3.24690828       7.23184514       1.69192571      -0.04331149       0.02764666       0.01262063
C        1.96106096       9.06255823       0.86890151      -0.02270885       0.01651859      -0.03054178
C        4.48811311       9.25374226       0.88615783      -0.02130315      -0.01558453      -0.01219492
C        2.09371811       6.48712088       1.88772550      -0.04634556       0.02749540       0.03480177
C        0.79961707       8.32228751       1.05229868      -0.01711993       0.03635049      -0.01896350
C        0.86124342       7.02462184       1.55637769      -0.03737600       0.04923374       0.01439847
H        4.20292886       6.77816462       1.89473645      -0.04391240       0.00442135       0.03901228
H        1.90282818      10.07408656       0.48159741      -0.02491591      -0.00261553      -0.03609914
H        4.47184025      10.25533257       1.31062698      -0.00629111      -0.02173787      -0.00589444
H        5.34650211       8.72888256       1.30463847      -0.01710927      -0.03017275      -0.01798017
H        4.65876235       9.36550966      -0.18713114      -0.02492524      -0.01124361      -0.00979555
H        2.18347474       5.46875475       2.24492248      -0.05829864       0.02484636       0.06383616
H       -0.15973501       8.75255814       0.79485948      -0.01600705       0.01630764      -0.02062460
H       -0.03983774       6.43443225       1.66841524      -0.04675552       0.04580748       0.03976668
C        7.04894642      10.62107539      11.19485271       0.00650075       0.00320968       0.02054630
C        7.20804333      11.99219289      10.99798157       0.00056121       0.00445378       0.02560484
C        5.78075878      10.14210445      11.51927190       0.00919802      -0.00374347       0.01806654
C        8.23968178       9.71270027      11.13436199       0.00948158       0.00848839       0.01564047
C        6.14623275      12.86869179      11.17032115      -0.00384196      -0.00135913       0.02471330
C        4.70911688      11.01350632      11.67997860       0.00455505      -0.00981838       0.01723845
C        4.89270884      12.37919236      11.51913836      -0.00192606      -0.00913000       0.02010952
H        8.18872400      12.37407139      10.74635475      -0.00097650       0.01041380       0.02954942
H        5.63260378       9.07456552      11.64877374       0.01503790      -0.00426663       0.01752745
H        7.95701197       8.68021248      10.93389458       0.01069075       0.00310595       0.04591018
H        8.95020676      10.03334808      10.37181000      -0.00873400      -0.00705068      -0.00680348
H        8.76365627       9.73850337      12.09296537       0.03027013       0.03267974       0.00257465
H        6.30795133      13.93203802      11.05665448      -0.00867663      -0.00026685       0.03014896
H        3.72638072      10.62423115      11.91973805       0.00659890      -0.01484105       0.01682787
H        4.06019713      13.05923332      11.64493894      -0.00544519      -0.01409739       0.02104813
C        4.75004306      12.35624155       2.54561900       0.01339141       0.01597968      -0.02143365
C        5.50764503      11.91403252       3.62480206       0.00134876       0.01522391      -0.01370767
C        3.38198963      12.07453246       2.54780949       0.01192459       0.02418607      -0.03091070
C        5.41760070      13.05219724       1.40673953       0.02659881       0.01161033      -0.01521683
C        4.92811990      11.19073760       4.65104522      -0.01113761       0.02283402      -0.01538996
C        2.79661120      11.33768475       3.56900038      -0.00137874       0.03195640      -0.03352131
C        3.57393397      10.88615550       4.62527910      -0.01237319       0.03104356      -0.02542511
H        6.56775115      12.13436512       3.65539612       0.00189620       0.01017136      -0.00637455
H        2.76451424      12.42680153       1.72773048       0.02100704       0.02480308      -0.03846313
H        4.74926228      13.75460848       0.92786346       0.04090908       0.02589228      -0.01259869
H        6.30503626      13.60091095       1.71568550       0.03383306      -0.00547042      -0.00848717
H        5.73650719      12.34685519       0.63399914       0.01694860       0.01065846      -0.01725860
H        5.53498634      10.88378304       5.48320188      -0.02040683       0.02142040      -0.00903197
H        1.73587467      11.11950293       3.54794457      -0.00384569       0.04303896      -0.04535612
H        3.13211612      10.32278055       5.43425699      -0.02250075       0.03668053      -0.02753196
C        5.34195821       9.37521248       7.27431819      -0.00031001       0.01864497       0.00322603
C        4.00440577       8.99919200       7.39692796       0.00130254       0.01238756      -0.00356616
C        5.73484006      10.59538344       7.82424143      -0.00916491       0.02086924       0.00407912
C        6.33403418       8.57566260       6.49354870       0.00545430       0.02129343       0.00875783
C        3.08830364       9.81792860       8.04892735      -0.00655743       0.00886851      -0.01124900
C        4.81340318      11.44374044       8.41273622      -0.01602137       0.01587772       0.00097430
C        3.48690750      11.05254724       8.54005191      -0.01520635       0.01019810      -0.00832193
H        3.67430747       8.06303380       6.96180412       0.00921554       0.00970955      -0.00281977
H        6.77611977      10.89148517       7.75014446      -0.01100112       0.02721590       0.00876390
H        7.31788644       8.62263455       6.95529962       0.00234750       0.01881443       0.01520589
H        6.04703115       7.53438068       6.40175827       0.00459382       0.02210072       0.00370468
H        6.42860382       8.97166528       5.47869759       0.01230772       0.02569135       0.01132515
H        2.05636056       9.50244454       8.14796536      -0.00552864       0.00473594      -0.01839963
H        5.13846217      12.39860748       8.79561065      -0.02249244       0.01748455       0.00418569
H        2.77473646      11.70386726       9.02943800      -0.02156711       0.00774390      -0.01468446
C       10.82134957       9.47240241       2.79514275       0.00049563      -0.00386765      -0.00130475
C       10.14581281       8.61125109       1.93063697       0.00152183      -0.00521946      -0.00018996
C       10.25638334      10.72258496       3.05025824       0.00331447      -0.00113496      -0.00879146
C       12.13805557       9.09033334       3.40562459      -0.00351310      -0.00545338       0.00503972
C        8.94389908       8.98959192       1.33930410       0.00504143      -0.00446390      -0.00622280
C        9.06270726      11.10532396       2.45686105       0.00683033      -0.00057653      -0.01452275
C        8.39626674      10.23811758       1.60113697       0.00776407      -0.00212236      -0.01337327
H       10.56929048       7.63591378       1.71554170       0.00013296      -0.00661385       0.00474565
H       10.76883190      11.41441109       3.70812885       0.00410631       0.00195332      -0.01293700
H       12.23720080       9.49219332       4.41397324      -0.01186398      -0.01362263       0.00870126
H       12.25642059       8.00787304       3.45676086      -0.00180133      -0.00521922      -0.00269771
H       12.97075916       9.48115378       2.81579545       0.00008829       0.00074992       0.01475725
H        8.44001047       8.31018734       0.66135993       0.00549108      -0.00616225      -0.00452861
H        8.67649342      12.09922047       2.63197323       0.00894179       0.00095856      -0.02065972
H        7.47752142      10.54853614       1.12178779       0.01082471      -0.00117766      -0.01798038
C        7.86810003       4.89770330       8.48375068       0.02163255      -0.01705180      -0.00743962
C        6.66707114       4.37219481       8.01039175       0.02329081      -0.00963846      -0.01909230
C        7.86781985       6.18845955       9.01645791       0.02041821      -0.02291355       0.00504279
C        9.12809601       4.10393013       8.34827313       0.02161998      -0.01724952      -0.00581307
C        5.50150010       5.11726038       8.04488069       0.02406606      -0.00899150      -0.01508971
C        6.70062436       6.93745032       9.04460657       0.02164004      -0.02134320       0.00755153
C        5.52021035       6.40092265       8.55729776       0.02271028      -0.01401398      -0.00216821
H        6.64841293       3.35896675       7.62415097       0.02434656      -0.00387404      -0.03291243
H        8.79411998       6.61952724       9.37812531       0.01888670      -0.02894949       0.01488372
H        9.94813889       4.55438624       8.90215365       0.01927519      -0.01957597      -0.00081903
H        9.00716786       3.08453960       8.71457985       0.01995970      -0.01876688      -0.01082171
H        9.41548391       4.04359657       7.29645665       0.02518133      -0.01256098      -0.00477532
H        4.56407864       4.68061459       7.73194922       0.02621144      -0.00338786      -0.02749404
H        6.70329460       7.95248740       9.42210188       0.02253928      -0.02603041       0.01908056
H        4.61295223       6.98169428       8.60069137       0.02331436      -0.01295530      -0.00151295
C        3.12880312       5.57804599      10.56033236      -0.01667422      -0.01684840      -0.00741029
C        4.45175222       5.56629619      10.98774650      -0.02071072      -0.02547437       0.00396432
C        2.58511584       4.38540346      10.08450700      -0.01736695      -0.01083328      -0.02070247
C        2.32397384       6.84353243      10.63137974      -0.01187548      -0.01412827      -0.00923236
C        5.21299919       4.41077041      10.96038309      -0.02510968      -0.02808753       0.00005105
C        3.34009634       3.21727899      10.06130923      -0.02166618      -0.01295574      -0.02497111
C        4.65811932       3.22714456      10.50232589      -0.02539977      -0.02212200      -0.01432391
H        4.89464204       6.48884034      11.34452870      -0.01991152      -0.03115696       0.01602365
H        1.55345273       4.36848390       9.75192342      -0.01367766      -0.00420432      -0.03095207
H        1.29198815       6.64356958      10.92481217      -0.01474400      -0.01131910      -0.01864654
H        2.75423976       7.53886537      11.35397866      -0.01534414      -0.01897608      -0.00297955
H        2.29472575       7.36142731       9.66883023      -0.00206795      -0.01092029      -0.00759989
H        6.24732987       4.44368291      11.27702693      -0.02823836      -0.03658821       0.00959650
H        2.89562875       2.29351623       9.71108938      -0.02137218      -0.00740500      -0.03883041
H        5.25533335       2.32401809      10.49394926      -0.02931811      -0.02484114      -0.01646587
