196
Lattice="14.132475327715953 0.0 0.0 0.0 14.132475327715953 0.0 0.0 0.0 14.132475327715953" Properties=species:S:1:pos:R:3:forces:R:3 energy=-1331013.125 stress="-0.0007236616220325232 0.0002211909886682406 -0.0004873458528891206 0.0002211909886682406 -0.00018499218276701868 2.07079747269745e-05 -0.0004873458528891206 2.07079747269745e-05 -0.00035757097066380084" pbc="T T T"
Md      14.75430557      13.81834517      -0.12476509       0.02103622       0.01661714      -0.02754418
Br      13.69880254      12.33949622      11.50042053       0.04029425      -0.00359324       0.02209543
O       14.12230828      11.99078382       9.99659635       0.02684379      -0.02259545       0.00702518
O       12.17558255      11.96734545      11.84578505      -0.01021472      -0.02330320      -0.02661265
O       14.69572001      11.68946570      12.64955372      -0.00134022       0.01482911       0.03749446
O       13.95263814      13.96548477      11.80261437      -0.00755291      -0.02019626       0.00634614
Br       3.02252057      12.63988445       1.35847190      -0.00047579       0.00295077       0.00762784
O        3.76922031      12.95952428       2.73336836      -0.01717901      -0.00407019       0.00746261
O        2.95165758      13.96660476       0.35249848       0.01438865      -0.01039705      -0.00238194
O        3.55559928      11.33212376       0.60857439       0.02446868      -0.01389527       0.02300096
O        1.37680141      12.46148510       1.63527632      -0.00151569      -0.00090268      -0.02684764
Br       7.49782184      13.34909255      13.70977596      -0.01409166       0.01540006       0.01061352
O        6.04061077      13.33028253      14.44250349      -0.00551772       0.04520791       0.01626784
O        7.85543182      11.86181352      13.16505692      -0.03303975       0.00715935       0.01808989
O        7.44407611      14.38778496      12.45214243      -0.00182189       0.00808525       0.00405324
O        8.62375080      13.85066108      14.76759212       0.00277770       0.00673825       0.00264907
C       11.55505213       3.38605387       3.54457917       0.00482748      -0.01228756      -0.00558843
C       10.52487914       2.95779642       4.58558039       0.00551187      -0.00580502      -0.00228074
C       12.19126229       2.19853151       2.82405386       0.00044532      -0.01451099      -0.00561807
C        9.85140753       4.11539647       5.31424248       0.00786281      -0.00332278      -0.00435017
C       13.19342985       2.61153215       1.75108880       0.00248735      -0.01830214      -0.00522904
C        8.86221725       3.64907112       6.37564433       0.00271395      -0.00114150      -0.00848800
H       11.07887183       4.04283016       2.80793769       0.00599171      -0.01107463      -0.00484964
H       12.33605536       3.98494705       4.02859859       0.00809634      -0.01462451      -0.00782675
H       11.00636151       2.30533598       5.32163948       0.00406057      -0.00587313      -0.00188440
H        9.75648356       2.34758244       4.10050344       0.00116214      -0.00366712       0.00155792
H       12.68898497       1.56142115       3.56157654      -0.00247154      -0.01708969      -0.00597984
H       11.40141246       1.58885235       2.37509281      -0.00234616      -0.01073959      -0.00644653
H       10.61714027       4.74784588       5.77595401       0.00712043      -0.00423720      -0.00163147
H        9.33268276       4.75007303       4.58779377       0.01204000      -0.00263450      -0.00623325
H       12.71554741       3.19477289       0.96160400       0.00511561      -0.01552680      -0.00452606
H       13.65363379       1.72968966       1.26919754      -0.00136181      -0.01980078      -0.00560075
H       14.00319530       3.21350868       2.16924589       0.00470309      -0.02152093      -0.00451834
H        8.10897514       2.98672921       5.94306822       0.00206144       0.00268945      -0.01306447
H        9.36759531       3.09698643       7.17137768      -0.00243604      -0.00542812      -0.00807051
H        8.34038354       4.48876764       6.83729529       0.00388735      -0.00045477      -0.00855658
C        6.97269068       3.32585183       2.42523786       0.00856251      -0.00459588      -0.00777259
C        7.02920402       4.77901296       1.96945907       0.00827640      -0.00412673      -0.00612418
C        5.60051676       2.90161675       2.93196211       0.00766337      -0.00582275      -0.01135045
C        8.42232678       5.21679503       1.53461684       0.00859907      -0.00151658      -0.00217891
C        5.56982952       1.46193927       3.42275311       0.00699417      -0.00467539      -0.00810605
C        8.50004615       6.67247299       1.09685478       0.00781071      -0.00151843      -0.00213559
H        7.28251173       2.66160049       1.61139953       0.01040991      -0.00362629      -0.00786728
H        7.70502047       3.17679555       3.22834293       0.00751695      -0.00556208      -0.00709298
H        6.68584385       5.42842846       2.78137406       0.00537014      -0.00546198      -0.00604612
H        6.32285628       4.93172238       1.14418706       0.01011424      -0.00446752      -0.00776404
H        5.29816073       3.57539188       3.73933319       0.00301737      -0.00330889      -0.01504761
H        4.86396535       3.03328488       2.13151758       0.01086730      -0.00980812      -0.01490727
H        9.11490450       5.04934716       2.36512883       0.00667191      -0.00014140      -0.00033313
H        8.76329157       4.56695759       0.72449014       0.01232894      -0.00104383      -0.00110459
H        5.82544381       0.76704990       2.62084723       0.00722846      -0.00647366      -0.00644118
H        4.58389215       1.18621695       3.79864011       0.00667787      -0.00308783      -0.00824960
H        6.28798916       1.31373217       4.23353928       0.00634025      -0.00462789      -0.00769642
H        7.81117332       6.87681093       0.27670418       0.01222938      -0.00334892      -0.00634734
H        8.23476936       7.34778396       1.91226296       0.00124244      -0.00184519      -0.00389779
H        9.50378428       6.93769447       0.75974156       0.00914693       0.00068933       0.00395373
C       12.45580536       1.79877147       9.31410768      -0.00274062       0.00722212       0.00340727
C       11.51766422       1.24280704      10.37798714      -0.00744766       0.01150283       0.00147603
C       12.30801034       1.12290960       7.95451203       0.00319439       0.00300154       0.00513566
C       11.70351178       1.86954504      11.75687947      -0.01064846       0.01297167       0.00098206
C       13.27006263       1.67447278       6.91094825       0.00429553       0.00187822       0.00565368
C       10.94209075       1.12185915      12.84407017      -0.00417456       0.00827232       0.00217572
H       12.29561695       2.87857890       9.20469206      -0.00334240       0.00719994      -0.00218394
H       13.48964748       1.67574535       9.65682471      -0.00468302       0.00913845       0.00827569
H       11.67108668       0.16248843      10.45657763      -0.00816405       0.01062179       0.00533240
H       10.47507171       1.36435911      10.06316559      -0.00548932       0.01278956      -0.00264226
H       12.47482422       0.04716037       8.07077539       0.00663300       0.00339425       0.00947890
H       11.27612968       1.23059501       7.60278327       0.00407940      -0.00246370       0.00189710
H       12.77295989       1.88927712      11.99063953      -0.01110622       0.02268676      -0.00048894
H       11.38674570       2.91626269      11.72281337      -0.02082539       0.01031986       0.00060410
H       13.10271053       2.74163575       6.74466914       0.00232296       0.00135249       0.00304600
H       13.15916077       1.16914863       5.95000398       0.00712185      -0.00040004       0.00671896
H       14.30619521       1.55086160       7.23228570       0.00395164       0.00497128       0.00781365
H        9.87642600       1.05711390      12.62506107      -0.00311223      -0.00383367       0.00268356
H       11.28936160       0.08988993      12.93593399       0.00833030       0.01220395       0.00442836
H       11.03918599       1.59800621      13.82240375      -0.01030436       0.01206012       0.00079946
C        8.86202270       7.91192437       7.30035054       0.00255883       0.00061271      -0.00407726
C        9.73679131       8.42642166       6.16306483       0.00094581       0.00007167      -0.00544745
C        9.57668434       6.93736632       8.22763186       0.00306755       0.00059241      -0.00454745
C        9.07790915       9.54574965       5.36640963       0.00112766       0.00118348      -0.00387288
C        8.67593196       6.39323111       9.32610102       0.00436080       0.00227496      -0.00263426
C        9.95764554      10.09678805       4.25311754      -0.00065097      -0.00010930      -0.00583473
H        8.49648678       8.76055919       7.88991239       0.00379540       0.00108683      -0.00374313
H        7.96875666       7.43118306       6.88126114       0.00178707       0.00097151      -0.00261930
H        9.98844171       7.59609829       5.49232368      -0.00111745       0.00011474      -0.00616911
H       10.68937456       8.78354187       6.56877679       0.00226521      -0.00111613      -0.00696521
H        9.98209628       6.10835620       7.63954485       0.00151376      -0.00008753      -0.00437061
H       10.43912303       7.44092005       8.67612569       0.00429553       0.00034192      -0.00614712
H        8.13920189       9.17630349       4.94521121      -0.00057545       0.00301480      -0.00160219
H        8.80332043      10.35360365       6.05317790       0.00421994       0.00170463      -0.00300795
H        8.30758107       7.19674792       9.96788953       0.00376499       0.00352603      -0.00460050
H        9.19784354       5.67450731       9.95826677       0.00541323       0.00464252      -0.00096336
H        7.80343818       5.88727150       8.90523292       0.00483590       0.00008168      -0.00093713
H       10.87470141      10.52801286       4.66044136       0.00166041      -0.00294701      -0.00825579
H       10.24798259       9.30786643       3.55561352      -0.00488704      -0.00015327      -0.00748716
H        9.44826000      10.87315076       3.68018536      -0.00019608       0.00173965      -0.00366406
C        4.93666492       6.29606846       4.94067783       0.00052485      -0.00023943      -0.00040293
C        5.01541377       7.80985163       4.77249129      -0.00096190      -0.00033355      -0.00139272
C        4.12940133       5.84173153       6.15188652       0.00169876      -0.00089404       0.00001749
C        5.81710683       8.23577476       3.54763334      -0.00109932      -0.00099915      -0.00175360
C        4.04381447       4.32701930       6.28762803       0.00390310      -0.00105900      -0.00050284
C        5.84212615       9.74183418       3.32465744      -0.00406516      -0.00146729      -0.00406448
H        4.50005255       5.85937483       4.03500671       0.00061244      -0.00110304       0.00002655
H        5.95078751       5.88294719       5.01215882       0.00099379       0.00088611      -0.00079539
H        5.45842507       8.25822892       5.67042959      -0.00164324       0.00088428      -0.00175145
H        4.00324575       8.21974965       4.69944063      -0.00139087      -0.00125489      -0.00218692
H        4.57062007       6.26681085       7.06005224       0.00165308      -0.00053966      -0.00018147
H        3.11852460       6.25682309       6.08329962       0.00115910      -0.00218327       0.00053705
H        6.83982927       7.85617820       3.64765448      -0.00063941       0.00033690      -0.00091788
H        5.40497370       7.74362719       2.66056326      -0.00024085      -0.00310613      -0.00093451
H        3.55915583       3.88059778       5.41725996       0.00457887      -0.00137776      -0.00059462
H        3.47350557       4.03614692       7.17143701       0.00452703      -0.00248909      -0.00054008
H        5.03701402       3.88001402       6.37010765       0.00461096       0.00048333      -0.00103863
H        4.83886751      10.12709162       3.13571477      -0.00533703      -0.00400476      -0.00201518
H        6.23283442      10.26555635       4.20017362      -0.00277370       0.00038529      -0.00569031
H        6.45789512      10.01714517       2.46752927      -0.00668956      -0.00130891      -0.00598416
C        8.73280340      11.80857119       9.33475669       0.00306101       0.00384158       0.00270331
C        7.59029983      12.81035258       9.24817448       0.00514146       0.00728440       0.00564691
C        9.96412058      12.19854079       8.53003290       0.00218080       0.00127143      -0.00012118
C        6.35070447      12.30557315       9.96959775       0.00338282       0.00920442       0.00542462
C       11.05971729      11.14438757       8.59784934      -0.00002295      -0.00157389      -0.00532711
C        5.17241737      13.26184382       9.89991423       0.00698185       0.01478395       0.00537840
H        9.00565450      11.67670957      10.38716624       0.00528795       0.00318168       0.00190654
H        8.37560626      10.82932259       8.98919920      -0.00102206       0.00539267       0.00366074
H        7.35094019      13.00774673       8.19460883       0.00460277       0.01012513       0.00676504
H        7.90234917      13.76187532       9.69007793       0.00724947       0.00531542       0.00742751
H        9.67887630      12.37228808       7.48600559      -0.00046562       0.00296863       0.00116426
H       10.34510937      13.15248245       8.90232742       0.00606507      -0.00044170      -0.00036223
H        6.07058188      11.34212798       9.53779815       0.00036404       0.01059473       0.00491084
H        6.60686151      12.11694161      11.01454858       0.00167231       0.00762128       0.00516778
H       11.36293435      10.97170030       9.63022948       0.00526330      -0.00240953      -0.00674009
H       11.94914522      11.43389386       8.03549027      -0.00249623      -0.00340182      -0.00902218
H       10.70338634      10.19322358       8.19793230      -0.00398435      -0.00044331      -0.00394415
H        5.42180941      14.20472602      10.38723595       0.00617638       0.01214558       0.00995530
H        4.88521238      13.47098746       8.86568428       0.00636472       0.01630682       0.00597452
H        4.30042144      12.84898812      10.40918094       0.00471768       0.01718265       0.00324023
C        1.56138146      10.06114436       4.27482113      -0.00942504       0.00270502       0.00018176
C        0.89062405       9.31327147       3.12789708      -0.00856692      -0.00145102       0.00226051
C        0.78794662      11.29007237       4.74646759      -0.01295811       0.00090413      -0.00058389
C        1.66324461       8.07471185       2.68389702      -0.00321108       0.00199592       0.00159784
C        1.53779520      12.11572877       5.78652204      -0.01345101       0.00370765      -0.00241864
C        0.98862857       7.33547092       1.53572595       0.00038898       0.00052717       0.00046432
H        1.70814499       9.37448260       5.11516030      -0.00544595       0.00499082       0.00115821
H        2.56580692      10.37193733       3.96019130      -0.01128611       0.00614280      -0.00215722
H        0.77863605       9.98968452       2.27517543      -0.01392128      -0.00287801       0.00213647
H       -0.12398954       9.02202691       3.42471600      -0.00639924      -0.00658005       0.00491962
H        0.57314570      11.91784734       3.87987350      -0.01660184      -0.00077972      -0.00091174
H       -0.18111897      10.97596038       5.14840980      -0.01105547      -0.00200929       0.00214407
H        2.67406562       8.37193633       2.38270693      -0.00439572       0.00693886       0.00169902
H        1.78628897       7.39761257       3.53664364      -0.00040736       0.00176905       0.00054264
H        1.68418447      11.56343482       6.71496026      -0.00750039       0.00360414      -0.00325717
H        0.99887924      13.03247756       6.03264455      -0.01713750       0.00076889       0.00039553
H        2.52317103      12.40192235       5.41041949      -0.01657078       0.00870404      -0.00603517
H       -0.02086064       7.02155874       1.81100746       0.00126532      -0.00377180      -0.00077135
H        0.90422809       7.97741239       0.65698596      -0.00120988       0.00079511       0.00120594
H        1.54646434       6.44369577       1.24441252       0.00438297       0.00314964      -0.00017538
C        6.16712202       3.45734475      12.23357633      -0.00720172      -0.00177950      -0.00314587
C        4.82092822       4.16423593      12.18562350      -0.00800084      -0.00307500       0.00042346
C        7.32941555       4.43907805      12.18426798      -0.00743087      -0.00141633      -0.00040341
C        3.62417365       3.22591051      12.26078894      -0.00648769      -0.00515610      -0.00137970
C        8.68709882       3.75598352      12.19005085      -0.00790489      -0.00204349      -0.00218929
C        2.30113270       3.97747940      12.20148120      -0.00832984      -0.00802991       0.00175419
H        6.23959001       2.84009004      13.13483432      -0.00583131      -0.00542679      -0.00572792
H        6.24808242       2.75161752      11.40099548      -0.00724876       0.00148723      -0.00585660
H        4.75525521       4.75510886      11.26308702      -0.00976426      -0.00013781       0.00242698
H        4.76068721       4.88950319      13.00724865      -0.00798710      -0.00612327       0.00313041
H        7.23281091       5.06659186      11.29255893      -0.00705004       0.00134121       0.00148523
H        7.25640478       5.12149120      13.03701205      -0.00716854      -0.00409746       0.00175184
H        3.68138159       2.50322408      11.44112948      -0.00558589      -0.00334872      -0.00281969
H        3.68957537       2.63865185      13.18263650      -0.00495557      -0.00684591      -0.00260839
H        8.78756376       3.09020227      13.04809693      -0.00883197      -0.00543612      -0.00476491
H        9.50340720       4.48100410      12.22304580      -0.00747466      -0.00283995       0.00088325
H        8.82038073       3.13677262      11.30076461      -0.00779958       0.00101316      -0.00438055
H        2.20830962       4.67669270      13.03559565      -0.00872770      -0.00978355       0.00313172
H        2.22928309       4.56273468      11.28195861      -0.01173339      -0.00645365       0.00307530
H        1.43988465       3.30566578      12.23088075      -0.00678523      -0.01022960       0.00170892
C        4.95606801       9.09535760      10.96937479       0.00379682       0.00135148       0.00643230
C        4.04748507       8.68608461       9.81846676       0.00053081      -0.00315839       0.00980165
C        4.83015800       8.20737049      12.19899695       0.00233251       0.00486234       0.00959894
C        4.18685305       9.58757417       8.59802313      -0.00215143      -0.00519481       0.00762139
C        5.71322314       8.68176989      13.34448898       0.00393057       0.00784728       0.00700828
C        3.19959764       9.26152770       7.49204654      -0.00863713      -0.00198125       0.01171744
H        5.99832732       9.09534627      10.63024351       0.00317624       0.00474259       0.00873832
H        4.73876620      10.13006975      11.25188497       0.00029251       0.00253969       0.00552079
H        3.00565550       8.69562557      10.15774320       0.00018549      -0.00623780       0.01263636
H        4.25872401       7.64878770       9.52919650       0.00424284      -0.00363660       0.00955867
H        3.78279605       8.18637293      12.52093637       0.00387192       0.00611793       0.00973710
H        5.08462727       7.17707657      11.92877509       0.00193153       0.00444272       0.01104075
H        4.05890447      10.62963896       8.90382708       0.00015844      -0.00315371       0.00626996
H        5.21050698       9.51365987       8.21312575      -0.00525519      -0.00342970       0.00527699
H        6.76519665       8.68830630      13.05289587       0.00301307       0.00730738       0.00528975
H        5.60929244       8.04043563      14.22205349       0.00525511       0.00971651       0.00895396
H        5.46509657       9.70211167      13.64069457       0.00376118       0.00822893       0.00423230
H        3.28277496       8.21964157       7.18421137      -0.01053290      -0.00183529       0.01107403
H        2.17170014       9.42763499       7.82153966      -0.00538862       0.00228918       0.01496692
H        3.37052214       9.87919615       6.61125773      -0.00832520      -0.00198431       0.01069996
