198
Lattice="12.479061047200297 0.0 0.0 0.0 12.479061047200297 0.0 0.0 0.0 12.479061047200297" Properties=species:S:1:pos:R:3:forces:R:3 energy=-599660.875 stress="0.004458638373762369 0.0014389899442903697 0.0005998458655085415 0.0014389899442903697 0.0009375711670145392 0.000477446083095856 0.0005998458655085415 0.000477446083095856 0.002067066729068756" pbc="T T T"
Mg      11.92387723      11.22882155       0.85769027       0.00750175       0.00212607       0.00076967
O       11.66266971       0.56483376       1.68026561       0.00264813       0.00266731      -0.00221431
O       11.89159415       2.79483634       3.57375897      -0.00321275      -0.00176758       0.00268177
O       12.09119733       0.07224931       4.48062639       0.00235501      -0.00121552       0.00135937
O        9.51753392       1.03658202       3.59761936       0.00208277      -0.00641167       0.00332305
W       11.26812584       1.14847020       3.31512391      -0.00210400      -0.00026853       0.00607111
O        2.22563240       1.57730133       8.79532281      -0.00135933       0.00130835       0.00371341
H        1.97656331       1.00960640       8.04729829      -0.01769054      -0.00837688       0.01517896
H        1.82577364       2.44483684       8.57378615      -0.00462949      -0.00134805       0.00261212
O        7.91734358      11.55455079       4.67312279      -0.00613342       0.00277737       0.00073475
H        8.32573314      12.39400426       4.36944017      -0.00291648       0.00508441       0.00727981
H        7.43163994      11.73366897       5.48697425      -0.00138731      -0.00485945       0.00334826
O        1.17343721       9.83744661       6.74253588       0.01158847      -0.00322266       0.01125184
H        1.68791834       9.03481332       7.02334314       0.01500996      -0.00142021       0.01090295
H        0.35398828       9.79611063       7.25066802       0.00450934      -0.02031102      -0.00261532
O        4.41988638      11.93894627       8.05341324       0.00893381       0.01002836      -0.00361764
H        4.24315121      12.69097624       7.45722726       0.00742901       0.00658971      -0.01007323
H        4.88147669      11.29941335       7.45863931       0.00463346       0.00514554      -0.00088337
O       12.30409819       6.63408240       6.07617045       0.01363109      -0.00113016       0.00055736
H       11.87935161       5.76355855       5.96909123       0.00259655       0.00361040       0.00781078
H       11.81325007       7.06164237       6.81316858       0.01549603       0.01392151      -0.00652743
O        2.24302510       0.21419021       1.34499169      -0.00970351      -0.02060486      -0.00760543
H        2.89568081       0.04540221       0.64453561      -0.00753780      -0.01688980      -0.00704025
H        1.88193863       1.10553110       1.17487606       0.00203092      -0.01372127       0.00194937
O        4.00947244       7.80781703       0.93705669       0.00029773       0.01939720       0.00589751
H        4.63787971       7.29730036       0.41234066      -0.00295168       0.02393994       0.00426680
H        4.16822080       7.48877400       1.84794305       0.00164952       0.01501754       0.00678672
O        5.80940425      11.47107895       1.71718647      -0.00898006       0.00873324       0.00189187
H        6.03935838      10.57397385       2.00711833      -0.00461664       0.00888456       0.00350234
H        5.25816838      11.39539870       0.90001143      -0.00841102       0.00519548       0.00276190
O        6.08024868       2.66809055       3.24772447       0.00363232      -0.00045657      -0.00548084
H        6.43201062       2.58423882       4.15618960       0.00236913       0.00108133      -0.00367382
H        6.63483413       2.09331672       2.68249705       0.00428445      -0.00030028      -0.00351436
O        6.53150960       9.32194587       3.45315966       0.00366061       0.00519443      -0.00610003
H        5.60921804       9.35892707       3.78642580       0.00215153       0.00208446      -0.00423743
H        6.99937882      10.08910272       3.83408021       0.00242535       0.00293526      -0.00391602
O        4.41911355       1.28708843       5.94213633      -0.00062364      -0.01301938      -0.01645941
H        5.37003080       1.47439499       5.86941563       0.00277783      -0.00633289      -0.01980613
H        4.16829918       0.84709704       5.10545471      -0.00028607      -0.01460669      -0.01125392
O        8.25590271       4.56874328      11.36278073       0.00017405      -0.00021833      -0.00194882
H        7.47842911       4.75973524      11.91510194       0.00337394       0.00424881       0.00365996
H        8.72474483       3.82338916      11.80650210       0.00103490       0.00317475       0.00011685
O        8.60608984       9.04248330      11.77102843       0.00736034      -0.00625339      -0.00719817
H        8.03395418       8.60367086      12.44908491       0.00508808      -0.00617747      -0.00567247
H        8.03419353       9.60017887      11.23454876       0.01613854       0.01201818       0.01032479
O        3.24149894      10.30043028       9.86668781       0.00997815       0.00630856      -0.00641117
H        3.37969958      10.98940044       9.18757849       0.00905573       0.00699282      -0.00530589
H        2.31853073       9.98248384       9.77661513       0.00888510       0.00555886      -0.00403453
O       10.83604837       4.28574808       5.51640768       0.01412774      -0.00082247       0.01206371
H       10.42383786       3.63677606       6.11988129       0.00853175       0.00158469       0.01093476
H       11.19910534       3.75335398       4.77050538       0.00699349      -0.00270690       0.01012589
O        6.91392075       2.64956086       5.92936682       0.00111523      -0.00645651      -0.00435451
H        7.78647271       2.68384511       6.35778420       0.00501145      -0.00343335      -0.00611027
H        6.35147928       3.28652141       6.41448935       0.00158133      -0.01066109      -0.00273181
O        4.37871165       6.36609033       3.29687597       0.00113839       0.00462916       0.00254393
H        4.10291197       5.62913629       2.72619594      -0.00840563       0.00854181       0.00250847
H        5.33945710       6.14642608       3.41280330       0.00071199      -0.00061060      -0.00449429
O        9.51601228       2.55926340       0.15925264      -0.01043637       0.00371116       0.01201356
H        9.80319151       1.89295340      -0.47594129       0.01481835       0.00914752       0.01077286
H        8.82898508       2.09696983       0.66666043      -0.01139163      -0.00743150      -0.00544809
O       11.25666699      11.93248034      11.47825464       0.01362041       0.00513808       0.00070733
H       11.55654955      11.80484717      10.55689693       0.01655260       0.01142169      -0.00096428
H       10.28498854      12.03708165      11.42309186       0.01387888      -0.00100157      -0.00082787
O        1.46760515       4.85414013       2.50366343       0.00552392      -0.00392252      -0.01273578
H        1.30057489       5.05426209       3.43156647      -0.01654756      -0.01988199      -0.01307321
H        0.89405843       4.09886101       2.28140796       0.02022813      -0.00708929      -0.03581032
O        1.30488822       4.02911718       7.98495208      -0.01714383       0.00284725       0.01128918
H        1.41517973       3.95715706       7.02448877      -0.01447213       0.00042886       0.01216945
H        1.99148171       4.63127447       8.33279227      -0.01958891       0.00695933       0.01122084
O        6.16686527      12.71857581      10.01806489       0.01157011       0.01846581      -0.00599485
H        5.77887687      13.61979903       9.94108091       0.00502528       0.01751531      -0.00090802
H        5.66724081      12.26232634       9.30382597       0.01252009       0.02020638      -0.00787269
O        0.96797622       2.67112636       0.77801032      -0.02613276      -0.02559912       0.01491535
H        1.42757975       2.90836739      -0.04688648       0.02837777      -0.00665024      -0.00022899
H        0.14720123       2.21147871       0.55828260       0.04251417       0.01256830       0.02036650
O        5.76410594      10.21482818       6.52164763       0.00636839      -0.01245847       0.01400482
H        5.87203751       9.58726601       7.25455184      -0.01186614      -0.00141539       0.00082038
H        5.06587705       9.85141696       5.94334900      -0.00055195      -0.00781406      -0.00451606
O       11.15680374       4.10370855       8.96273594      -0.01531548       0.00252474       0.01215415
H       11.09961252       4.89033153       9.51591912      -0.03232264       0.01171407      -0.00167574
H       12.06677471       4.12061881       8.60655489      -0.01203626       0.00584283       0.01917205
O        3.07730130       3.46212296      11.66017345       0.00033334       0.00046725      -0.00643723
H        3.53920306       3.52731011      12.51255852       0.00444459       0.01134557      -0.00854111
H        3.67546804       2.98110209      11.04565240       0.00006016       0.00583936      -0.00565590
O        2.22969973       7.46210825       7.25949315       0.00346014      -0.01255669       0.01652317
H        1.52118155       6.95479293       6.81419069      -0.00759117      -0.00269065       0.02004373
H        3.04385744       7.06927948       6.92442058      -0.00782485      -0.02398704       0.00558042
O        4.30777772      11.73068315      11.99431868       0.00122774       0.00809089      -0.00713877
H        4.93641656      12.15240278      11.37803783       0.00321033       0.01315976      -0.00039603
H        3.83162085      11.09237791      11.42224051       0.00405750       0.01126825      -0.01446640
O        3.99459334       3.91399550       1.82049969       0.00985757       0.00354570      -0.00119123
H        3.07323589       4.02803755       2.13467634       0.01147971      -0.00218373       0.00546120
H        4.46567105       3.31473438       2.42876307       0.01939186       0.00886957      -0.00368547
O        0.67756491       9.34321815       9.88476124       0.00735718       0.00871202       0.00174403
H       -0.08015798       9.66399364       9.37858131       0.01100283       0.00642369       0.00053408
H        0.64323014       8.34244398       9.87348526       0.00598006       0.00685436       0.00669459
O        3.95481375       9.64472309       4.48527189       0.00330445      -0.00115000      -0.00518709
H        3.69865618      10.54124408       4.16787285       0.00265639      -0.00173575      -0.00135319
H        3.18635008       9.06830352       4.36415629       0.00292811      -0.00131005      -0.00569389
O        4.76519758       3.84622476       7.17224968       0.00015882      -0.01688986      -0.00732139
H        4.31277960       4.60252167       6.74808524      -0.00567351      -0.02607427      -0.01977137
H        4.32858552       3.07380683       6.77466733       0.00342269      -0.02618200       0.00471041
O        8.94237774      12.18532304       8.05825549      -0.01604357       0.00904682       0.01615313
H        8.78014955      11.23835423       7.84820773      -0.00451908      -0.00810219       0.00638086
H        8.26284564      12.42939506       8.69918819       0.00411639      -0.00303097      -0.00952256
O        0.13617979      10.53232170       2.66492713      -0.00153863       0.00265628       0.00358695
H        0.38790684       9.68519287       3.09758458       0.00318184      -0.00039662      -0.00084267
H        0.13080537      11.19161695       3.38244479      -0.00490227      -0.00306335       0.00650306
O       10.06150634      10.50162281       1.11997316       0.00413103       0.00374595      -0.00382783
H        9.56659896      10.05829526       0.39952966       0.01113409      -0.00353737      -0.00503332
H        9.88408563       9.97383578       1.94288236       0.00547163       0.00171257      -0.00421442
O        9.75529929       6.72338926      10.48619489      -0.02500116       0.00320227      -0.03843118
H        9.29247932       6.00091630      10.95491413      -0.00636678       0.00537452      -0.02020232
H        9.45745940       7.54282595      10.91870518      -0.01722219       0.00673962      -0.03403078
O        3.05626468       5.28448533       5.48200779       0.02123634      -0.00294660       0.01534178
H        3.53459460       5.68689999       4.72823392       0.02003201       0.00264945       0.01221856
H        2.71281770       4.42280981       5.19276747       0.00532717       0.01052387       0.00929724
O        0.68764103       6.75268812      10.25774134      -0.00307517       0.00723147       0.00888639
H        1.52519215       6.37214171       9.92177206      -0.00536862       0.00222429       0.00702168
H        0.82338041       6.78380314      11.22143731      -0.00008062       0.00605563       0.00828737
O        5.59925461       6.84629114       7.10066773      -0.00208083      -0.01261498      -0.01114005
H        5.41686137       7.52931387       7.78083062      -0.00847542      -0.01252022      -0.01488861
H        6.09812829       6.16169596       7.57017210      -0.00733896      -0.01321637      -0.00439966
O        9.50770305       2.63147664       7.31028893      -0.00673331       0.00096583       0.00175855
H        9.96632760       3.11493040       8.03231415      -0.00966508      -0.00102613       0.00403229
H        9.59897251       1.68750558       7.49446580      -0.01354530      -0.00029648       0.00328574
O        5.60674129       6.43860766      10.27680970      -0.01452523       0.00156064      -0.00884591
H        5.72454719       6.12383468      11.19398020      -0.01079836       0.00490628      -0.00723820
H        6.38883124       6.10712404       9.78215630      -0.01740725      -0.00210511      -0.01069753
O        1.20475056       0.08903529       6.66942568      -0.02846420      -0.00860205       0.02330697
H        1.47842685      -0.84853191       6.66721516      -0.01639060      -0.00692751       0.02264134
H        0.61502305       0.15803812       5.88799960      -0.00870701      -0.00757082       0.00989803
O        9.11249512       5.91163978       4.35118907       0.00086353      -0.00899503       0.01041837
H        9.69607082       5.31399873       4.88023430       0.00538053      -0.00328914       0.01075541
H        8.77001749       6.62726760       4.92750359      -0.00997934      -0.01210977       0.00967176
O        4.56913479       2.39937679       9.64642749      -0.00010012       0.00181086       0.00024030
H        4.73991710       3.11384601       9.00843926       0.00738977      -0.00391203      -0.00411111
H        3.74974845       1.96233418       9.27850123      -0.00027839       0.00252822      -0.00047340
O        1.63271557       2.90713926       5.31305926      -0.00503212       0.01092640       0.00472761
H        1.88016773       2.02475017       5.61879965       0.00546675       0.00980571      -0.00618348
H        0.86739190       2.78795130       4.71542143      -0.00341052       0.00819023       0.00343625
O        6.79220648       5.32561458       3.13124273       0.00247431       0.00017952       0.00290291
H        6.60219379       4.36683442       3.15067946       0.00052410       0.00056161      -0.00083100
H        7.62514927       5.44467686       3.63535389       0.00338261      -0.00551561       0.00254519
O        9.93815914       6.61554287       1.95941354      -0.00509295      -0.01091915       0.00595559
H       10.40252209       5.95777545       1.43686770      -0.00731709      -0.01498692       0.00812673
H        9.70842597       6.20959212       2.83405071      -0.00351294      -0.00758689       0.00760388
O       13.03858160       9.83842004      -0.02085060       0.00065075      -0.00243240       0.00098750
H       13.04186466       9.68410097      -1.00096820       0.00298880       0.00385677      -0.00047972
H       13.29731757       8.98634186       0.37959505      -0.00508992      -0.00740134      -0.00326871
O        1.38754316       7.24238922       0.54227473      -0.00214368       0.00228073       0.01552349
H        2.35817086       7.40807787       0.62029766      -0.00331647       0.01042642       0.01732676
H        1.20664414       6.56663205       1.21078226       0.00248289      -0.00332104       0.01067577
O        7.48924960       7.67316772       1.29196290      -0.00225656      -0.00071118      -0.00226641
H        7.21923965       8.19693283       2.06734009      -0.00449030       0.00137246      -0.00367388
H        8.35067592       7.26827575       1.53616960      -0.00564327      -0.00432660       0.00248945
O       11.13315490       7.91464080       8.21663292       0.01579896       0.02484820      -0.00831279
H       10.98527245       7.37530029       9.00837794       0.01347035       0.01407342      -0.01308529
H       10.29116223       8.38530183       8.05178345       0.01247533       0.01738715      -0.00698473
O        5.98258314       5.51039953       0.34522129      -0.00144240       0.01243783      -0.00576818
H        5.37693915       4.94678780       0.85117246       0.00096373       0.01313919      -0.00185075
H        6.47741018       6.04590250       0.99851458      -0.00265601       0.01974846      -0.01018581
O        9.67060396       9.00599697       3.25941870       0.00090310       0.00317731      -0.00123671
H       10.16556417       9.39797904       4.00458952      -0.00092543      -0.00145654      -0.00144514
H       10.14770336       8.21651628       2.96570575      -0.00319008      -0.00558786       0.00235320
O        7.71074825       7.84871571       5.67669831       0.00199309      -0.00704534      -0.00587064
H        7.37197184       8.32429130       4.89731252       0.00206208      -0.00298554      -0.00422500
H        6.91333626       7.47866538       6.12411406       0.00231186      -0.00924979      -0.00753978
O        7.66506717      13.43506983       1.66959862       0.00194837      -0.00241224       0.00039406
H        7.05524862      12.66192433       1.72307778      -0.00314104       0.00060120      -0.00055497
H        8.35802440      13.32363811       2.36287278      -0.00006954      -0.00504396       0.00235350
O        3.80553593      12.22823833       3.57867721      -0.01006403       0.00053488       0.00037877
H        3.12815614      12.44939739       2.89748256      -0.01276666      -0.01058352       0.00000823
H        4.60062346      12.08472129       3.02804413      -0.00854120       0.00600454      -0.00015818
O        3.01240314       5.39365580       9.68544930      -0.01067269       0.00515797       0.00419054
H        3.89270475       5.81024671       9.70341070      -0.01468912       0.00983898       0.00022819
H        3.01034345       4.79462279      10.46039533      -0.00042599      -0.00326839       0.00105122
O       11.64976916      11.53472159       8.71999829       0.00799766       0.00891191       0.00611109
H       12.26633337      12.06177165       8.18547439       0.00589201      -0.00928168      -0.01447433
H       10.75181553      11.81456589       8.46015445       0.00598454       0.00527716       0.00403445
O       10.42986990      10.58846819       5.33737052      -0.00093693      -0.00597185      -0.00705756
H        9.56475287      10.99419075       5.11689602      -0.00234449      -0.00575550      -0.00596043
H       11.09459061      11.28295142       5.14439000      -0.00352123      -0.00328055       0.00046911
O        8.51528230      12.36882429      11.51393518      -0.00223655      -0.02872057       0.00289363
H        7.71690632      12.49826810      10.96747418       0.00174216      -0.00112903       0.00202227
H        8.24123863      12.57677662      12.42100974       0.00502963      -0.01564374       0.00128321
O        7.71034992       5.49213250       8.79098055      -0.01616386       0.00487921      -0.00426804
H        8.43495364       6.12357188       8.92838543      -0.01801740       0.00783480       0.01859675
H        7.90173526       4.82963077       9.48002899      -0.01857290      -0.00721722      -0.01941450
O        9.08325724       9.53045337       7.37814001      -0.00404197      -0.00000750       0.00307883
H        8.48434516       8.98245346       6.82299550      -0.00193176      -0.00091945       0.00617203
H        9.74461859       9.85705457       6.72904468      -0.00527357       0.00181886       0.00162507
O        0.95719664       8.58949861       4.32174627       0.01530528       0.00146452      -0.00128890
H        0.96010145       9.14841954       5.12976810       0.01792241       0.00111696      -0.00132183
H        0.51863059       7.78556450       4.65525760       0.02185867      -0.00124155      -0.00007331
O        5.39730119       8.84164577       9.01802067      -0.01072451      -0.00505993      -0.01381475
H        4.56363074       9.27944834       9.30532079      -0.00611627      -0.00148629      -0.00569038
H        5.53530115       8.12665574       9.67074818      -0.00499660      -0.00419500      -0.01169810
