195
Lattice="13.234525607530662 0.0 0.0 0.0 13.234525607530662 0.0 0.0 0.0 13.234525607530662" Properties=species:S:1:pos:R:3:forces:R:3 energy=-118449.515625 stress="0.00011831161828013137 -0.0005982473085168749 -7.303313759621233e-05 -0.0005982473085168749 4.616632577381097e-05 0.00012582923955051228 -7.303313759621233e-05 0.00012582923955051228 -6.710227171424776e-05" pbc="T T T"
Mg      12.27437580      13.86775625      -0.65258592      -0.00685360       0.00010372       0.00250397
O        9.89345848      12.41988199      10.12246967      -0.01985276      -0.00230420      -0.01382232
O       11.74285980      12.28627415      11.27662386      -0.00406134       0.00215900      -0.00228080
O       10.47159937      14.01455823      11.49135247      -0.00903291       0.00277412       0.00534892
N       10.67328953      12.88031173      10.92677921       0.00601406       0.01297298       0.01516777
O        0.99248872      13.29561950      -0.11966983      -0.00558162       0.00950998       0.00500560
O       -0.66702947      12.43865708       0.94282578      -0.01375234      -0.00572614      -0.00190049
O        1.36113345      11.73220960       1.35195331       0.01280779      -0.02023536       0.02153486
N        0.60281180      12.45563783       0.74953498      -0.03483114       0.02246191      -0.01459810
O        7.73459436       4.31917407       4.76140770       0.00250949       0.00807161       0.01204115
C        7.89478467       3.41694906       5.84935044       0.01014802       0.00557274       0.00887641
H        8.56419334       2.59161912       5.59067807       0.00984089       0.00733818       0.00281227
H        6.93388543       2.99778999       6.16995359       0.01257509       0.00327888       0.01335385
H        8.32935536       3.97261054       6.67976666       0.01419375       0.00422807       0.00772892
H        7.34866619       3.79129394       4.02061362       0.00327685       0.00882758       0.01085466
O        1.66716801       7.99601316       6.91152178       0.01129000      -0.00425005      -0.00181401
C        1.54286006       9.11138096       7.78095391       0.00579367      -0.00340369      -0.00356677
H        2.49833539       9.62965066       7.91697048       0.00157940       0.00647320      -0.01134321
H        1.22020407       8.75113594       8.75726404       0.01587174      -0.00438897      -0.00050935
H        0.80634342       9.83420628       7.40873893      -0.00382373      -0.01145792      -0.00031851
H        2.00955851       8.34053974       6.06074026       0.00905207      -0.00451615      -0.00285362
O        6.49162027       2.69202753       3.00699082       0.00477678       0.01562548       0.00407249
C        6.82771780       1.31008703       3.08716477      -0.00034477       0.01424775       0.00164413
H        6.20329447       0.70835895       2.42140926      -0.00471768       0.01750967       0.00281897
H        6.72631975       0.92508019       4.10627758       0.00077069       0.01369017       0.00156420
H        7.86613774       1.20247702       2.77542123      -0.00160858       0.01024762      -0.00149211
H        5.59850998       2.82883241       3.38048377       0.00482449       0.01684789       0.00455425
O       11.44250679       8.39272133       3.72903834      -0.00664490       0.00509989       0.00663516
C       10.07186663       8.26557029       4.05420211      -0.00912672      -0.00546799      -0.00715789
H        9.43193276       8.52150086       3.20595199      -0.00282571       0.00146657      -0.01006541
H        9.84919786       8.95448064       4.86778853      -0.01994263      -0.01573971      -0.00132385
H        9.82514732       7.24854918       4.38862065      -0.00743642      -0.01047701      -0.02080971
H       11.54261315       8.21715626       2.77296949       0.00205594       0.00584426       0.00728053
O       11.36171207       1.86559155       0.70951189       0.01236063       0.01222771       0.00298783
C       11.42367434       1.79320053       2.14307504      -0.01069523       0.00120481       0.00328022
H       11.29109615       0.75997631       2.45681702       0.00095067      -0.00344539      -0.00634393
H       10.63192607       2.40837485       2.56827764      -0.02792586      -0.01470728      -0.00459538
H       12.38904042       2.16120425       2.48990765      -0.02208292       0.01389062       0.02307786
H       10.85196644       2.68829491       0.49024079       0.01086983       0.01282635       0.00191713
O        3.00988062       6.27103646       1.45726953      -0.00046277      -0.01246619       0.00500721
C        3.99371509       6.60324951       2.43888632       0.00394583      -0.00943606      -0.00059563
H        4.85330661       7.10625625       1.99166154      -0.00089505      -0.00492223      -0.00507799
H        4.33224545       5.71777556       2.98132382       0.01145066      -0.00861472      -0.00380507
H        3.51624322       7.28974181       3.13723424       0.00512941      -0.01247093       0.00320372
H        3.39173580       5.66757446       0.81504186      -0.00282475      -0.01204646       0.00319797
O        7.04855994       4.09432132      10.17129724      -0.00119370      -0.00519088       0.00191742
C        7.53955176       2.81318653       9.79216898      -0.00774431      -0.00760113       0.00118631
H        6.72642509       2.09791089       9.64531990      -0.01080182      -0.00656584       0.01265890
H        8.17763586       2.44645722      10.59510300       0.00019240      -0.00598604      -0.00425270
H        8.13223078       2.86640760       8.87317215      -0.01762255      -0.01202682      -0.00546834
H        6.37482002       4.37002554       9.52392191      -0.00533287      -0.00443435       0.00648129
O        4.72753488       9.86332466       1.88103844      -0.00172749      -0.00233330       0.00007701
C        4.67778321       9.49554604       0.50354573      -0.01057159       0.00322668      -0.00116840
H        3.65892969       9.32597530       0.15456429      -0.01386487       0.01707855       0.00153998
H        5.26714232       8.59275178       0.30776107      -0.02216926      -0.00310931      -0.00735984
H        5.10937247      10.31373709      -0.07233805      -0.00247934       0.00069410       0.00129625
H        3.98338490       9.45847263       2.33648411       0.00342290      -0.00779279       0.00382080
O        0.45800539       3.79149050      13.71086659       0.02120918       0.00736308      -0.00317240
C        0.47462557       4.82269420      12.73283194      -0.00056753       0.00686118      -0.00435749
H       -0.08901610       5.70238640      13.05781517      -0.00477591       0.00211248       0.00156161
H        0.07204971       4.47019073      11.77811029      -0.00874753       0.00257362       0.00068384
H        1.51451197       5.10378675      12.57310729      -0.00487113       0.01613019      -0.01666727
H       -0.45879305       3.51834305      13.81000872       0.02748265      -0.01502121      -0.00359610
O        7.11276685       8.36006956       8.25416072      -0.00474967       0.00283003      -0.00848862
C        7.43103983       6.98793245       8.27893483      -0.00253322       0.00294358       0.00889061
H        8.12225604       6.74451960       9.09681231      -0.00270066       0.01527952       0.01248917
H        7.85966500       6.64265483       7.32771913      -0.00086683      -0.00808997       0.01358858
H        6.51048605       6.43562989       8.45055891      -0.00192475       0.00353016       0.01459739
H        7.94490657       8.83172803       8.05949264      -0.00426060       0.00149189      -0.01016862
O       -0.09481446       1.85228853      11.20100888      -0.00988925       0.00425287       0.00264180
C        1.32669439       2.02635947      11.06608550      -0.01005474       0.00453426       0.00050663
H        1.80937726       1.08021566      10.81844216      -0.01139362       0.00583145      -0.00752064
H        1.70082051       2.38240215      12.02110074      -0.00776111      -0.00172392       0.00172240
H        1.54145722       2.76576951      10.29522470      -0.01194513       0.00966170       0.00459516
H       -0.48436224       1.69477899      10.30155260      -0.00988839       0.00626307       0.00257061
O        2.52559210       9.13635479       4.57007027       0.00740546      -0.00978910      -0.00507530
C        1.34703851       9.88080259       4.22218801       0.00939327      -0.00388180       0.00195669
H        1.44271077      10.33345677       3.23486973       0.00813208      -0.00051174       0.00338927
H        1.15237468      10.67218808       4.95254839       0.01552928      -0.00570825       0.00561559
H        0.49949610       9.19740857       4.21594862       0.00622517      -0.00003502       0.00242234
H        3.22681666       9.78247016       4.82657460       0.00911280      -0.01209514      -0.00151958
O        2.63569651       5.18368660       9.88959854       0.01036173       0.00053089      -0.00471285
C        1.48011904       5.30851325       9.06839862       0.01137622       0.00385932      -0.00566057
H        1.23943258       4.35867171       8.57062578       0.00959218       0.00469178      -0.00637899
H        1.58599958       6.09717238       8.31799707       0.01427062       0.00377366      -0.00540939
H        0.64567982       5.55618305       9.72433634       0.01152748       0.00591292      -0.00628544
H        3.42143279       5.15926087       9.32069485       0.01084736      -0.00449526      -0.00460503
O       10.35975301      11.41853272       2.41875228      -0.01338756       0.00364883      -0.00345469
C        9.58677737      11.73696094       1.27604696      -0.00830486      -0.00182790      -0.00843504
H        9.95208156      11.23112126       0.37654301      -0.01154578      -0.01539508      -0.00230065
H        9.56122086      12.81634051       1.07552839       0.00216902      -0.00366765      -0.02059548
H        8.56670607      11.40193290       1.46558785      -0.01201868       0.01009963      -0.00672773
H       11.28760380      11.50425416       2.16443529      -0.01226504      -0.00215697      -0.00186847
O        4.32264416      10.99575695       5.25759042       0.00197846      -0.02007857       0.00910074
C        4.22049016      12.05536777       4.30213419       0.00953840      -0.01074660       0.01947385
H        3.17431301      12.12433706       4.01062012       0.00922528       0.00482363       0.02448741
H        4.81265889      11.85197892       3.40912964       0.00467867      -0.00924444       0.01572266
H        4.50608773      13.01469611       4.74330636       0.02401346      -0.01865456       0.02754304
H        5.25166778      10.71982423       5.36921019       0.00277874      -0.02358756       0.00363452
O       12.78572218       2.77073418       6.16346617       0.00649631      -0.00120538       0.00475720
C       11.66639427       3.24853950       5.40966605       0.00900650      -0.00263582       0.00001015
H       11.98269537       3.76856535       4.50296253       0.01197040      -0.01234622      -0.00453866
H       11.03248093       3.91662873       5.99921432       0.01177701       0.00568031      -0.00630492
H       11.08580006       2.37241685       5.12791465       0.00498033      -0.00249679       0.00733367
H       13.35969825       3.52060072       6.34742354       0.00980592      -0.00202620      -0.00171452
O        1.23245804       0.28872643       8.10417584      -0.00035352       0.00918829      -0.01237074
C        2.64569350       0.20191269       7.91845437      -0.00090568      -0.01842012      -0.00668501
H        2.92495911      -0.66379360       7.31585430      -0.01487370      -0.03008452       0.00322428
H        3.17227093       0.17618026       8.87739840      -0.00449091      -0.01843755      -0.00459635
H        2.93613328       1.09383850       7.37119598       0.01750158      -0.02962610      -0.01555316
H        0.93010498      -0.49389191       8.57505796      -0.01555335       0.01686427      -0.00933710
O        0.48750464       6.20772185       2.51806764      -0.00379395      -0.00491577      -0.00059152
C        0.58742703       6.26731283       3.93420615      -0.00342123      -0.00271164      -0.00082076
H       -0.29739670       6.78562986       4.29887770      -0.00507349      -0.00528365      -0.00094660
H        1.47070358       6.82202420       4.25969339      -0.00520420       0.00063342      -0.00174879
H        0.62561946       5.25900241       4.36441647       0.00001632      -0.00206891       0.00048862
H        1.36935641       6.06556721       2.12737196      -0.00385359      -0.00744075      -0.00004073
O        4.41066338       3.56100928       4.50498761       0.00372449       0.00056328       0.00698022
C        3.02376096       3.87958203       4.60270210       0.00197379      -0.00326044      -0.00411976
H        2.59102683       4.02741465       3.60917778       0.00933300      -0.00565863      -0.00770226
H        2.88639274       4.80015896       5.17704613      -0.00481728      -0.00275955      -0.00658040
H        2.50312398       3.06028039       5.09986557       0.00058010      -0.00426188      -0.00714086
H        4.88998407       4.32365598       4.88604742      -0.00103475       0.00042702       0.01366834
O       12.01289253       7.75380398       1.12795096      -0.00158270       0.00353444       0.00769837
C       12.61794090       8.88778135       0.51310646       0.00332036      -0.00216481       0.00209188
H       13.42352329       8.59386814      -0.16693332       0.00166073      -0.00914541       0.00325972
H       13.02266092       9.58141273       1.25511252       0.00650884      -0.00043711      -0.00138921
H       11.84879201       9.39971607      -0.06354443       0.00545081      -0.00124171      -0.00009102
H       12.71193166       7.21640963       1.55969965      -0.00286195      -0.00102593       0.00434877
O        3.17584715       7.89069051      10.60517951      -0.00533819      -0.00715797       0.00853866
C        4.23716464       7.81858455       9.66794730       0.00246924       0.01839795       0.01517016
H        3.88176715       7.54941426       8.66415296       0.01428364       0.01955244       0.01047501
H        4.99621664       7.09009851       9.97543455       0.01357609       0.02988368       0.01551101
H        4.71512627       8.79301105       9.60669480      -0.01489113       0.02781433       0.02564759
H        2.80871931       6.99625433      10.64221257       0.00808153      -0.01380451      -0.00466684
O       10.47215059       6.58853685       7.25618797       0.00091466       0.01245531       0.00375730
C       11.88708074       6.52767302       7.45619118       0.00132600       0.01137321       0.00210476
H       12.21295322       5.49514349       7.62367394       0.00021350       0.01145279       0.00417142
H       12.20169336       7.14273622       8.30187409       0.00291525       0.01293868       0.00035375
H       12.36167175       6.91170388       6.55740640       0.00068527       0.00859493       0.00065663
H       10.03935372       6.37456919       8.08934697       0.00219060       0.01857249       0.00582737
O        5.62347532       5.62940895       5.76621150       0.00023311      -0.00372460       0.01460995
C        5.35037417       7.03048836       5.55591840       0.00522162      -0.00418206       0.00460892
H        5.67038051       7.34257960       4.56168573       0.00814420      -0.01290929       0.00278792
H        5.85698131       7.64383988       6.29988728       0.00650415      -0.00133811       0.00144646
H        4.27393625       7.16860819       5.64686736       0.00563329       0.00070371       0.00228072
H        6.50744967       5.38893815       5.39850434       0.00020391      -0.00691977       0.01548842
O        1.64480349       0.84747860       5.16832145       0.00365695      -0.00464859      -0.00605929
C        1.33340237       1.09558557       3.80916431      -0.00112662      -0.00907453      -0.00563976
H        0.89665117       2.08924310       3.66836923       0.00785688      -0.00550371      -0.00998051
H        0.65030705       0.34236500       3.40226736      -0.01056829      -0.00468293       0.00186580
H        2.26382152       1.05632484       3.24273128      -0.00426367      -0.02171037      -0.00999137
H        0.87953700       1.09968915       5.69842199       0.00586325      -0.00448246      -0.00293827
O       12.07201072       1.29830406       8.85626658      -0.00039756       0.01026467      -0.00470203
C       10.84432981       1.87250735       8.42800094      -0.00339931       0.00536820      -0.00276042
H       10.47116674       1.37027139       7.53256696      -0.00201442       0.00431561      -0.00284395
H       10.94881124       2.94256515       8.22329798      -0.00808566       0.00589761      -0.00216017
H       10.13481577       1.72290461       9.23576807      -0.00217471       0.00202052      -0.00227937
H       12.72862863       1.32103684       8.14555209      -0.00054567       0.02160052      -0.00475571
O        6.98785189       9.98834721       5.31086884      -0.02149206       0.02192546      -0.01453942
C        7.47059484      10.71667326       4.17744794       0.00313232       0.01873642      -0.00772595
H        6.89562062      10.37783584       3.31543759       0.00787655       0.02903041      -0.01478449
H        8.53009935      10.54865414       3.99572574       0.00278062       0.00037393       0.00572439
H        7.30901798      11.79199003       4.30944596       0.01954539       0.02101654      -0.00640307
H        7.68268327       9.94048065       5.98000763      -0.03390731       0.02304246      -0.00186082
O        4.97939628       4.54656419       8.23516551      -0.00688045      -0.00285548       0.01044571
C        4.32667335       3.31334427       7.92408049       0.00279386      -0.00771649       0.00719642
H        4.86328865       2.75141007       7.15733464       0.01722522      -0.00874183       0.01782264
H        3.30761955       3.48884285       7.56781379       0.00713092      -0.01419242      -0.00862637
H        4.27735981       2.72687391       8.83940933      -0.00779275      -0.00372496       0.00931662
H        5.21620632       4.98806375       7.38903549      -0.00588087      -0.00154956       0.01121905
O        9.20438680       8.24042589      10.99595585       0.00989673      -0.02247894      -0.00248066
C        8.23404132       9.22840312      11.32942751       0.01566318      -0.01706356      -0.00326223
H        7.94462670       9.17141754      12.38384003       0.03274200       0.00085337       0.00281045
H        7.33910056       9.14431276      10.70527912       0.00493166      -0.02589727       0.01267090
H        8.68833897      10.20247174      11.14894533       0.01293346      -0.01980096      -0.02698439
H        8.91523878       7.38765203      11.34734633       0.00811854      -0.01908597       0.00515442
O        9.49254712       9.23781295       7.27036150      -0.00761059       0.00765914      -0.00512430
C       10.51799556       9.82526608       8.08519341      -0.00972933       0.00980195      -0.00436531
H       11.48486288       9.76848760       7.57823446      -0.00986496       0.01519044      -0.00531039
H       10.57691837       9.32873917       9.05689349      -0.00639067       0.00770006      -0.00563863
H       10.26034567      10.86667382       8.24824058      -0.01419075       0.00840577      -0.00209385
H        9.78919825       8.33130743       7.06965204      -0.00454731       0.00869079      -0.00545331
O       10.30546345       4.25376803       0.53501622       0.00052390      -0.00279987      -0.00979611
C       10.31494583       5.04444036       1.73303047      -0.00250466      -0.00031463      -0.01202809
H       10.10553224       6.08708620       1.50058184       0.00647365       0.00079024      -0.01571668
H       11.31767950       4.99643017       2.16006452      -0.00560212      -0.00631698      -0.00510339
H        9.58442875       4.67319372       2.45802610      -0.00983661       0.00615826      -0.01600553
H        9.66033389       4.63130678      -0.09433858      -0.00060603      -0.00711547      -0.01160591
O        8.97615153       5.36699383      11.62461237      -0.00112098      -0.00909057      -0.00253382
C       10.10395619       5.05621460      10.80416923      -0.00304237       0.00133116      -0.00975208
H        9.84858396       5.14938475       9.74435281      -0.01073696       0.00199901      -0.00775290
H       10.46103115       4.03716968      10.98302454       0.00554860       0.00358519      -0.01395399
H       10.89701600       5.76047820      11.04971639      -0.00710344       0.00707571      -0.01267230
H        8.18841501       4.96045351      11.20190434      -0.00119835      -0.00959931      -0.00201754
