197
Lattice="13.699665105035875 0.0 0.0 0.0 13.699665105035875 0.0 0.0 0.0 13.699665105035875" Properties=species:S:1:pos:R:3:forces:R:3 energy=-152591.625 stress="-0.0012779660755768418 0.00018291250307811424 -7.158155494835228e-05 0.00018291250307811424 -0.0015838145045563579 -0.00017949968605535105 -7.158155494835228e-05 -0.00017949968605535105 -0.0021090167574584484" pbc="T T T"
Na      12.74704442      14.99130137       0.28816579      -0.02221139       0.00890008      -0.01994868
Cl      13.90042241      12.89244144      -0.18869311       0.01750898       0.03442837      -0.02472024
O        9.60115940      10.80600848       9.58041806      -0.00549994      -0.00000559       0.00012532
O       10.74739752      10.04832681      11.24581614       0.00237636       0.00204054      -0.00463259
O       11.23030771      12.11424042      10.45334669      -0.00346762       0.00320745      -0.00683472
C        9.31778511      11.85131495       8.62196764      -0.00904790      -0.00089616       0.00042787
C        8.41180292      11.26280509       7.57598114      -0.00560656      -0.00260282      -0.00121537
C       10.58563857      11.09167185      10.43500721      -0.00426549      -0.00091404      -0.00431129
C       11.80867710      10.20980056      12.21409123       0.00498595       0.00545210      -0.00859508
H        8.85894653      12.68856912       9.15423262      -0.01230007      -0.00304204       0.00084227
H       10.26217238      12.20085747       8.20092311      -0.00989020       0.00261478       0.00168900
H        8.24169350      12.00873873       6.79798784      -0.00490121      -0.00289266      -0.00151196
H        8.85256590      10.37721099       7.12067371      -0.00243732      -0.00141266      -0.00021552
H        7.45345464      10.97433397       8.00481326      -0.00597432      -0.00472024      -0.00386170
H       12.72026696      10.53795366      11.72116450       0.00270173       0.00574192      -0.01265942
H       11.92937107       9.22918582      12.65998309       0.00813672       0.00693822      -0.00659741
H       11.53566170      10.94836549      12.96275016       0.00611076       0.00644612      -0.00920638
O       12.30150727       8.96858312       6.36346658       0.01387055       0.00789361       0.00343181
O       11.92487334       6.88915079       5.93718800       0.01800046       0.00855869       0.00555108
O       10.17136061       8.21200447       6.49516109       0.02716446       0.00572307      -0.01154998
C       11.82646076      10.27504697       6.76505855       0.01249337       0.00738157       0.00018780
C       13.03152944      11.17103727       6.86281135       0.01120535       0.01022859       0.00128195
C       11.34489651       8.04124086       6.28167899       0.00753331       0.00934085       0.00043997
C       11.01235247       5.78210279       5.86565114       0.02082549       0.00783358       0.00165679
H       11.10113523      10.61987414       6.02435252       0.01357138       0.00574726      -0.00112453
H       11.30975164      10.16526553       7.72013657       0.01159495       0.00884584      -0.00053787
H       12.72262539      12.16817883       7.17835447       0.00841612       0.00972705       0.00189934
H       13.74912348      10.79701822       7.59244744       0.01127596       0.01191938       0.00137113
H       13.53892603      11.24919399       5.90088026       0.01132543       0.01197516       0.00192517
H       10.51362853       5.66849940       6.82384337       0.01390448       0.00931944      -0.00212973
H       11.62506000       4.91980571       5.64330784       0.02302264       0.00628987       0.00832569
H       10.28663532       5.92496576       5.06872497       0.02639616       0.00482123      -0.00382066
O        8.28439019      13.12392226       3.48373873       0.00885122       0.00362614      -0.00177865
O       10.40326507      13.36459906       3.07372532       0.00910714      -0.00279434      -0.00089808
O        9.66805829      11.37217963       3.85706209       0.00180568      -0.00126106      -0.00919226
C        7.16402045      12.26728925       3.82284961       0.00567049       0.00718582      -0.00415687
C        5.93737384      13.12978113       3.92807336       0.00901455       0.01184723      -0.00570318
C        9.46840924      12.50921670       3.50469939       0.00658470      -0.00304568      -0.00336659
C       11.71082225      12.76276932       2.93732326       0.00817626      -0.00499344       0.00677606
H        7.05661176      11.51339086       3.04117950       0.00446454       0.00820610      -0.00467351
H        7.38551817      11.74596939       4.75353569       0.00221740       0.00629310      -0.00412577
H        5.07604582      12.49531868       4.13937982       0.00593647       0.01464570      -0.01017170
H        6.04157382      13.86124575       4.72960885       0.00927173       0.00909431      -0.00352870
H        5.75030659      13.65887456       2.99418284       0.01431692       0.01500180      -0.00478132
H       12.00709517      12.29026378       3.87257445       0.00996742       0.01406325       0.01550671
H       12.38725320      13.57569165       2.69349002       0.00680190      -0.00980595      -0.01184810
H       11.71167330      12.02561597       2.14106316       0.00551179      -0.01904219       0.02058995
O        6.61644354       6.07810659       7.91620301       0.00556242       0.00191158       0.00025780
O        5.02832060       7.54729521       8.06725096       0.00083500      -0.00657339       0.00631354
O        7.07339164       8.23134397       7.38759508      -0.00829685      -0.00200951       0.01730669
C        7.99237453       5.76165661       7.57819489       0.00632805       0.00677329       0.00249998
C        8.20341852       4.29899329       7.85236265       0.00674331       0.00423062      -0.00847153
C        6.31585249       7.36976794       7.75479691       0.00632596       0.00644904       0.00529987
C        4.58793193       8.90236008       7.89625874      -0.00589314      -0.00844440       0.01634676
H        8.14721270       5.99517628       6.52951972       0.01005848       0.01539133       0.00538194
H        8.65183604       6.40083115       8.16098663       0.00381470       0.00153139       0.01028317
H        9.20952479       4.00921604       7.55143472       0.00639720       0.00605725      -0.01251157
H        8.09120483       4.07500906       8.91050393       0.00789776      -0.00342894      -0.01029310
H        7.49622868       3.69434050       7.28636757       0.00581284       0.00940198      -0.01208761
H        5.13248718       9.56117739       8.57200492      -0.01245338      -0.01103927       0.02368379
H        3.52928827       8.90120692       8.13221290      -0.00739670      -0.01544661       0.01289901
H        4.74297945       9.23050800       6.86895848      -0.00510587       0.00093562       0.01988918
O       12.04136117       3.69602701       3.60189437       0.01073746      -0.00668025       0.00157756
O       11.14271821       4.93047324       2.09104563       0.00970036      -0.00086689       0.00598049
O       12.07588339       2.97594142       1.46357319      -0.01097754      -0.00766060       0.00305022
C       12.68597755       2.46950692       4.02477307       0.00294466      -0.01173645      -0.00011069
C       12.84214402       2.53468050       5.51997897       0.01303043      -0.00989594      -0.00128722
C       11.77243808       3.80143503       2.31381287       0.00296457      -0.00729114       0.00199682
C       10.78800734       5.20479024       0.72287125       0.00045996      -0.00015500       0.00843695
H       12.05140225       1.63767467       3.72347310      -0.00563350      -0.00704554       0.00625495
H       13.65023380       2.39214279       3.51761932      -0.00111905      -0.02144314      -0.00567484
H       13.36082833       1.64299233       5.87068211       0.00747461      -0.01344690      -0.00239145
H       13.42867186       3.40495387       5.81251130       0.02225213      -0.01471765      -0.00641135
H       11.86861252       2.58088477       6.00790067       0.01688461      -0.00143700       0.00503963
H       11.68477276       5.32012898       0.11406655      -0.00414559      -0.00255301       0.00141267
H       10.24445800       6.14182755       0.76999476       0.00401111       0.00163072       0.01239286
H       10.16211145       4.40380224       0.32868040      -0.00546531       0.00258037       0.01286639
O        9.83652475       8.34680761       1.75734963      -0.00715783       0.01182780      -0.00881249
O       11.63805550       7.93924185       2.87856187      -0.00746745       0.00903830      -0.01445348
O       11.50735961       9.87459609       1.71403523      -0.00883901      -0.01344717      -0.01629147
C        9.00425303       9.26021318       1.00506753      -0.00473443       0.00784341      -0.01359277
C        7.80923322       8.47935014       0.52796931      -0.00898185       0.00989854      -0.00998506
C       11.04066722       8.82958331       2.09027564      -0.00141641       0.01529670      -0.01914337
C       12.97919077       8.30874171       3.25966302      -0.00640830       0.00262901      -0.01858642
H        8.72684185      10.07754655       1.67292919      -0.00324985       0.01297089      -0.01941362
H        9.58619469       9.66938826       0.17997044      -0.00476366       0.00093593      -0.01630130
H        7.11983472       9.14129020       0.00354186      -0.00445842       0.00991079      -0.01705866
H        8.12055928       7.69873448      -0.16534341      -0.01188266       0.00370726      -0.00353971
H        7.26953748       8.01732897       1.35304903      -0.01252397       0.01922061      -0.00786960
H       13.55166890       8.61690758       2.39152593      -0.00546570      -0.00713450      -0.02090293
H       13.40693809       7.42693907       3.72147373      -0.00823261       0.00373337      -0.01163375
H       12.95489444       9.12210243       3.97995515      -0.00001134       0.00822157      -0.02456874
O        3.94938549       2.84205173       8.88470975      -0.00410694      -0.00477199      -0.00452339
O        1.89992845       3.41143625       8.50211229      -0.00485115      -0.00720190      -0.00381599
O        3.20868971       4.82387759       9.69794661      -0.00948538      -0.00949860       0.00387162
C        5.26148873       3.12829503       9.43037669      -0.00503264      -0.00528878      -0.00239542
C        6.13187565       1.95771978       9.06181698      -0.00261533      -0.00285637      -0.00409428
C        3.04385839       3.79741482       9.09038320      -0.00626709      -0.00853473      -0.00176227
C        0.85269928       4.37882638       8.61294291      -0.00733663      -0.01044615       0.00047420
H        5.60956299       4.07090681       9.00906007      -0.00521657      -0.00394046       0.00042471
H        5.16818819       3.25540192      10.51092941      -0.00633848      -0.00859304      -0.00225115
H        7.13040384       2.07414766       9.48047324      -0.00302628      -0.00085112      -0.00388858
H        5.71832782       1.02852546       9.44761278      -0.00049232      -0.00427467      -0.00524846
H        6.22058018       1.88301035       7.97803487      -0.00202196      -0.00133207      -0.00412206
H        0.65177497       4.61047368       9.65819360      -0.00347909      -0.01058560       0.00110254
H       -0.02031422       3.92938343       8.14954088      -0.00755605      -0.01361074       0.00441884
H        1.13475677       5.29306643       8.09298322      -0.01305100      -0.00974834      -0.00131047
O        6.79477374       6.48579691       4.43055680      -0.00011703      -0.00278057       0.00787084
O        5.92419658       4.51028507       4.42932727       0.00004984      -0.00220817       0.01161107
O        8.17127611       4.69919452       4.21267393       0.00082791      -0.00245428       0.00501727
C        7.92669631       7.38590004       4.24505314      -0.00192991      -0.00318760      -0.00239767
C        7.39687992       8.78597422       4.14948250      -0.00279105      -0.00345910       0.00166603
C        7.07725523       5.19781993       4.34669715      -0.00271893      -0.00107974       0.00837147
C        6.08057408       3.08834325       4.36703218      -0.00179997      -0.00177950       0.00747251
H        8.58725027       7.29497206       5.10413912       0.00676194      -0.00339885      -0.00927144
H        8.46317681       7.07465408       3.35042920      -0.01033521      -0.00364262      -0.00735447
H        8.24283829       9.46290436       4.03243923      -0.00460362      -0.00292933      -0.00696110
H        6.71109036       8.90302131       3.31153799      -0.01075472      -0.00484242       0.00817405
H        6.87496457       9.05728942       5.06556608       0.00547665      -0.00325208       0.00627917
H        6.60625299       2.79130496       3.46010063      -0.00741100       0.00069088       0.00356793
H        5.07169378       2.68704919       4.37316971      -0.00133616      -0.00295218       0.01130465
H        6.64118799       2.72707510       5.22920361       0.00336549      -0.00443061       0.00289318
O        6.46427141       0.85758613      12.00281899      -0.00148107      -0.00512986       0.00491929
O        8.56776786       0.70537826      11.52834138      -0.00231701      -0.00655168       0.00392225
O        7.95158625       1.97623530      13.29620754      -0.00104754      -0.00245103       0.00174093
C        5.36387170       1.38684691      12.79306463      -0.00003552      -0.00725108       0.00806284
C        4.08605957       0.92077966      12.14597003      -0.00009495      -0.01253825       0.01327191
C        7.67660230       1.24728800      12.37060417      -0.00185499      -0.00485754       0.00268370
C        9.93511971       1.01871205      11.83671809      -0.00267018      -0.00568132       0.00254606
H        5.46968237       1.01449850      13.81396502       0.00440436      -0.00609495       0.00800633
H        5.44530616       2.47410431      12.82236153      -0.00352968      -0.00703615       0.00665436
H        3.22985893       1.24868506      12.73662279       0.00019678      -0.01728176       0.01562352
H        3.98109015       1.32664940      11.13966865      -0.00614720      -0.01443193       0.01332237
H        4.05554833      -0.16579995      12.07660726       0.00428530      -0.01241407       0.01478761
H       10.08950188       2.09882939      11.81051286      -0.00133489      -0.00613526      -0.00607034
H       10.53166297       0.50502228      11.09078109      -0.00215393      -0.01225668       0.00771508
H       10.17748144       0.63825662      12.83063220      -0.00496090       0.00262092       0.00622821
O        9.98881741       6.20536367      10.18860916       0.00625201       0.00474105       0.00730392
O       11.79406429       6.64398491       9.07420282       0.00879818       0.01152305       0.01508375
O       11.74205257       7.13873759      11.28137571       0.00377047      -0.00610688       0.01743525
C        9.15107560       6.47424577      11.33994238       0.00191122       0.00155297       0.00458008
C        7.91124184       5.62702699      11.24309590       0.00112858       0.00412279      -0.00452542
C       11.22246034       6.71013805      10.28143826       0.00666869       0.00286952       0.01486409
C       13.06109958       7.32374186       8.99366168       0.00990319       0.00969386       0.02315129
H        9.72585847       6.26143943      12.23940307      -0.00305375      -0.00254978       0.00646371
H        8.92184956       7.54216913      11.32785375       0.00330845       0.00166422       0.00696704
H        7.25588621       5.85092908      12.08462195      -0.00485805       0.00511346      -0.00948732
H        7.35501714       5.82911518      10.32941312       0.00959115       0.00654829      -0.00869229
H        8.15607796       4.56417086      11.28618887      -0.00202953       0.00366072      -0.00398768
H       12.90659308       8.39365026       9.13076343       0.01210775       0.00807714       0.03633205
H       13.42504815       7.12946394       7.99151743       0.00992313       0.02122328       0.02095091
H       13.74863892       6.95337847       9.74938577       0.00950092      -0.00082290       0.01814783
O        3.61243552      10.25365904       2.95623002       0.00015241       0.01017414       0.01185399
O        4.17959640       8.69103180       4.34368601      -0.01068865       0.00597285       0.01111656
O        2.09354490       8.66162892       3.47850856       0.00016940      -0.00062713      -0.01734510
C        2.63294894      10.84437723       2.05739596       0.00792521       0.01093951       0.00474751
C        3.26242798      12.05911545       1.43844866       0.01358202       0.00867337       0.00627264
C        3.19200361       9.15517062       3.58151461      -0.00069773       0.00564748       0.00048625
C        3.88886736       7.42876820       4.96876164      -0.01337531       0.00244858       0.00228395
H        2.35661120      10.09908526       1.30925916       0.01065929       0.01000416       0.00498003
H        1.73534366      11.08932897       2.62631314       0.00493208       0.01422007      -0.00143710
H        2.53376916      12.52308096       0.77277748       0.01865318       0.00965165       0.00169377
H        3.53676051      12.78148891       2.20589980       0.01205073       0.00979781       0.00574984
H        4.15487088      11.78941388       0.87151788       0.01538064       0.00556808       0.01083742
H        3.00641380       7.51261036       5.60057227      -0.01671809      -0.00101355      -0.00186002
H        4.76754183       7.18318419       5.54805628      -0.01675907      -0.00079102       0.00585261
H        3.74492452       6.66812581       4.20626494      -0.00999735       0.00687590      -0.00266823
O        3.58582792      11.52734000      10.06190404      -0.01294440       0.00284822       0.00404201
O        4.95815910      12.43111992       8.66058656      -0.01710694      -0.00130888      -0.00223573
O        2.94623670      11.72289731       7.89708084      -0.01853752      -0.00548899       0.00448126
C        2.31387627      10.89736220      10.36769278      -0.01134145       0.00294068       0.00978100
C        2.38882839      10.42490206      11.79210638      -0.00299951      -0.00246780       0.00732797
C        3.74184211      11.88161958       8.79055464      -0.01561719      -0.00148463       0.00325906
C        5.26922319      12.84377407       7.32373558      -0.01978241      -0.00571045      -0.00407833
H        1.52022401      11.63101250      10.22047789      -0.01159692       0.00403920       0.01733478
H        2.16198116      10.07612982       9.66474893      -0.01575016       0.00569543       0.00781298
H        1.46051715       9.91941038      12.05760704      -0.00018527      -0.00624298       0.00941753
H        3.22023067       9.73171271      11.92533417      -0.00053327      -0.00067107       0.00047965
H        2.50069088      11.26811995      12.46942832      -0.00187271      -0.00443670       0.00938496
H        5.25038365      11.98978940       6.64795397      -0.02224394      -0.00753817      -0.00154063
H        6.27044873      13.25814604       7.37754958      -0.01926613      -0.00687902      -0.00772324
H        4.56038426      13.59821172       6.98495802      -0.01963466      -0.00584884      -0.00465751
O        3.31197789       5.39216035       0.85356723      -0.00158793      -0.00782715      -0.01103161
O        5.32308661       4.63932255       0.61917829       0.00099188      -0.00223396      -0.00252048
O        5.01753596       6.56228238       1.78004883      -0.00879875      -0.00293046      -0.00417793
C        2.38238372       6.35184184       1.41249625      -0.00652778      -0.00909364      -0.01790273
C        1.02276046       6.05104469       0.84234663      -0.00408331      -0.01942299      -0.01787788
C        4.59012663       5.62586043       1.15046281      -0.00367400      -0.00416011      -0.00571859
C        6.72949265       4.72245289       0.90489185      -0.00020428       0.00272867       0.00049952
H        2.39592377       6.25768216       2.49842481      -0.00723496      -0.00258086      -0.01751494
H        2.72275197       7.35781914       1.16984794      -0.01114041      -0.00899193      -0.02363889
H        0.28703909       6.70947453       1.30341164      -0.00877064      -0.02071849      -0.02366912
H        1.00134253       6.20810487      -0.23563552      -0.00316867      -0.02662937      -0.01877195
H        0.73834062       5.01897237       1.05320665       0.00107402      -0.01942393      -0.01176758
H        7.10353569       5.71965647       0.68509050      -0.00241961       0.00260964      -0.00359079
H        7.19935650       3.96843883       0.28356684       0.00301156       0.00122216       0.00488497
H        6.91339875       4.50167864       1.95339949      -0.00198517       0.00830335       0.00191560
