186
Lattice="13.368722240568239 0.0 0.0 0.0 13.368722240568239 0.0 0.0 0.0 13.368722240568239" Properties=species:S:1:pos:R:3:forces:R:3 energy=-342645.875 stress="-0.0010548904538154602 -0.0002821950474753976 2.5589947654225398e-05 -0.0002821950474753976 -0.0008236502180807292 -7.688896948820911e-05 2.5589947654225398e-05 -7.688896948820911e-05 -0.00022803018509875983" pbc="T T T"
Nd      13.49562016      11.97774150       1.38683988       0.00599083       0.00700468       0.00119286
P       12.62219856       9.35236073       1.42854014      -0.00773825       0.00384510       0.01890509
O       11.75859800       8.79974868       0.36969843       0.01561481       0.01186585       0.00998116
O       13.94283218      10.14955401       0.73475657       0.01333725      -0.00431995       0.04025421
O       11.96014180      10.83453979       1.92429919      -0.00353026       0.01587522      -0.00151530
O       13.10636803       8.65043221       2.63397824      -0.03545338       0.01259798       0.02889991
C        4.58673772       3.56058289       4.12219969      -0.00530678      -0.00118327      -0.00162912
C        3.25707248       4.30691515       4.11110289      -0.00503147      -0.00091949      -0.00433606
C        4.44682203       2.04219267       4.10052506      -0.00613582      -0.00111663      -0.00153517
C        3.41103565       5.82556294       4.12753707      -0.00514755      -0.00087526      -0.00460637
C        5.78718444       1.31816468       4.13850308      -0.00676024      -0.00211337       0.00079023
C        2.08176026       6.56488509       4.09014442      -0.00538427      -0.00145084      -0.00619376
H        5.18749437       3.87676216       3.26095685      -0.00356016      -0.00176299      -0.00067768
H        5.15840565       3.85289531       5.01038373      -0.00684014      -0.00112523      -0.00075227
H        2.65850874       3.99564090       4.97618635      -0.00671612      -0.00066298      -0.00567448
H        2.68176383       4.01510370       3.22467850      -0.00323060      -0.00097445      -0.00551257
H        3.83466371       1.72700987       4.95320215      -0.00773022      -0.00050767      -0.00252843
H        3.89572046       1.74717258       3.19976164      -0.00473543      -0.00093131      -0.00227720
H        3.97438069       6.11510382       5.02234938      -0.00631958      -0.00056749      -0.00390676
H        4.02858791       6.12989121       3.27523026      -0.00424279      -0.00105801      -0.00376746
H        6.41025026       1.60147914       3.28707477      -0.00514390      -0.00273592       0.00195085
H        5.66592507       0.23336237       4.11500280      -0.00770780      -0.00198537       0.00062078
H        6.34074839       1.56907555       5.04621298      -0.00813906      -0.00260331       0.00172871
H        1.50199128       6.32712765       3.19824083      -0.00508019      -0.00420714      -0.00565834
H        1.46855511       6.30875809       4.95640415      -0.00568332       0.00001884      -0.00623749
H        2.20908639       7.64710101       4.09084627      -0.00642042      -0.00105953      -0.00881866
C        9.37728687      12.37429312      11.98234859       0.00754497      -0.00180757       0.00808527
C        8.19685939      11.41090815      11.92428555       0.00791598      -0.00169951       0.00236314
C       10.70625424      11.64698199      12.14768863       0.00868857      -0.00202370      -0.00503667
C        6.86977426      12.09681581      11.63612340       0.00736940      -0.00085860       0.00790439
C       11.87363827      12.59235013      12.42870008       0.00755080      -0.00354281       0.00224905
C        5.67940492      11.15389113      11.71051015       0.00797725      -0.00129649       0.00935330
H        9.40077070      12.98821906      11.07278087       0.00347858       0.00828959       0.01474306
H        9.22312009      13.07197491      12.81559136       0.01083554      -0.01159960       0.01638195
H        8.13094876      10.87548909      12.87506947       0.00907044      -0.00778759      -0.00093794
H        8.38629668      10.64609966      11.16437696       0.00778016       0.00335887      -0.00263134
H       10.64422902      10.90014370      12.94198036       0.01287573      -0.01109374      -0.01319757
H       10.92607326      11.08299434      11.23617333       0.00727760       0.00970680      -0.01231089
H        6.72814867      12.91058701      12.35075785       0.00931117      -0.00213847       0.00982967
H        6.91278414      12.56592925      10.64611072       0.00461391       0.00107656       0.00858614
H       11.95270777      13.37490475      11.66974947       0.01014358       0.00018865       0.00650212
H       12.83509180      12.04078664      12.41651208       0.00713083      -0.00419286       0.00357378
H       11.72895555      13.11389847      13.40084311       0.00685959      -0.01293397       0.00577766
H        5.78637312      10.32981705      11.00456199       0.00639253      -0.00011966       0.00784880
H        5.58762457      10.72408499      12.70876844       0.01100220      -0.00281257       0.00889185
H        4.74204597      11.66543086      11.48211845       0.00700201      -0.00145736       0.01297374
C       11.61211196       7.44329857       7.50531028      -0.00712824       0.00057723      -0.00716549
C       10.38508904       8.33710954       7.63607384      -0.00697798       0.00082661      -0.00842528
C       11.25598281       6.04883115       7.00747903      -0.00611418       0.00150627      -0.01046231
C       10.67996035       9.74988510       8.12484520      -0.00693476      -0.00088787      -0.00364065
C       12.44452133       5.10396271       6.93601133      -0.00675419       0.00016487      -0.00493800
C        9.41546071      10.58154840       8.28636652      -0.00678229      -0.00052822      -0.00324229
H       12.33124182       7.89673471       6.81433199      -0.00575987       0.00124207      -0.00557870
H       12.11701984       7.36802582       8.47619890      -0.00944335      -0.00060974      -0.00606680
H        9.67476709       7.86657121       8.32441390      -0.00939885      -0.00030668      -0.01137108
H        9.87670152       8.39434714       6.66598083      -0.00492693       0.00362093      -0.00921300
H       10.49025283       5.62375302       7.66483020      -0.01025255       0.00111881      -0.01540086
H       10.79634802       6.14014538       6.01933316      -0.00086427       0.00333193      -0.01256809
H       11.21744280       9.70015545       9.07810400      -0.00851955      -0.00430908      -0.00311175
H       11.35704697      10.24193191       7.41918084      -0.00577512       0.00073062      -0.00152549
H       13.23592342       5.51889787       6.31032769      -0.00315018       0.00024143      -0.00035274
H       12.16905220       4.13412840       6.51747984      -0.00593290       0.00145687      -0.00791039
H       12.86273188       4.93132797       7.92775167      -0.01204806      -0.00137959      -0.00292364
H        8.84810854      10.60754505       7.35520672      -0.00387870       0.00524690      -0.00468107
H        8.76388379      10.15747060       9.05210814      -0.00937200      -0.00454651      -0.00764859
H        9.63571332      11.61246363       8.57207224      -0.00681256      -0.00259581       0.00338608
C        4.16099256       6.31794981       9.29413206       0.00406978       0.00182325       0.00117654
C        5.56132928       6.23477446       9.88330153       0.00317557      -0.00065970       0.00296620
C        3.40376220       5.00833592       9.46082905       0.00154275       0.00288367      -0.00174576
C        6.36029818       7.52395955       9.78329312       0.00576568      -0.00200790       0.00510834
C        2.00156187       5.03305978       8.87985223       0.00230569       0.00595452      -0.00383303
C        7.74560846       7.38962047      10.39548566       0.00516412      -0.00569182       0.00613162
H        3.60248369       7.12827576       9.77784729       0.00465545       0.00210428       0.00129287
H        4.21964964       6.57970111       8.23050468       0.00599163       0.00305752       0.00160265
H        6.11344514       5.42907334       9.38635360       0.00258015      -0.00116727       0.00304624
H        5.48958171       5.94338329      10.93791774       0.00139952      -0.00135463       0.00258654
H        3.98196125       4.20393728       8.99170675       0.00075570       0.00246179      -0.00182226
H        3.35874897       4.76419983      10.52649225      -0.00065622       0.00144345      -0.00212315
H        6.43762415       7.82351031       8.73252913       0.00731347      -0.00067847       0.00571930
H        5.80601326       8.32127284      10.28717603       0.00726259      -0.00148153       0.00582084
H        1.39422656       5.80976984       9.34978970       0.00277594       0.00612277      -0.00359417
H        1.49086682       4.07850036       9.02422778       0.00079078       0.00664002      -0.00585806
H        2.02116405       5.23813272       7.80775400       0.00409940       0.00735145      -0.00345576
H        7.68107152       7.08428274      11.43952428       0.00359084      -0.00865657       0.00493324
H        8.33203121       6.63308279       9.86896376       0.00443156      -0.00538270       0.00447656
H        8.30539437       8.32484346      10.36285227       0.00661743      -0.00678582       0.00930224
C        0.80409038      11.15052248       6.25011070      -0.00302032       0.00041437      -0.00551128
C        0.89307145      11.28758233       7.77019319      -0.00212066       0.00218451      -0.00608471
C        0.94940111      12.48546929       5.52522859       0.00056171      -0.00072825      -0.00640076
C        0.94587029       9.94916674       8.50133752      -0.00129765       0.00375956      -0.00403884
C        0.75702119      12.37336989       4.01232095      -0.00409285      -0.00188428      -0.00524449
C        0.91591534      10.08271525      10.01820442      -0.00064038       0.00798678      -0.00476295
H        1.57625183      10.46193569       5.89326530      -0.00460699      -0.00171794      -0.00533193
H       -0.15149077      10.68835868       5.97910117      -0.00395933       0.00242834      -0.00526037
H        0.02850555      11.85935053       8.13066655      -0.00194934       0.00283892      -0.00657040
H        1.77735825      11.87933670       8.03649676      -0.00210997       0.00273664      -0.00770403
H        0.21705744      13.19945215       5.91554950       0.00480333       0.00280274      -0.00487567
H        1.93492831      12.91357980       5.73259178       0.00312570      -0.00516198      -0.00978750
H        0.10621002       9.33328352       8.17619154      -0.00119722       0.00249557      -0.00234862
H        1.84750149       9.40693968       8.19987179      -0.00103456       0.00400144      -0.00355625
H        1.45200443      11.62695901       3.57799452      -0.01224765      -0.00983902      -0.00437462
H        0.92864579      13.34804236       3.51771144       0.00389156      -0.00478982      -0.00791451
H       -0.26559371      12.02416686       3.78851667      -0.00746231       0.00684477      -0.00257000
H        1.77218588      10.65414521      10.38659198      -0.00217780       0.01180071      -0.00749575
H        0.00862726      10.59526907      10.34704362      -0.00191522       0.00671078      -0.00639714
H        0.93165917       9.11084236      10.51230459       0.00233298       0.00967288      -0.00143594
C        5.20448822      10.42464654       5.74310155       0.00239718       0.00625559      -0.00472222
C        4.40939104      10.22598608       4.45920409      -0.00093693       0.00190654      -0.00185472
C        4.29433641      10.65705799       6.93859674       0.00622529       0.00627519      -0.00176013
C        5.27171912       9.97118595       3.23374493      -0.00463217      -0.00134387      -0.00376846
C        5.01974951      10.89292502       8.25130822       0.01107278       0.00955090      -0.00508294
C        4.46457435       9.73592787       1.96709184      -0.00946280      -0.00421193      -0.00017062
H        5.83570759       9.54627624       5.92542916       0.00530066       0.00857669      -0.00521804
H        5.88975372      11.27232488       5.62550625      -0.00004089       0.00798985      -0.00850233
H        3.78743333      11.11495828       4.28775578      -0.00233985       0.00069591      -0.00289059
H        3.71195345       9.39075721       4.59283143      -0.00015295       0.00174659       0.00243624
H        3.64543541      11.51144726       6.72398656       0.00377767       0.00488895      -0.00057904
H        3.62926492       9.79411541       7.03991569       0.00808454       0.00537401       0.00172468
H        5.95129652      10.81718179       3.09305604      -0.00487959      -0.00198171      -0.00832561
H        5.91287054       9.10581207       3.42206723      -0.00415665      -0.00115010      -0.00369126
H        5.67312933      10.05452110       8.49743215       0.01245483       0.01025745      -0.00569196
H        4.31362869      11.01029669       9.07523664       0.01430507       0.01108853      -0.00238490
H        5.63841099      11.79221230       8.21020509       0.01038212       0.00953047      -0.00954561
H        3.73542262       8.93464627       2.09959599      -0.01072402      -0.00201920       0.00534270
H        3.91018489      10.63383774       1.67729171      -0.00878657      -0.00425214      -0.00132736
H        5.11051602       9.46747140       1.13023737      -0.01339492      -0.00866608      -0.00168782
C        5.56437087       2.71583685      11.98774774      -0.00695577       0.00308812       0.00265943
C        4.63424768       1.51689408      11.82531619      -0.00434354       0.00055075       0.00767890
C        6.97913736       2.33199399      12.41042685      -0.00585982       0.00737149       0.00263598
C        3.21263714       1.88874872      11.41910933      -0.00584351      -0.00345844       0.00945875
C        7.90240097       3.52756687      12.59738881      -0.00973955       0.01042220      -0.00210653
C        2.27901224       0.68851693      11.32870133      -0.00458732      -0.00512201       0.01889230
H        5.60929956       3.27273954      11.04496599      -0.00935613       0.00021614       0.00111952
H        5.14160559       3.40741820      12.72669046      -0.00786625       0.00428386       0.00108230
H        4.60807429       0.95141526      12.76538525      -0.00128093       0.00317775       0.00927863
H        5.05140824       0.83500515      11.07642742      -0.00418538      -0.00065736       0.00880411
H        6.93199981       1.75552131      13.34136848      -0.00385233       0.01016128       0.00425255
H        7.40489174       1.65692365      11.66238284      -0.00503193       0.00619501       0.00419292
H        2.80801370       2.61962972      12.12742714      -0.00488945      -0.00051619       0.00711322
H        3.23861131       2.39194146      10.44923055      -0.00950317      -0.00828256       0.00712001
H        7.97215834       4.11766174      11.68097953      -0.01012260       0.00733259      -0.00346245
H        8.91245138       3.21334373      12.86699549      -0.01016264       0.01712200      -0.00143722
H        7.54013462       4.18874261      13.38730410      -0.00968805       0.01165232      -0.00362095
H        2.65728153      -0.05486179      10.62406608      -0.00507571      -0.00902793       0.02258362
H        2.18312060       0.18796415      12.30507719      -0.00149993       0.00082795       0.02229451
H        1.27935856       0.97729946      10.99863944      -0.00562680      -0.00854442       0.01925628
C        8.09143232       4.02722669       7.61780053      -0.00227526      -0.01106073       0.00071079
C        7.92353890       4.63246455       6.23160629      -0.00190967      -0.00937502       0.00148118
C        9.12182476       2.90723739       7.67661287      -0.00358224      -0.01216473      -0.00052404
C        7.00099727       5.84420303       6.21018319       0.00275493      -0.00588398       0.00380957
C        9.35960147       2.40245437       9.09261435      -0.00084835      -0.01122417      -0.00060761
C        6.95224314       6.51583008       4.84715764       0.00653590      -0.00132942       0.00601220
H        8.38712129       4.81944035       8.31634356      -0.00119433      -0.01222935       0.00145511
H        7.12502690       3.65660464       7.98114343      -0.00276577      -0.01023309       0.00087825
H        7.54986780       3.87252373       5.53578444      -0.00552145      -0.00731766       0.00117093
H        8.90504781       4.92998222       5.85043511      -0.00128597      -0.01274629       0.00067509
H        8.79971628       2.08156852       7.03419913      -0.00564875      -0.01245394       0.00085397
H       10.06389634       3.27046214       7.25522427      -0.00410214      -0.01348552      -0.00271837
H        5.99421833       5.54502594       6.52343563       0.00125790      -0.00287952       0.00193044
H        7.34681713       6.56631401       6.95809315       0.00468981      -0.00946409       0.00628430
H        9.71587884       3.20911439       9.73781964       0.00158711      -0.01120041      -0.00240689
H       10.10082146       1.60205980       9.11859240      -0.00198372      -0.01215339      -0.00169237
H        8.43641016       2.01883110       9.53242106      -0.00038569      -0.00971886       0.00189205
H        7.93423703       6.90414858       4.57345567       0.00836882      -0.00443677       0.00806111
H        6.64894629       5.81225090       4.06947399       0.00431460       0.00251444       0.00336504
H        6.24628317       7.34728213       4.83019056       0.01015407       0.00172296       0.00821036
C        8.64358095       9.92434399       2.13617929       0.00560744      -0.00070775      -0.00123906
C        8.85900783      10.40792457       3.56381657       0.00677546       0.00323549      -0.00291848
C        8.60005052       8.41059966       1.98572983       0.01184572      -0.00104812       0.00222233
C        8.82362783      11.92819965       3.67453721       0.00552536       0.00335583      -0.00694841
C        8.40622635       7.98049860       0.53970033       0.01163889      -0.00433495       0.00326467
C        8.97272068      12.44223232       5.09898869       0.00769164       0.00737429      -0.00864816
H        7.71125491      10.35259498       1.74797623       0.00260979      -0.00557519       0.00009187
H        9.44956510      10.31212533       1.50865616       0.00206894       0.00165503      -0.00408363
H        9.82638112      10.03953517       3.92285079       0.00788945       0.00521088      -0.00360411
H        8.09588591       9.97680373       4.22359995       0.00827858       0.00390901      -0.00088221
H        9.53441823       7.98652451       2.36396656       0.01431474       0.00394663       0.00155038
H        7.79125987       8.00911168       2.60356545       0.01455784      -0.00300359       0.00423874
H        9.61971575      12.34086359       3.04576790       0.00394809       0.00215603      -0.00941283
H        7.88385273      12.30024133       3.25126696       0.00432765       0.00136083      -0.00624052
H        7.49080587       8.41000150       0.12101354       0.01072565      -0.00672212       0.00302886
H        8.33266324       6.89468517       0.45291446       0.01351476      -0.00467131       0.00530810
H        9.25250946       8.30626702      -0.06626597       0.01062131      -0.00396274       0.00219172
H        8.14730708      12.10019647       5.72713443       0.00884292       0.00968791      -0.00649758
H        9.89637552      12.07841460       5.55595415       0.00841109       0.00858611      -0.00920329
H        8.98501199      13.53298221       5.13846217       0.00820942       0.00762597      -0.01202667
