200
Lattice="12.818552041358338 0.0 0.0 0.0 12.818552041358338 0.0 0.0 0.0 12.818552041358338" Properties=species:S:1:pos:R:3:forces:R:3 energy=-952298.75 stress="0.0004410344990901649 0.0003134805301669985 -0.00023710986715741456 0.0003134805301669985 0.0014438038924708962 0.00014717500016558915 -0.00023710986715741456 0.00014717500016558915 0.0013895148877054453" pbc="T T T"
Nd      14.42991692      11.98161824      -0.05710814       0.01002401       0.00014609      -0.00077167
I       10.22339167      11.21790574       6.59455254      -0.00403272      -0.00136241       0.00023716
O        9.17690536      11.64189869       7.98198394      -0.00314270       0.00373499      -0.00058812
O       10.78796283       9.53401765       6.63852451       0.00062945       0.00051245       0.00607728
O        9.43340258      11.55892035       5.02323167      -0.01010388      -0.01145873       0.00110355
O       11.63630827      12.31445601       6.68405674      -0.00459531       0.00053973      -0.00549443
I        6.45846653       8.44949862       7.09162404      -0.00506388      -0.00379843       0.01498827
O        6.89210737       6.81604633       6.46237710      -0.01343319      -0.00483459       0.01061022
O        6.56902069       8.14194223       8.86235768      -0.01628575      -0.01750410       0.01400495
O        7.72955173       9.49674999       6.38393744       0.00552654      -0.01374233       0.01862468
O        4.83629706       8.70610668       6.35930632      -0.00199622       0.00799322       0.01163864
I        1.69535671       9.97380146       9.65309835       0.00404370      -0.00793982      -0.00494462
O        2.64579013      11.29531834       8.82255802       0.00483394      -0.00843436      -0.00453544
O        3.23161373      11.15365766      12.75191491       0.01497900       0.01122275       0.01566371
O        0.71597993      11.02623542      10.84746025       0.01563686      -0.01146418       0.00846594
O        0.41770523       9.56686920       8.45424396      -0.00762540       0.01145150       0.00118822
N        4.42306439       6.22165676       4.43458549       0.00071561       0.00394006      -0.00691789
H        4.93532219       6.18461668       3.55416213       0.00693679       0.01489472      -0.00406159
H        4.76262497       5.43784901       4.98070671      -0.01672341      -0.01449427      -0.02232778
H        4.76051593       7.04415379       4.93343884       0.01004124      -0.01220512       0.01353604
N        0.88030927       3.38841620       3.28474620      -0.00826712       0.01067660       0.00107795
H        1.45543129       4.01298362       2.73065082      -0.00815603       0.01505157       0.00565653
H       -0.06210852       3.37519487       2.89089337      -0.00898891       0.01525227       0.00229693
H        1.26100325       2.46068892       3.13868448      -0.00932212       0.01167375      -0.00796925
N       12.29061446       1.32925465       9.56594819      -0.00889865       0.00769792      -0.01226532
H       12.51546665       0.51122973       9.00740836      -0.01727228       0.01342253      -0.02124653
H       12.66389331       2.15139450       9.08436249      -0.00079866       0.01084714      -0.00037180
H       11.28022024       1.40849499       9.53933022      -0.01032744       0.01920488      -0.01171419
N        8.63574250      10.31632186       1.71624652       0.00736821      -0.00282678       0.00845060
H        8.73624840      11.04106691       2.42064917       0.01500623      -0.01056863       0.01543877
H        9.57440162      10.12763573       1.38161849       0.00550935      -0.00975874       0.00694549
H        8.35913305       9.48407224       2.23704230      -0.00104448      -0.00407358       0.00207845
N        4.82460858       4.35768211       8.30206772      -0.00963648      -0.00275560       0.00668415
H        4.23552493       3.82762285       7.66902994       0.00371714      -0.00544904      -0.00309481
H        5.34701216       3.69369025       8.86278922      -0.00384814      -0.00014287       0.00330582
H        5.47894942       4.89157792       7.73886423      -0.01307008       0.01293553       0.01570366
N        7.77835885      11.68722155      10.76315711      -0.01748869       0.00686808      -0.01297412
H        8.42339217      11.75909211       9.98238186      -0.00413816       0.00948399      -0.00158045
H        8.07380114      10.88508646      11.30838080      -0.02342258       0.00762701      -0.00813013
H        7.92080964      12.50501908      11.35895468      -0.02887785       0.00757518      -0.01033816
N       10.23922721       6.84598374       7.90128615      -0.00249307       0.00152291       0.00087128
H       10.85654205       7.01016058       8.68880471      -0.00063127      -0.00154206       0.00025198
H        9.33492260       6.61804224       8.30287470      -0.00209388       0.00234944       0.00238887
H       10.12966449       7.74664825       7.44230370      -0.00171938       0.00285858       0.00335546
N       11.24847481       6.49222214       1.76751989       0.00031760       0.00857811      -0.00311673
H       11.32161567       7.49560163       1.63152239       0.01236234       0.00637096      -0.01282113
H       11.89226990       6.07356631       1.10657175       0.00699419      -0.00474146       0.01170433
H       11.60964341       6.33460345       2.70582306      -0.01631566       0.01403958       0.00473950
N        9.88983501       3.44850265      11.23048979      -0.00465026      -0.00927545       0.00452635
H       10.49938791       2.69471600      11.51988423       0.00586735      -0.00407922      -0.00324391
H       10.44548749       4.29753558      11.20450425      -0.01602025      -0.00155860       0.01526844
H        9.59993083       3.26302212      10.26842619      -0.00083846      -0.00217061       0.00194326
N       10.49740628       6.63999310      11.30004979       0.00364673      -0.00115265       0.00641006
H       10.25319098       6.53178917      12.27898605       0.00749052       0.00095627       0.00774351
H        9.69824960       6.29276934      10.76771343       0.00141172      -0.00092019       0.00928877
H       10.55546887       7.64273653      11.08864023       0.00439874      -0.00149411       0.00486393
N       12.55003331       0.64376019       4.11731435       0.00534908       0.00072505      -0.00241569
H       13.42232801       0.86528706       4.58899559       0.00782952      -0.00133185      -0.00576218
H       12.01714088       0.11377650       4.80326867       0.00767310       0.00004627      -0.00106081
H       12.05191154       1.51587688       3.97938342       0.00593117       0.00195825       0.00249332
N       10.77730379       3.16136463       2.20607628      -0.00154862       0.01425863      -0.00589060
H       10.45053671       4.09865821       1.98882487      -0.00845774       0.01101211      -0.00921313
H        9.96361740       2.62053958       2.47355651       0.00224677       0.00987381      -0.00250997
H       11.12753938       2.77655152       1.33005373      -0.00202833       0.01213725      -0.00520864
N        0.86087933       7.45631300      11.09208943       0.00407586      -0.00572652       0.00192215
H       -0.08355941       7.08711420      10.99792324       0.00386518      -0.00490053       0.00184152
H        1.25582644       7.06403705      11.93810004       0.00193128      -0.00172679       0.00501138
H        1.43909147       7.11847126      10.31107087       0.00579490      -0.00819429       0.00434493
N        2.85235251       6.93641319       8.83346451       0.00372040      -0.00417854       0.00230478
H        3.52762311       7.68002711       8.98283258       0.01119494      -0.00874972      -0.00902877
H        2.45074615       7.08129638       7.90442670       0.00398971      -0.01244025       0.00077701
H        3.40833831       6.08314952       8.77815022      -0.00393753      -0.01014993       0.01208353
N        2.28292644       0.76372151      10.75277379      -0.00586817      -0.00457087      -0.01852188
H        2.57560021       0.08585052      10.04143801      -0.00526491      -0.00086000      -0.00383719
H        1.45224829       1.22472056      10.38401672       0.00417469      -0.01280992      -0.00078516
H        3.01786126       1.45041477      10.88010814      -0.00319126      -0.00724515      -0.00990759
N        2.50189982       0.49313130       6.43417250       0.00050711      -0.00862671      -0.00691655
H        2.05649966       1.35637133       6.72896952       0.00559726      -0.00573529      -0.00612311
H        3.49589857       0.69566755       6.43554655       0.00142649      -0.01198711      -0.01414766
H        2.34616156      -0.20228708       7.16379315       0.00288827      -0.00615393      -0.00460966
N       12.29028291      12.54325357       1.36579409       0.00901318       0.00592112      -0.00585742
H       12.44833993      12.82891240       2.35320935       0.00705297       0.00115039      -0.00410482
H       11.69541608      11.72094875       1.40071408       0.00421435       0.00930347      -0.01226423
H       11.76847659      13.29087582       0.91609667       0.01546769       0.01127129      -0.00536462
N        5.53257120       1.26999517       9.65527445      -0.00263126      -0.01712434      -0.01253878
H        5.80933394       0.43185093      10.16254570       0.01590440      -0.01118794      -0.01200777
H        6.11276278       1.27039807       8.81624705      -0.00022888      -0.00275739      -0.01036632
H        4.59365425       1.08858951       9.31634834       0.00293443      -0.04118595      -0.01643353
N        2.75249684       8.53509201       2.94812094       0.00933397       0.00025879       0.00195007
H        3.54639856       9.16441076       2.87468123       0.00448014       0.00678459       0.00458532
H        3.10945649       7.67046468       3.35040802       0.01470464       0.00476198       0.00773704
H        2.15379116       8.93858679       3.66858398       0.00192630      -0.00220894      -0.00301999
N       -0.12511493       2.51841152      12.48123957      -0.00016177      -0.00918438      -0.00244351
H       -0.19715907       3.51230368      12.29004955       0.00658126      -0.00894638      -0.00288481
H       -0.15121056       2.05688428      11.56765612       0.00008212      -0.00909824      -0.00221295
H        0.79214694       2.36529460      12.88686753      -0.00168553      -0.01461136       0.00085262
N        7.68342034       1.60005741      12.45199313      -0.02144082       0.00259680      -0.01294791
H        8.33844906       2.37580639      12.36412884      -0.01395759      -0.00451034      -0.02378781
H        7.27459553       1.63584472      13.38063107      -0.00310950       0.00476637      -0.00470215
H        6.94368380       1.78812538      11.78318052      -0.03259334       0.01105477       0.00159112
N       11.62925585       9.49946729       3.39274332       0.00657910       0.00187171       0.00318207
H       12.45108751       9.82010721       3.90546948       0.00090745      -0.00143792       0.01453733
H       11.40222233       8.61058871       3.83636345       0.00314128      -0.00258468      -0.00744619
H       10.87694550      10.12820743       3.66025999       0.00247611      -0.00195502       0.00065861
N        1.56079129       6.86047903       5.90891560       0.00391193      -0.00387097       0.00133214
H        0.94973912       7.55642010       5.49787054       0.01112480       0.01136363       0.01609651
H        1.06252422       5.98074370       5.87272033      -0.00564505       0.00221130      -0.01704111
H        2.37378465       6.76308443       5.30443759       0.00249901       0.00050378      -0.00154805
N        3.32711596       4.55983311       0.99705050       0.00319803       0.00626248      -0.00098661
H        2.93434998       5.46645814       1.22599959      -0.00775933      -0.00039335       0.00777366
H        3.49079407       4.57539047      -0.00273384      -0.00744838       0.01339418      -0.00238544
H        4.24592167       4.56882393       1.42876959       0.00775282       0.01882496      -0.01018254
N       10.64570915       9.48273659      10.10251529       0.00434030       0.00074859       0.00780310
H        9.81484216       9.59750506       9.53259695       0.00101501       0.00139735       0.01190919
H       11.42284769       9.37273604       9.44991976       0.00110394       0.00391966       0.00333589
H       10.81343714      10.37750263      10.54893553       0.00532632      -0.00073573       0.00968495
N        2.76795031      12.03615933       3.26697570      -0.00540317      -0.00360076      -0.00294462
H        2.12373561      11.26783376       3.42484282      -0.00478107      -0.00509749      -0.00745538
H        2.87188832      12.47538819       4.18270292      -0.00413267      -0.01018219       0.00023239
H        3.66463236      11.62682626       3.01104224      -0.00545682      -0.00171437      -0.00667827
N        2.60212478       3.70103471       5.92900386      -0.00610615      -0.00401164      -0.00242037
H        2.87026645       4.67788553       5.87004253      -0.00615825      -0.00298831       0.01537003
H        1.87097089       3.59317222       5.22462576      -0.00243746       0.00561985      -0.00777318
H        3.40742667       3.18358887       5.55918096      -0.00396283      -0.00001153      -0.00361120
N        8.84707732       3.31176533       8.25161512       0.00522792       0.00070961       0.00007495
H        7.87090508       3.06177358       8.14596999       0.00578818       0.00155139      -0.00843826
H        9.34646140       2.96409989       7.43901026       0.00943008       0.00459103       0.00115885
H        8.91078025       4.32369784       8.21581120       0.00554369       0.00109899       0.00504481
N        8.35441019       7.82685272       3.76382257      -0.01359095      -0.00229326       0.00965285
H        8.64940966       8.57690298       4.38361304      -0.00373212      -0.00221314       0.00487521
H        9.19345014       7.40178931       3.38420788      -0.01832478      -0.01287488       0.01051232
H        7.92459452       7.15501789       4.39563301      -0.01831491       0.00547835       0.01497189
N        1.13078827       3.83544200       8.68119842      -0.00099948       0.00105388      -0.00262322
H        1.65179473       3.75361592       7.80222678      -0.00779526      -0.00343717      -0.00631180
H        1.82050382       3.72129667       9.41609536       0.00789239       0.01647549      -0.00840896
H        0.84394957       4.80714195       8.74619729      -0.01059740      -0.00123127      -0.01030613
N        7.23430269      13.71483931       6.79857726       0.00762148       0.01364796      -0.01072754
H        6.87811150      13.10122146       6.06412278       0.00019548       0.00541040      -0.00043571
H        7.88308438      13.14927077       7.34264849       0.00809917       0.01773348      -0.00718881
H        7.80138225      14.40011874       6.30840569       0.00701937       0.00595760      -0.02242890
N        1.34990213      10.10116835       5.55299432      -0.00320632       0.00007758       0.00327341
H        2.32357247       9.94220285       5.80264929      -0.00591138      -0.01331502       0.00572869
H        1.21755087      11.10414224       5.65164712       0.01334000       0.00320536      -0.00503968
H        0.82396038       9.70958746       6.33541891      -0.01037981       0.01560578       0.00645273
N        5.76337049      10.71032610       8.11780643       0.01722284      -0.01215488      -0.00007109
H        6.32284499      10.91211940       8.94524551       0.02237507       0.00178757      -0.00588876
H        4.77712691      10.70207217       8.37842081       0.01790617      -0.00242077       0.00086870
H        5.90833305      11.46778915       7.46139983       0.02159684      -0.02826403      -0.01870610
N       11.31692101       6.22473591       4.92409901      -0.00560488      -0.01394962      -0.00656756
H       11.30282632       6.48173385       5.91228103      -0.00667387      -0.00451694      -0.00906140
H       11.95072752       5.43631357       4.83904950       0.00161900      -0.00895534      -0.00056764
H       10.39117732       5.83733850       4.77325085      -0.00200103      -0.02475128      -0.00133706
N        2.86317698       1.29433345       1.10263516       0.00445586       0.00789636      -0.00349140
H        2.77924620       2.30344470       1.22186783       0.00915035       0.00909856      -0.00658673
H        3.80301961       1.12666142       0.75437895       0.00535510       0.00284745       0.00012044
H        2.82417833       0.84043634       2.02246310       0.00052955       0.01137480      -0.00268758
N        5.86510902       7.01742165       1.76509837      -0.00198017       0.00536087      -0.00713305
H        6.26108066       7.04044218       0.82783642       0.00616348       0.00699607      -0.00378919
H        6.56468267       7.43262162       2.38135077      -0.00858109       0.00846214      -0.00167693
H        5.06821280       7.64361565       1.75188093      -0.00497171       0.00179604      -0.01464512
N        5.48577518      10.74062456       1.69581994       0.01283874       0.00765359       0.00766951
H        4.70203377      10.74640218       1.03345626       0.01466212       0.00938575       0.00515042
H        5.94350209       9.83843610       1.63448370       0.00362819       0.00227672       0.01888051
H        6.17059175      11.39492800       1.33190869       0.02095003      -0.00235444       0.00500968
N        7.45000753       1.20748647       2.90725440       0.00677862      -0.00416630       0.00307435
H        7.07980993       0.50715869       3.54531642       0.00827624      -0.00689054       0.00042539
H        7.81462012       1.95321748       3.49679929       0.00595712      -0.00625807       0.00604156
H        8.23847162       0.77548114       2.43867621       0.00731583      -0.00212242       0.00142230
N        6.08633235      11.55648191       4.66022310      -0.00981482      -0.01261486       0.01609524
H        5.43332111      10.98815408       5.19294188      -0.01269864      -0.02628439      -0.00156185
H        6.99868092      11.15318883       4.86854371      -0.01008761      -0.01421748       0.01488759
H        5.88413374      11.32506808       3.68368620      -0.00123110       0.00565743       0.00969417
N        5.19127574       2.33156451       4.97476254      -0.00364980      -0.00209282      -0.00158367
H        5.19384420       1.42844381       4.51084750      -0.00629529      -0.00104314      -0.00378621
H        5.65985189       2.17314289       5.86288351      -0.00158883      -0.00507602      -0.00298156
H        5.82405884       2.91407104       4.43691232      -0.00305070      -0.00246960      -0.00143413
N        7.72717135       5.59395020      10.06134116       0.00308778       0.00029150       0.00983169
H        7.35797923       6.12614199      10.84358228       0.00790240      -0.00891232       0.01801610
H        7.68357808       4.61316205      10.30943606      -0.01151751      -0.00406313      -0.00773521
H        7.10103974       5.77734018       9.28563648       0.00752357       0.02285235       0.01139814
N        0.67758765       9.62605506       0.85569599       0.00814436       0.00189933       0.00540915
H        1.44147487       9.12808952       1.32154555       0.00838616      -0.00263185       0.00024788
H        0.46903511       9.13519961      -0.01253227      -0.00122834       0.00306381       0.00698076
H       -0.12281996       9.54598660       1.48794566       0.01193576       0.00763419       0.01131243
N        7.43226848       8.17000840      11.89007310       0.00083970       0.00506896       0.00186630
H        7.04295333       9.01622492      12.29067594       0.00128193       0.00249641       0.00809826
H        7.45364231       8.30441463      10.88246732      -0.01905603       0.00257685       0.00096284
H        8.39925609       8.12456148      12.19098061       0.00684214       0.01275853      -0.01606227
N        4.47516617       9.19358599      10.70425609      -0.00152272       0.00882319       0.00733379
H        4.62489136      10.09382613      11.14715466      -0.00723599       0.00304863       0.02130786
H        5.29437002       8.93593795      10.15897412       0.00301555       0.01698306       0.00992015
H        4.39074457       8.52129961      11.45638980      -0.00528865      -0.00300470      -0.00376990
N       11.28492349       2.75264191       6.36901718       0.00880356       0.00522919      -0.00524672
H       11.40613033       1.77275100       6.61613248       0.00477428       0.00410207      -0.00796592
H       11.58130379       3.29344523       7.17543355       0.00694105       0.00104287      -0.00163829
H       11.96329421       2.94618659       5.64102901       0.01315462       0.00570679      -0.00142281
N        8.53487658       3.91195317       4.73761342      -0.00751413      -0.00425085       0.00827109
H        8.75974927       4.41411033       3.88659519      -0.02094752      -0.00327794       0.00510284
H        9.41550835       3.61767709       5.15873797      -0.00088435       0.00355249      -0.00009182
H        8.12090584       4.58947086       5.37147081      -0.00730213      -0.00710467       0.01156732
