200
Lattice="17.618590769207735 0.0 0.0 0.0 17.618590769207735 0.0 0.0 0.0 17.618590769207735" Properties=species:S:1:pos:R:3:forces:R:3 energy=-1703893.875 stress="-0.0006838671979494393 -0.00011480529065011069 0.00023631651856703684 -0.00011480529065011069 -0.0015755625208839774 0.00010715198368416168 0.00023631651856703684 0.00010715198368416168 -0.0013223704881966114" pbc="T T T"
Nd      17.01752318      15.67432279      -1.06739409       0.00338266       0.00556853      -0.00543950
S       12.09370492      17.15391661      12.81953412       0.00877535       0.00611019       0.01217163
F       11.84587080      18.30533528      15.18825815      -0.03707272       0.01430368       0.00277650
F       10.75857918      16.43872250      14.99077840      -0.00345609      -0.00425273       0.00092781
F        9.99944888      18.23790155      14.05204993      -0.02018219      -0.02083379      -0.01867999
O       11.26437991      16.15836600      12.17233150       0.02111077       0.00543439      -0.00287366
O       13.35165113      16.67414763      13.37056564       0.00171638       0.00745118       0.02872646
O       12.18385667      18.42352521      12.12830944       0.01409317       0.00790715       0.01709652
C       11.11582099      17.55679866      14.33250816      -0.01369476      -0.00225163      -0.00120759
S       13.80174654      15.27168736       4.30465001       0.02876765       0.00018740      -0.01388544
F       11.96544769      17.16124857       4.16381573      -0.00245214      -0.01746351      -0.00826114
F       14.00703132      17.88435541       4.02988010      -0.00386500      -0.00874633      -0.01114205
F       13.19881466      17.25861825       5.94426588       0.00078928      -0.00712991      -0.00859416
O       15.18862576      15.27956244       4.74935701       0.00172234       0.00141650      -0.00895351
O       13.66428832      15.17140552       2.84820449       0.01580851      -0.00820470       0.00106215
O       12.90810600      14.41744873       5.04142164       0.01830554      -0.01738811      -0.00219929
C       13.19893965      16.98926804       4.63343358       0.00216728      -0.01356483      -0.00963280
S        6.80562064      16.75231531       5.52289598      -0.01211703       0.00293231       0.01062655
F        9.20285387      16.43973457       6.59396455      -0.00053489      -0.01567221      -0.00318030
F        8.48296049      14.71076564       5.49443857      -0.02450830      -0.00031435      -0.00474185
F        7.66189210      15.17208388       7.44913861      -0.00909701      -0.00543636       0.00245571
O        5.73167731      15.77588946       5.32599693      -0.01339197       0.00595927       0.00801584
O        7.40852351      17.24262097       4.30715621      -0.00976098       0.00375080       0.01021123
O        6.51401950      17.74345476       6.54517767      -0.01049435       0.00087500       0.01075220
C        8.12025199      15.71650635       6.30086328      -0.01154184      -0.00211787       0.00317931
Cl       8.72272055       4.10348307      14.75044309       0.00069466       0.00904062       0.00887716
Cl      10.39448843       3.82876202      12.38097940      -0.00060391      -0.01242423       0.01146853
Cl       8.37818238       5.95525560      12.52113383       0.00873896      -0.00299327      -0.00179008
C        9.53724675       4.94642410      13.41859441       0.00414170      -0.00240308       0.00407654
H       10.25955490       5.62621735      13.85304808       0.00675288      -0.00284123      -0.00008564
Cl       6.48091229      12.98904027       2.24614398      -0.00960925       0.02378777      -0.01576421
Cl       3.64476738      12.80804471       1.54584594      -0.01105592       0.00035343      -0.00168343
Cl       5.29009422      10.39438176       1.57111957       0.00756301       0.01283300       0.00056100
C        5.03844369      11.99429954       2.30228192      -0.00152744       0.01360082      -0.00528608
H        4.78125703      11.82060288       3.33878510       0.00400433       0.01616888      -0.00371587
Cl      11.44517347       7.75591322      11.11122617       0.01090482       0.00668782      -0.00311102
Cl       8.92167884       8.62217031       9.93177478       0.00320441      -0.00535156       0.00604735
Cl       9.94454062       9.93053265      12.33459893       0.00846179       0.00156358      -0.00037277
C       10.36608442       9.11685392      10.81893040       0.00479950       0.00188799      -0.00097391
H       10.89478803       9.83235099      10.20315988      -0.00118646       0.00323948      -0.00442828
Cl       4.59368092       3.75301107      17.62844538      -0.00729588       0.00417317      -0.00262089
Cl       3.50236591       4.59478841      15.05940148      -0.00004824       0.00327828      -0.00564289
Cl       1.83412438       3.08446841      16.91536952       0.00081214      -0.01058958      -0.01702485
C        3.14910483       4.27653169      16.76479989      -0.00625476      -0.00282763      -0.00843272
H        2.79468203       5.19872105      17.20987984      -0.01378557      -0.00608766      -0.00822783
Cl       2.13524728      12.65600564       7.58391225       0.00846706      -0.01043253       0.00210580
Cl       2.72743723      11.80419437       4.86505751       0.00129069      -0.01243015       0.00148855
Cl       4.68798171      13.34236113       6.33547039       0.00177145      -0.00575203      -0.00619322
C        3.42611251      12.14610100       6.47665134       0.00551590      -0.00870726      -0.00125697
H        3.82803122      11.21248659       6.85014515       0.00871777      -0.00718221      -0.00152332
Cl       8.60979578      11.33840200      17.14711608       0.00990367      -0.02232030       0.00910922
Cl       7.92552190       9.47463316      15.00445252       0.00990793       0.00047468       0.00157747
Cl       8.12094769       8.52284080      17.75243354      -0.00537959      -0.01740637      -0.00050287
C        7.69823900       9.89291575      16.70620902       0.00630414      -0.01004126       0.00348873
H        6.64921596      10.10800851      16.86586199       0.00844592      -0.00295781       0.00118093
Cl       0.45653326       6.75992618      15.67752135      -0.00128670       0.00862413      -0.01590911
Cl      -0.07534100       5.23275396      13.24321180      -0.01487017       0.00544208      -0.01039817
Cl      -0.34357763       8.13764820      13.23598399      -0.00491676       0.00535950      -0.01641807
C        0.53228793       6.75641513      13.90093186      -0.00746130       0.00454873      -0.01595627
H        1.57529193       6.85087623      13.62274126      -0.00818184       0.00016511      -0.01942639
Cl      15.07249921      17.00431683       0.54064704       0.01923999      -0.00244015      -0.01130240
Cl      12.19270314      16.45626162       0.22783956       0.01702994       0.03694177       0.01085017
Cl      14.14627352      15.06468183      -1.45203295       0.01172206       0.01906750       0.00096783
C       13.75165751      15.77278317       0.17808047       0.00425732       0.00727901       0.00284603
H       13.88928965      15.01635117       0.94682318       0.00183287       0.01257785       0.01120418
Cl       0.35890569      15.97734819       3.96098976       0.00098544      -0.01416659      -0.00342278
Cl       3.24687234      15.65962173       3.95775789       0.00278410       0.00131516      -0.00669489
Cl       1.01809592      17.28480342      -0.02744290       0.01321042      -0.00421937      -0.00478996
C        1.87764876      16.44121363       3.52582705      -0.00225674      -0.00721295      -0.00536263
H        1.97497023      17.33455899       2.91790790      -0.00628486      -0.00511545      -0.00340831
Cl      15.61551122       5.79998446       7.84038985       0.00011864      -0.01178515      -0.00440201
Cl      14.52298032       6.38175536      10.47039338       0.01054165       0.01520038      -0.00738242
Cl      12.72368517       5.80345606       8.23476521       0.00203663       0.00078066       0.00376830
C       14.29173232       5.47384947       8.97132812       0.00286188       0.00261895       0.00213987
H       14.32406239       4.41828953       9.20798938       0.00024577       0.00492570       0.01139298
Cl       4.44521142      -0.79573114      13.77275601      -0.00597185       0.00672103       0.00905497
Cl       6.12483982       1.51476789      14.38837842      -0.00205688       0.00530988       0.00121874
Cl       4.99649757      -0.10186311      16.55015855       0.00672697       0.00654696       0.00589848
C        5.63697751      -0.09614717      14.89477464      -0.00062600       0.00579967       0.00363207
H        6.51192806      -0.73435147      14.87158562      -0.00118393       0.00541371      -0.00005291
Cl      -0.32082776       8.18379514       6.21758604      -0.00742549      -0.00722432      -0.00469454
Cl       2.47763720       8.62744969       6.91237548      -0.01306534      -0.01074246       0.01594476
Cl       1.71828873       8.16441904       4.13174967       0.00761354      -0.00853273       0.01086582
C        1.20673107       8.85018354       5.67482241      -0.00296968      -0.00846461       0.00752245
H        1.09834794       9.91876854       5.54362598      -0.00059873      -0.00854176       0.00678936
Cl       2.91585235       4.89585154       6.16874906      -0.00762729      -0.00055699      -0.00679216
Cl       5.82888448       5.01277161       6.03650708      -0.00995517       0.01744817      -0.00763861
Cl       4.24922454       5.65820680       3.67821549      -0.01192162      -0.02319206      -0.01509571
C        4.31169826       5.70428786       5.44804767      -0.01366218       0.00072138      -0.01601220
H        4.26218023       6.74335630       5.75671055      -0.02067297       0.00418982      -0.02906054
Cl      16.60036747      11.85703033       5.12103784      -0.00912936       0.00444093       0.01365590
Cl      14.77013400      12.47740843       3.00886188       0.01506919      -0.00988875      -0.00372419
Cl      17.01502411      13.84234714       0.62684673      -0.00505719      -0.00124947      -0.01221683
C       16.22116490      11.95158138       3.51615387       0.01078448      -0.00801448       0.00979807
H       16.97797844      11.68965661       2.78646024       0.01745194      -0.00988048       0.01739973
Cl       2.58589514       9.30055386      10.32976777      -0.00027673       0.00465192       0.01390011
Cl       2.83246019      11.99303989      11.43139067       0.00267424       0.00211889       0.01720584
Cl       3.15775876       9.66292161      13.16392533       0.00713456      -0.00068238       0.01243749
C        3.38876860      10.30295001      11.53567945       0.00302106       0.00234764       0.01342481
H        4.45043067      10.30688370      11.31931711       0.00225997       0.00286861       0.01065324
Cl       4.31598718      16.19479053       8.35063430       0.00839059      -0.00829482       0.01204973
Cl       5.35549508      15.09986425      10.81800990      -0.00050053      -0.00891539       0.01552051
Cl       2.47317795      15.45845345      10.52251939       0.00097105      -0.01025061       0.00274573
C        4.00079885      15.10319433       9.66890416       0.00444119      -0.00931057       0.00984314
H        3.89540786      14.09855650       9.27544035       0.00740374      -0.00925809       0.00932557
Cl      16.48941266      11.83278551       8.79125747       0.00380254       0.01627082      -0.00498956
Cl      16.29740798      11.21915092      11.63239445       0.00141296       0.01261325      -0.00647753
Cl      16.57232166       9.05563403       9.70518347       0.00799650       0.01562363      -0.00862441
C       16.99078485      10.72099075      10.08205495       0.00417577       0.01558875      -0.00592326
H       18.06775384      10.78946316      10.16248981       0.00387627       0.01742576      -0.00441213
Cl       7.37815168       2.82174515      10.54018595      -0.00391290      -0.00435024      -0.00660577
Cl       9.58313037       1.78043477       8.93932720       0.00086957       0.00212356      -0.00355735
Cl       8.36416105       0.11643163      10.99285378      -0.00454733      -0.00505310      -0.01325071
C        8.09692761       1.36013376       9.78047554      -0.00131549      -0.00104115      -0.00952879
H        7.38435358       0.99710615       9.04982467       0.00111845       0.00155997      -0.01291874
Cl       7.34569026       7.75690361       3.72722446      -0.01093255       0.00462693       0.00476909
Cl       8.18302860       8.16931047       6.49842817       0.00903273       0.00946930      -0.00267503
Cl       6.51796938      10.16253714       5.17456085      -0.01007112       0.00085723       0.00950005
C        6.92041247       8.43475197       5.29695884      -0.00139046       0.00309816       0.00752685
H        6.02974869       7.92675387       5.64333937       0.00415319      -0.00088526       0.01551860
Cl       2.41304124       2.42767055       2.65711589      -0.01060331      -0.02991338      -0.01941419
Cl       2.71664841       1.30453793       5.32261750      -0.02018340      -0.00042218      -0.00476807
Cl       4.97942880       1.27146053       3.47514223      -0.00660563       0.00576669       0.01231554
C        3.55919377       2.14036431       3.99515072      -0.01989110      -0.00555727      -0.00728584
H        3.85940438       3.10758971       4.37330516      -0.03183943       0.00096360      -0.01636562
Cl      13.51033509       2.02915225       9.53958743      -0.00234845      -0.00443952      -0.00199214
Cl      16.19748206       2.69531895      10.44900795       0.00010833      -0.00009309      -0.01506399
Cl      13.94863719       3.27212824      12.15595155       0.00534683       0.01818529      -0.01564828
C       14.55811371       2.15659579      10.95399053       0.00127615       0.00630469      -0.00615600
H       14.63591874       1.17066137      11.39716644       0.00095659       0.01028851       0.00244245
Cl       9.71935848      10.35601722       3.88499771      -0.01157898       0.03687679       0.00574172
Cl      11.51384052      12.35519088       2.78130190       0.01698812      -0.00146419      -0.02429582
Cl      12.59440374      10.01191758       4.16583972      -0.01411524      -0.00589278      -0.02032590
C       11.28187402      10.64016643       3.13301518      -0.01456474       0.00366348      -0.01044048
H       11.32375723      10.09430428       2.19996262      -0.03577959      -0.00609699      -0.00551599
Cl       4.59534593       5.19552389      11.95615499       0.00737052      -0.00406878       0.00034681
Cl       4.27619120       6.12098926       9.21523746       0.00106645       0.00298997       0.00398184
Cl       5.77775683       7.72934486      11.13808115       0.00000835       0.00068033       0.00617848
C        5.34003254       6.10036190      10.62952026       0.00306264       0.00147097       0.00200937
H        6.25209597       5.58316905      10.35087551       0.00380948       0.00470303      -0.00060059
Cl      11.59881158      11.71044050      15.24013687      -0.00154513      -0.00966136      -0.00527257
Cl      11.79680495      13.61326724      13.05643928       0.00478458       0.00240266       0.00505987
Cl      14.20774285      12.31828583      14.05613500       0.00281212       0.00653344       0.01103537
C       12.44219398      12.15695581      13.74774082       0.00536194       0.00120123       0.00201456
H       12.33441910      11.32962297      13.05822282       0.01171556       0.00417769      -0.00230074
Cl      11.13727190      10.99190310       7.61158254       0.00890011      -0.01220193      -0.00942165
Cl      13.05778397      11.19915078       9.80405432       0.00990369      -0.00831113      -0.01132280
Cl      13.61501121       9.46290303       7.53807417       0.02018230       0.00787532      -0.02165371
C       12.84735115      10.96847043       8.06091287       0.00925237      -0.00156223      -0.01174823
H       13.33216359      11.80148167       7.56619489       0.00237615       0.00418204      -0.00824098
Cl      18.00811766       9.70853118       0.91652075       0.00653613       0.00266555       0.00419325
Cl      17.48311757       6.85101791       1.28321656       0.02347454      -0.00198235      -0.00490699
Cl      15.87331476       8.80013375       2.70218379       0.00777122      -0.01651071      -0.00573365
C       16.77380059       8.46955889       1.21974764       0.01432052      -0.00626636      -0.00367339
H       16.08062277       8.50487321       0.38627793       0.01750685      -0.00848777      -0.00628160
Cl      14.65641323       5.31422704      16.54421963      -0.00983459       0.00987633       0.02195955
Cl      13.10267973       5.84266202      14.12387858       0.00807619       0.00232296       0.00913626
Cl      12.64941620       3.39816171      15.63529697       0.00714021       0.00103486       0.00597753
C       13.08529002       5.08871149      15.72902962      -0.00152271       0.00268063       0.00885245
H       12.34327849       5.61370590      16.31906211      -0.00829846      -0.00042799       0.00266871
Cl      11.61679979       8.36504604      16.56625176       0.00840431      -0.00189563       0.01515586
Cl      14.27976539       8.94333913      15.47098628       0.00513716       0.00263099       0.01092774
Cl      13.43970588      10.15488969      17.97715133       0.00243046       0.00935709       0.00643021
C       13.31109814       8.73021145      16.92420989       0.00730086       0.00534903       0.01275346
H       13.71011890       7.88008316      17.46766575       0.01014882       0.00872289       0.01535495
Cl      16.14793938       0.77153788       6.80264146      -0.00495008      -0.02754864       0.01776314
Cl      16.44316596      -0.63584265       9.35506736       0.01296821      -0.01686588       0.01920846
Cl      18.63583647      -0.61750558       7.46163089       0.00401136      -0.01334113       0.00771269
C       17.25272034       0.29899741       8.08781766       0.00400154      -0.01778941       0.01283087
H       17.64174386       1.19891505       8.54455788       0.00289623      -0.01517409       0.00798057
Cl      13.96253481       3.46471181       4.96197167       0.00409018      -0.00596872       0.00682083
Cl      13.80062736       6.34521551       4.49747472      -0.01003644      -0.00828230       0.00124153
Cl      16.39193719       4.98459276       4.38399471      -0.00608063       0.00210208      -0.01002333
C       14.64571865       4.83815388       4.09466489      -0.00614823      -0.00554392      -0.00049847
H       14.51408758       4.66992616       3.03311586      -0.01204657      -0.00886178       0.00097543
Cl       2.25175646      14.43108595      16.03995767       0.00169517       0.00221208      -0.00098135
Cl       4.24893214      12.39553995      15.47407767       0.00347620       0.00734324      -0.00581375
Cl       1.44792683      11.61446350      15.79178696       0.00805047      -0.00000145       0.01020453
C        2.57720858      12.81959365      15.21387503       0.00069714       0.00278971       0.00170410
H        2.41633159      12.98959282      14.15364939      -0.00482680      -0.00143939       0.00229687
Cl       6.76085966      11.67780246      11.50969031       0.01437211       0.00475776       0.00296307
Cl       8.36210222      12.28448200       9.14860446       0.01355198      -0.00749551      -0.00146925
Cl       5.88726383      10.75260087       8.88960689       0.00564527       0.00551096       0.00737076
C        6.74583240      12.04072904       9.77124918       0.01377860       0.00204971       0.00290247
H        6.18578148      12.95775388       9.63457432       0.01878057       0.00468048       0.00227231
Cl       0.45649117      -1.09925934      13.82781435       0.00203922       0.01762164      -0.00190000
Cl       0.89694598       1.65136148      12.93794102      -0.00510532       0.01439782      -0.00543918
Cl      -1.13382492       1.03449842      14.96947052      -0.00868514      -0.01117293       0.01441894
C        0.46985210       0.68275804      14.28821405       0.00032321       0.01739025       0.00012235
H        1.20397853       0.76041198      15.08772371       0.00992994       0.00624035      -0.00564547
Cl       4.04533693       1.27860448      10.90700692      -0.01595217       0.00120825       0.00344887
Cl       4.79614516       1.95787858       8.17027850      -0.01788279      -0.00200647       0.00282753
Cl       2.22592489       2.84856096       9.24903699      -0.01235324       0.00782806       0.00588205
C        3.93852294       2.46723111       9.60382861      -0.01358245       0.00150827       0.00354506
H        4.38259060       3.38329222       9.96827453      -0.00982818      -0.00048637       0.00347692
Cl      11.83499144      14.62020112       9.27979089      -0.01224732      -0.00535613      -0.00021071
Cl      14.36989145      14.52643922      10.75059811      -0.01279444       0.00862160      -0.00082016
Cl      14.35341915      14.52748371       7.83111571      -0.01188445       0.00861198      -0.00033438
C       13.53401968      15.08904825       9.29186795      -0.01506591       0.00426140      -0.00048497
H       13.57863903      16.17002116       9.29438101      -0.02089991       0.00427365      -0.00125693
