200
Lattice="13.309884789632065 0.0 0.0 0.0 13.309884789632065 0.0 0.0 0.0 13.309884789632065" Properties=species:S:1:pos:R:3:forces:R:3 energy=-1312153.125 stress="-0.004704780410975218 0.0012103685294277966 -0.0011811283184215426 0.0012103685294277966 -0.005483538843691349 -0.0007320237054955214 -0.0011811283184215426 -0.0007320237054955214 -0.00528896227478981" pbc="T T T"
No      14.28478342      12.76978692       1.54911383       0.01543291      -0.01711226       0.00778316
O       11.52304471       7.79734567       5.00597246       0.00756049      -0.00202930      -0.00135994
O        9.82019080       7.28797440       2.90966565       0.00530162       0.02099079      -0.00056651
O        9.07481056       8.56428936       5.28103401       0.02777219       0.06430101      -0.02156305
O        9.65325185       5.95396673       5.30328741      -0.03135455       0.04698038       0.01361120
Cr      10.00691258       7.41003988       4.68946761      -0.00024298       0.02975753      -0.00386500
Cr       9.14898772       8.31973110       1.66244429       0.01285720       0.01146537      -0.01525813
O        8.13595453       7.48563358       0.73408676       0.03024554      -0.00154245      -0.02107346
O        8.39627164       9.51636857       2.40571435      -0.00493324       0.01080441      -0.03203535
O       10.34917605       8.91738295       0.73257934       0.01839662       0.01319075      -0.00237417
O        1.23879309       2.22228474      13.24193010      -0.01902151      -0.06196924       0.01101008
O        0.46019406       2.65109375      11.20728077       0.00231093      -0.00808150       0.01497636
O       -0.21322187       3.92027553      12.94228345      -0.01173279      -0.04595006       0.04035667
C        2.07570026       1.47025048      12.33634510      -0.00768685      -0.03231705      -0.00327256
C        1.25415873       1.45449722      11.06471497      -0.00220376      -0.00945807      -0.00502211
C        0.43451112       3.02819395      12.49229765      -0.00603741      -0.04467481       0.01982488
H        2.26008048       0.48319604      12.76353915       0.00073193      -0.03833593      -0.02454144
H        3.03326358       1.97588527      12.22882624      -0.01192930      -0.02070209       0.01286597
H        1.83579015       1.52558027      10.15373460       0.00123289       0.00771087      -0.00108093
H        0.58174336       0.59374440      11.00978898      -0.00548986      -0.00501281      -0.02355256
O        3.38418918       1.69304429       1.50598356      -0.00192100      -0.02575552       0.00214934
O        3.82005526       1.00594808       3.55463880       0.02116130       0.00404625       0.00676751
O        1.69496802       1.35965197       2.93610219       0.01316699      -0.03123521       0.01601755
C        4.75895080       1.18831218       1.42885373       0.00792754       0.00353722      -0.00064975
C        5.12317137       1.01606073       2.88957593       0.01604247       0.00985687      -0.00195929
C        2.90470431       1.38232408       2.70220240       0.01207444      -0.01892221       0.00809473
H        5.36827138       1.91899297       0.91142879      -0.00898814       0.01771563       0.00023349
H        4.72587523       0.25296313       0.87856423       0.02495359       0.00397760      -0.00082608
H        5.59257817       0.06973934       3.11246687       0.02111787       0.01216722      -0.00497246
H        5.67627514       1.85494564       3.28409042       0.01501270       0.01286262      -0.00758797
O        7.73515634       5.27937063       2.57831144      -0.01152056       0.01226529      -0.00072852
O        7.40904780       3.33070605       1.56771336       0.01105717       0.00608817       0.00527368
O        5.81754670       4.90366209       1.46633945      -0.00558853      -0.01244825       0.00005978
C        9.01927486       4.61871264       2.63044917      -0.00558960       0.02539963       0.00687983
C        8.68017212       3.19703223       2.23453973       0.01225035       0.02202314       0.00521877
C        6.90341921       4.55686592       1.84638264      -0.00293601       0.00043663       0.00082648
H        9.41642844       4.74141813       3.63685688      -0.01368842       0.02797947       0.00903052
H        9.67295821       5.12157797       1.92011208      -0.00639686       0.03235278       0.01202568
H        9.38481645       2.76501609       1.53442593       0.01853201       0.03263363       0.00534099
H        8.55444748       2.51330967       3.07366347       0.02059436       0.02086848       0.00495073
O        9.73059335       1.30535632      12.02217833      -0.02038592       0.00062397      -0.00657146
O        8.89324178       3.35591044      12.15017974      -0.01884818       0.00068999      -0.00414867
O        7.50456500       1.58238754      12.08927568      -0.01958120       0.00263953      -0.01039820
C       10.87790380       2.16138164      12.14261979      -0.01973021       0.00004593      -0.01247345
C       10.30813454       3.55426130      11.92200440      -0.01966029       0.00047195      -0.00595504
C        8.60159761       2.05348217      12.09697917      -0.01904327       0.00081313      -0.00697405
H       11.59912512       1.87341154      11.38533692      -0.02394205       0.00144140      -0.01692289
H       11.30437005       2.04159135      13.14103385      -0.01413440      -0.00122408      -0.01531756
H       10.67978610       4.28471411      12.63171304      -0.01784873      -0.00362447      -0.00274035
H       10.43737028       3.91463845      10.90304993      -0.02424302       0.00529584      -0.00434083
O       10.57456596       3.91792964       7.64896126       0.03033464      -0.01935744      -0.00124237
O       11.23897298       6.01635385       7.89797984      -0.00767630      -0.00933415       0.01009661
O        9.51420843       5.23725240       9.10929246       0.02747726      -0.05636583       0.02631736
C       11.78801890       3.99382049       6.87897653       0.01500419       0.01250601      -0.02098260
C       12.14275218       5.47802325       6.90792638      -0.00531331       0.01654869      -0.00114481
C       10.37271731       5.09156232       8.27560699       0.01686996      -0.03062493       0.01549882
H       11.57961618       3.62448988       5.87762927       0.00056709       0.02630337      -0.02254492
H       12.52704983       3.36044641       7.37090338       0.03171751       0.01487309      -0.04517487
H       13.15661905       5.67381678       7.23869681      -0.00694376       0.02522936      -0.00239459
H       11.96767977       5.99514094       5.97184426      -0.01630677       0.02630165       0.00706035
O        5.58342037      12.19076335      10.04666202       0.00854717      -0.00285549       0.00398146
O        5.25294411      12.20708634      12.23768641      -0.00764278      -0.02789748       0.00149167
O        3.78592409      13.24516267      10.88367805      -0.00904375      -0.03198969      -0.00007196
C        6.50715450      11.21630260      10.59446220       0.01556787       0.00262967       0.00118336
C        6.58538411      11.66032101      12.03368412       0.00054088      -0.01028679       0.00562316
C        4.79417717      12.61213014      11.03994196      -0.00259233      -0.02224225       0.00168146
H        7.43976056      11.27078927      10.04186907       0.01888439       0.01997669       0.00943553
H        6.07267427      10.22403180      10.47951159       0.02755442      -0.00061101      -0.01326217
H        6.75262481      10.87699720      12.76637199       0.00545065      -0.01454321      -0.00037646
H        7.28915361      12.47781112      12.16641564      -0.01089936      -0.00338250       0.01785996
O        3.23205222      10.18981084       1.83219348      -0.00810201       0.01216635      -0.04495317
O        5.26946773       9.45521444       1.32779446      -0.00237904      -0.00296479       0.00130772
O        5.02049069      11.40920930       2.41698952      -0.01820353       0.02157038      -0.04371467
C        3.04681961       8.80961706       1.44104885      -0.00421393       0.00456244      -0.01668821
C        4.36337427       8.49922020       0.74116858       0.00231546      -0.00920123       0.00318596
C        4.56890922      10.43507195       1.89799894      -0.00854674       0.00975931      -0.03009886
H        2.16230796       8.74605784       0.81480273       0.00077307      -0.01000648      -0.02174513
H        2.89273382       8.21738284       2.34507664      -0.01008915       0.02526623      -0.00471818
H        4.76047748       7.50679782       0.94002595      -0.00288230      -0.00781912       0.01937811
H        4.32047186       8.68477472      -0.33472781       0.01529151      -0.02274318       0.00093889
O        6.15029767       4.18161507      10.55864594       0.00176376       0.01917332      -0.01213744
O        6.80196948       6.29260084      10.83822487       0.00335605       0.01549137       0.00833628
O        6.57941659       5.46475563       8.75982223       0.01957944       0.03215069      -0.00451386
C        5.96858561       4.45146395      11.95937734      -0.00490490       0.00776225      -0.01139314
C        6.76146498       5.73017545      12.16128817      -0.00719896       0.00601393       0.00326580
C        6.53207117       5.33033473       9.93782804       0.00801441       0.02211090       0.00709391
H        6.33866756       3.60335854      12.52208342      -0.00656393       0.00372452      -0.01615083
H        4.90218833       4.58985512      12.15738876      -0.00595170       0.00452759      -0.01528455
H        6.30927541       6.44794087      12.83197294      -0.01377966       0.00093105       0.00447658
H        7.78133921       5.55059250      12.49113727      -0.01009887       0.00499308       0.01090807
O        4.68121617      10.22050943       8.34285938      -0.03456530       0.00996950      -0.00770111
O        3.97687646       8.17611036       8.84389223      -0.01162389       0.00448577       0.00086474
O        6.18205677       8.54780170       8.49495353      -0.01855671       0.02356893      -0.01360396
C        3.31232445      10.35786610       8.75911519      -0.03256606      -0.00214964       0.00189026
C        2.78527212       8.95159742       8.57365902      -0.02030921      -0.00762451       0.01060900
C        5.05718680       8.92808447       8.54753395      -0.02311701       0.01490816      -0.00734651
H        2.84221111      11.12518607       8.15385550      -0.04453425      -0.01128882       0.00022802
H        3.29499169      10.67234238       9.80520914      -0.02550284       0.00355370      -0.00010824
H        1.99411139       8.65111657       9.25309825      -0.00807223      -0.01400493       0.02089480
H        2.48042759       8.75044939       7.54438090      -0.02773726      -0.01409413       0.01374537
O       10.61127624       8.51400181       9.49304104       0.02047223       0.01284660      -0.00329512
O       11.91801613       7.66621138      11.07381323       0.00882180       0.00408518       0.00013262
O       12.84593332       8.70905653       9.31002352       0.02052903       0.01371491       0.01059175
C        9.69586806       8.00878390      10.48896421       0.01134259      -0.00068685      -0.01860455
C       10.59591370       7.18115971      11.39093521       0.00630155       0.00677681      -0.00653526
C       11.87754257       8.30664519       9.89257367       0.01438427       0.01001108       0.00670877
H        8.92846430       7.42723084       9.99075507       0.02491343      -0.00787744      -0.03111139
H        9.24595416       8.85341261      11.01120196      -0.00725107      -0.00779921      -0.02560341
H       10.41840716       7.34675388      12.45175023      -0.00237718       0.01472777      -0.00931746
H       10.56034070       6.12945770      11.12221749       0.00707083       0.00462192       0.00299489
O        8.67848598      11.72396463       0.93902379       0.01817891       0.02809599      -0.00469750
O        9.23328201      13.78510280       1.52154739       0.02521659       0.02049914       0.01456670
O        7.07187592      13.27995597       1.17957997       0.02551627       0.03223908       0.00240086
C       10.00435316      11.63555450       1.50558033       0.01507634       0.01696414      -0.00167936
C       10.45884016      13.06556560       1.35627291       0.02256095       0.01606354       0.01494287
C        8.21354184      12.94368050       1.20906540       0.02203357       0.02752581       0.00322729
H       10.55435067      10.86150843       0.97285983       0.01460820       0.02049094      -0.00586216
H        9.87653102      11.31482866       2.53879538       0.01025207       0.00795142      -0.00519091
H       11.15537400      13.42694506       2.10480200       0.01963021       0.00418671       0.02349572
H       10.84954899      13.25812082       0.35413796       0.03000256       0.02446453       0.01991645
O        9.73536169       1.15933139       8.16524699      -0.00459673      -0.01982756       0.00692475
O        8.02402042       0.63569771       6.85064883      -0.00178879       0.07879171      -0.03234076
O       10.11936540       0.41725731       6.07904609       0.00181401       0.06968465      -0.03227961
C        8.57407964       1.68227286       8.83806633      -0.00457472      -0.02144286       0.01120904
C        7.42113127       1.01627521       8.10656363       0.00069755       0.00186229      -0.00828664
C        9.36212646       0.70457780       6.96031419      -0.01224285       0.05112681      -0.00867116
H        8.59088468       2.77027989       8.75010250       0.00487038      -0.02125442       0.02376730
H        8.62950657       1.38464893       9.87557586      -0.01258537      -0.03947076       0.00564545
H        7.05368395       0.12213585       8.60379445       0.02358717      -0.03416377      -0.05812427
H        6.58020099       1.66948446       7.89990387      -0.01664954      -0.00800085       0.03293778
O        5.31203083       3.68153837       7.03156498       0.01515779       0.00438341       0.00903738
O        5.13806942       3.17764226       4.88050863       0.01126833       0.00153218       0.01059371
O        3.30711802       3.10278558       6.18647495       0.01448750       0.00463504       0.01284868
C        6.60526762       4.00348244       6.47806032       0.01449017       0.00135154       0.00764233
C        6.54671868       3.36237544       5.10728886       0.01125932       0.00108053       0.00794876
C        4.47527947       3.30881795       6.04804907       0.01327026       0.00355221       0.01058669
H        7.37448091       3.59964242       7.12609651       0.01381126      -0.00081542       0.00699311
H        6.71036997       5.07840193       6.43210209       0.01693062       0.00087994       0.00726751
H        6.92869601       4.03140264       4.34473321       0.00842777       0.00067985       0.00673488
H        7.02729705       2.38222890       5.07372475       0.01055355       0.00141007       0.00837318
O        1.71556717       3.90699490       9.14153351      -0.00010596      -0.02792096      -0.00604063
O        2.10960147       5.99013060       9.80278461      -0.01376706      -0.02519733      -0.00879127
O       -0.01682150       5.23970724       9.69157768      -0.01086223      -0.03810084      -0.00898445
C        3.12733562       3.96200977       9.42079156       0.00099264      -0.01632857      -0.01461161
C        3.38949613       5.44805681       9.39933381      -0.01095286      -0.01457244      -0.01243821
C        1.15478760       5.06480097       9.55915962      -0.00330085      -0.03228012      -0.00842167
H        3.65854791       3.40161045       8.66163819      -0.00000167      -0.00992462      -0.01970544
H        3.30063102       3.52969397      10.41135218       0.01120108      -0.01783352      -0.01756752
H        4.12728048       5.79868540      10.11147007      -0.01171750      -0.01151706      -0.01334190
H        3.64293410       5.81169170       8.40711119      -0.01620285      -0.01004702      -0.01208133
O        9.98518804      11.32871906      10.08538341       0.00619748       0.01434468      -0.00269642
O       12.19489242      11.59668162      10.00875830       0.00062969       0.02643443       0.00716749
O       10.99887780      11.63901223       8.09814391       0.00813821       0.03207335      -0.01469696
C       10.40651609      11.36159149      11.45914253       0.00055504      -0.00431952      -0.00337648
C       11.91614555      11.19183840      11.35581732      -0.00015327       0.01623511      -0.00033480
C       11.05387403      11.51999895       9.27914938       0.00704693       0.01694461       0.07355672
H        9.92354292      10.55914532      12.01253875       0.00764668      -0.02110606      -0.00746314
H       10.11338383      12.32721223      11.86562910      -0.01299316      -0.01609650       0.02523321
H       12.46966694      11.84988553      12.03025452      -0.00860786       0.01869041       0.01811293
H       12.24737978      10.16449527      11.50242191       0.01358663       0.01758701       0.00715781
O        6.42318478       7.87763464       4.34102671       0.00045413      -0.01036003       0.00603274
O        4.56328280       8.00066140       5.54974327      -0.00726032       0.01301947      -0.00895149
O        5.30938801       5.99572579       4.84226073      -0.01211055       0.00050879       0.02124054
C        6.37471882       9.23393638       4.83619357       0.00100744      -0.00250224      -0.01754050
C        4.92072589       9.35934597       5.22343674       0.00146019       0.00750789      -0.01880264
C        5.43797819       7.18333983       4.90542411      -0.00661880       0.00270045       0.00785923
H        6.70981739       9.89461518       4.04240368       0.00141647      -0.01711422      -0.02940041
H        7.04798027       9.29109472       5.69007106       0.00234419       0.01240314      -0.02020240
H        4.75141585       9.98651802       6.09017962       0.00486908       0.01474446      -0.02351877
H        4.28871371       9.68923330       4.39737439       0.00295532       0.00548877      -0.02074218
O        1.15295519       5.90597439       2.33437671      -0.00509432      -0.00538383      -0.00101966
O        2.57947832       5.44661920       3.98328744      -0.01710218      -0.02877560       0.00167850
O        0.50347916       6.12402544       4.49041745      -0.01777053      -0.03260291      -0.00239313
C        2.26779538       5.26056393       1.70271999      -0.00562820      -0.00735542       0.00029653
C        3.33990198       5.28760277       2.78377040      -0.01060361      -0.01551153       0.00432843
C        1.33306920       5.85019345       3.68567865      -0.01467037      -0.02320856      -0.00030488
H        2.53176013       5.81767745       0.80364117      -0.00043216      -0.00584891       0.00344571
H        1.96973448       4.24986721       1.42505257      -0.00904259      -0.00533426      -0.00312947
H        3.92587859       4.38013707       2.86459561      -0.00910902      -0.01467264      -0.00129445
H        4.03321944       6.12090077       2.68868968      -0.01263157      -0.01284957       0.01505929
O        2.59553757      13.27244574       6.86570027      -0.00793785       0.02173374      -0.00114536
O        3.84508389      12.17057443       5.39183305      -0.00490525       0.00265190       0.01649745
O        4.82163534      13.61978984       6.80548598      -0.00813186       0.01037413       0.00581160
C        1.66128574      12.46957296       6.13194519      -0.00720340       0.02196811       0.00020015
C        2.50584985      11.88162785       4.99817709      -0.00300844       0.00171527       0.01418635
C        3.84407431      13.08340899       6.39175135      -0.00357342       0.01329061       0.00846758
H        0.86419427      13.12187995       5.78302774       0.00142416       0.02365521      -0.01608884
H        1.24719667      11.70664705       6.79285701      -0.01987644       0.03376970       0.00551429
H        2.38956218      10.80757925       4.87174039      -0.00657140       0.00073814       0.02963286
H        2.32622794      12.37924336       4.04082754       0.00348825      -0.01148134       0.00671554
O       12.97541947      10.23153896       4.55553634       0.00914228      -0.02750871       0.01723629
O       12.31668608      11.85899313       3.21688977       0.00524068      -0.01591492       0.03391385
O       13.88876774      10.47120420       2.50266640       0.00002541      -0.01192666       0.01834281
C       11.83996711      10.85456581       5.25849676       0.00133702      -0.04722223       0.01591015
C       11.64245084      12.14985152       4.48942275      -0.00663233      -0.03877521       0.03129995
C       13.10443521      10.77902596       3.38699920       0.00771882      -0.01701534       0.01656309
H       12.12283547      11.00496851       6.29221410      -0.00527386      -0.06083096       0.01848072
H       11.00441282      10.15877864       5.19592552       0.00726810      -0.05244011       0.00208357
H       10.60810447      12.39120532       4.28393649      -0.00648773      -0.04353819       0.02455103
H       12.12589621      13.02171520       4.92186162      -0.02002203      -0.04076606       0.04745331
