190
Lattice="13.428371104145587 0.0 0.0 0.0 13.428371104145587 0.0 0.0 0.0 13.428371104145587" Properties=species:S:1:pos:R:3:forces:R:3 energy=-1211304.375 stress="-0.0002794745669234544 8.572115984861739e-05 0.00018063699826598167 8.572115984861739e-05 -0.0009650886058807373 0.00029527355218306184 0.00018063699826598167 0.00029527355218306184 -0.0011899590026587248" pbc="T T T"
No      13.17585210      13.04411559       0.29279733      -0.01719688       0.02280842      -0.00630412
O        7.91803827       9.88322657       1.84698982      -0.01518810       0.00224161      -0.01560497
O       10.63999313      10.11945735       1.28609844      -0.00262153       0.02319407      -0.00042059
O        8.63524974      11.46229500      -0.11286273       0.00112116       0.01241279      -0.01540518
O        8.79388710       8.84416144      -0.39304391       0.02016756       0.01285207      -0.01939678
Cr       8.92480798      10.07066919       0.62290698       0.01771200       0.01368344      -0.02505767
Cr      11.68361173      11.24604099       2.03334583      -0.01685632       0.02781195      -0.00164902
O       13.23720579      11.06277877       1.41721691      -0.00779110       0.03508627       0.01555657
O       11.28359013      12.80233345       1.57002062      -0.02021524       0.02642208      -0.01158598
O       11.67727130      11.12213609       3.59594555      -0.02751948       0.04059479       0.00770378
O        3.48722844       9.74721950       7.89044189      -0.00882612       0.00322741       0.00703231
C        3.67130001       8.44438292       8.40771065      -0.00624014       0.00266480       0.00488591
C        4.08971106      10.73990279       8.70087406      -0.00777470       0.00245285       0.00692771
C        3.12708930       7.45649582       7.40701745      -0.00744303       0.00324607       0.00516784
C        3.95004983      12.07354368       8.00810206      -0.01033522       0.00314394       0.00904800
H        4.74181757       8.26772489       8.59042042      -0.00562030       0.00374444       0.00200584
H        3.15947936       8.35058058       9.37748378      -0.00346452       0.00096353       0.00613439
H        3.61169137      10.75767562       9.69152137      -0.00545606       0.00056644       0.00797212
H        5.14719753      10.48857145       8.85621837      -0.00710171       0.00335692       0.00422238
H        3.25669164       6.43585432       7.76599434      -0.00359347       0.00292292       0.00289059
H        2.06553197       7.63126099       7.22738605      -0.00847512       0.00091062       0.00928314
H        3.65228856       7.55135270       6.45629458      -0.01108657       0.00645760       0.00350633
H        4.44227170      12.85575674       8.58606589      -0.00974791       0.00263943       0.00916666
H        4.40748919      12.03702072       7.01863153      -0.01231743       0.00471830       0.00815536
H        2.89973734      12.33889120       7.88792486      -0.01079240       0.00247650       0.01162036
O        1.09925541      10.10012425       4.42887265      -0.00599617       0.00960124      -0.00883411
C        1.83860405       9.02983847       3.88534678      -0.00767836       0.00919271      -0.00975418
C        1.93249644      11.11082416       4.95269808      -0.00430374       0.00961143      -0.01226074
C        0.88107432       8.03624911       3.27792610      -0.00880200       0.00813141      -0.00606838
C        1.06545663      12.28461489       5.34014541      -0.00197577       0.01150724      -0.01298322
H        2.53541225       9.41052886       3.12471979      -0.01003942       0.00836438      -0.01234198
H        2.44987475       8.55945236       4.67324796      -0.00512949       0.01009500      -0.01098609
H        2.49136032      10.72478923       5.81701148      -0.00293887       0.01082626      -0.01246417
H        2.67226307      11.41319534       4.19185311      -0.00548133       0.00731541      -0.01425940
H        1.41822466       7.17031621       2.88763099      -0.00865677       0.00984544      -0.00965271
H        0.17099849       7.68964515       4.02972976      -0.00486597       0.00591341      -0.00343795
H        0.32451233       8.50760325       2.46813608      -0.01326817       0.00782400      -0.00299130
H        1.67510449      13.08901734       5.75560395      -0.00016855       0.01117945      -0.01475183
H        0.52164594      12.65552683       4.47051382      -0.00214091       0.01080032      -0.01278335
H        0.32725459      11.98194172       6.08081201      -0.00171159       0.01369185      -0.01171878
O        1.27594702       4.36084599       3.10082616       0.00057229      -0.00598857       0.00017351
C        1.87419350       4.05839839       4.35048780       0.00024876      -0.00439459       0.00062230
C        1.75746511       3.52450517       2.06893237       0.00601234      -0.00184001      -0.00058490
C        1.35344035       5.01481783       5.39380826      -0.00471866      -0.00645790      -0.00001171
C        1.09032679       3.90623267       0.77179036       0.00364780      -0.00313298       0.00029975
H        1.64226552       3.01845719       4.62516822       0.00373989      -0.00529206      -0.00005190
H        2.96703061       4.13976723       4.26173226       0.00002742      -0.00034980       0.00187165
H        2.85043872       3.61884455       1.99698107       0.00548065       0.00497580      -0.00020458
H        1.53331474       2.47260682       2.31395493       0.01235780      -0.00350904      -0.00227271
H        1.76072805       4.75582290       6.37201952      -0.00374565      -0.00372510       0.00026539
H        1.64328902       6.03789865       5.15911384      -0.00983820      -0.00516936      -0.00078988
H        0.26502731       4.97080539       5.44872680      -0.00448552      -0.01177377      -0.00029872
H        1.47818719       3.30443167      -0.05215627       0.00710746       0.00156330      -0.00143303
H        0.01450464       3.74714267       0.83876550       0.00456178      -0.00914486       0.00040331
H        1.27045460       4.95700610       0.54359775      -0.00323194      -0.00131813       0.00354955
O        9.82203672      11.58249880      10.44144761       0.00944734       0.00345534      -0.00761340
C       10.99724718      12.31122679      10.67286017       0.00797802       0.00507872      -0.00471732
C        8.79096631      12.35173636       9.85437184       0.00500131       0.00559466       0.00372339
C       11.88239794      11.47455005      11.57424194       0.00989120       0.00503036      -0.00652318
C        7.50698548      11.56602622       9.94071572       0.00732327       0.00117609       0.00235242
H       11.50868902      12.54173582       9.72673002       0.00773332       0.00930008      -0.00375098
H       10.75865172      13.27298835      11.15859616       0.00509067       0.00285482      -0.00158411
H        8.68907372      13.30475467      10.39411752       0.00484849      -0.00012389       0.01330557
H        9.04484201      12.58906913       8.80905928       0.00002083       0.01615904       0.00522584
H       12.92198109      11.84427961      11.55726454       0.00829141       0.01030646      -0.00257410
H       11.47342945      11.43830615      12.59243397       0.00757395      -0.00226998      -0.00746471
H       11.91059311      10.44291545      11.22314109       0.01601442       0.00672945      -0.01088838
H        6.69775184      12.12953704       9.47377542       0.00237048       0.00617402       0.01655032
H        7.60527360      10.61165048       9.42256065       0.00582169       0.00876972      -0.01163903
H        7.26421877      11.36911738      10.98513037       0.01673931      -0.01287260       0.00186715
O       11.54422933       9.14600241       6.19730880       0.00072908       0.00295353      -0.00511086
C       10.65993725       8.14783753       5.72427654      -0.00341257       0.00565995      -0.00229150
C       11.73231506       9.05711118       7.59115016       0.00684375       0.00245810      -0.00600553
C       10.39823049       8.33675438       4.25281431      -0.00804270       0.00852808      -0.00119537
C       12.65603686      10.16395478       8.03361578       0.01342383      -0.00076398      -0.01181870
H       11.09254092       7.15260081       5.92751789      -0.00490317       0.00443292      -0.00541523
H        9.71687932       8.20461178       6.28368561      -0.00106621       0.00711897       0.00167555
H       10.76456057       9.13934537       8.11026029       0.00952286       0.00618398      -0.00164685
H       12.15660507       8.07324445       7.85479951       0.00426531       0.00089514      -0.00796609
H        9.75607027       7.53451649       3.88665882      -0.00851136       0.00891204      -0.00117217
H        9.89870125       9.28454725       4.06433068      -0.00896498       0.00877371       0.00220782
H       11.32781934       8.32005390       3.68630764      -0.00952579       0.01020592      -0.00364190
H       12.79812859      10.12237349       9.11370288       0.02068247      -0.00064339      -0.01269811
H       13.62682731      10.07589007       7.54530394       0.00982091      -0.00422074      -0.01820907
H       12.22343919      11.13121746       7.77666521       0.01508005       0.00044811      -0.00947192
O        7.11139818      10.32244726       5.01999405       0.00314897      -0.00677004       0.00399598
C        6.12057180       9.59045130       5.70529116      -0.00108852      -0.00376791       0.00187659
C        6.64537911      11.58972037       4.59854875       0.00892669      -0.00447631       0.00422958
C        6.70732265       8.25476463       6.08652751      -0.00619853      -0.00539970       0.00289091
C        7.75065400      12.29981191       3.86355993       0.01186824      -0.01074898       0.00320813
H        5.79871594      10.13983063       6.60156537      -0.00160730      -0.00231004       0.00085598
H        5.23036912       9.46972104       5.06949707       0.00044730      -0.00058694      -0.00066072
H        5.76746826      11.46202859       3.94517394       0.00793362      -0.00074981       0.00498825
H        6.31498833      12.16955752       5.47783181       0.01218303      -0.00310043       0.00439662
H        5.98974620       7.65429653       6.64477796      -0.01010543      -0.00443426      -0.00125839
H        7.00895382       7.69762847       5.19923621      -0.00429921      -0.00484840       0.00314042
H        7.58587997       8.40835724       6.71057333      -0.00823072      -0.00901268       0.00660308
H        7.43524032      13.31189932       3.61662341       0.01578392      -0.01063000      -0.00060312
H        8.65294315      12.33369139       4.47406830       0.01175116      -0.01199177       0.00333261
H        7.97821516      11.76581968       2.94335584       0.00994506      -0.01440027       0.00480452
O       10.03614249       3.15495097       4.56500072      -0.00184536      -0.00723255      -0.00530335
C       11.17130128       3.36332396       3.74335579       0.00168739      -0.00637180       0.00000840
C        9.79865606       1.78291826       4.84383490       0.00415206      -0.00640176       0.00303569
C       11.27631939       4.83727779       3.44031724      -0.00102556      -0.00694180      -0.00334450
C        8.49717277       1.66979449       5.60435888       0.00223529      -0.00680651      -0.00061017
H       12.07635148       3.00273090       4.25679881      -0.00021574      -0.00219743       0.00606948
H       11.06924660       2.77462124       2.81884520       0.00828750      -0.00950676       0.00140077
H        9.75771029       1.21158065       3.90639633       0.01043845      -0.01298806       0.00699389
H       10.63625665       1.37566613       5.43060032       0.00418997       0.00198844       0.00869891
H       12.18362824       5.04601909       2.87449583       0.00024483      -0.00614248      -0.00092301
H       10.41201196       5.17877366       2.87024119      -0.00006083      -0.01058340      -0.00701424
H       11.31774102       5.41179140       4.36628908      -0.00555111      -0.00462525      -0.00458485
H        8.36053926       0.65526468       5.97603745       0.00466618      -0.00526249       0.00445781
H        8.49167228       2.35249187       6.45070170      -0.00330180      -0.00205070      -0.00435710
H        7.65095045       1.91538181       4.96489418       0.00353210      -0.01292933      -0.00470144
O        2.91669814       3.17079635      10.52738774      -0.00528577      -0.00341885       0.00971125
C        4.14391242       2.46582866      10.56128505      -0.00531991      -0.00342000       0.00667939
C        3.07281859       4.49773868      10.06100102      -0.00644135      -0.00408953       0.00747314
C        3.87669344       1.07356798      11.07736558      -0.00301504      -0.00235257       0.01072524
C        1.71577320       5.15708540      10.02972762      -0.00660938      -0.00454962       0.00810497
H        4.58166570       2.43305371       9.55215063      -0.00952208      -0.00584793       0.00504863
H        4.86137411       2.99439222      11.20676209      -0.00320128      -0.00204629       0.00294855
H        3.76310454       5.04701775      10.71910472      -0.00569013      -0.00302827       0.00567585
H        3.52788686       4.48260575       9.05838969      -0.00804448      -0.00534207       0.00687698
H        4.79696734       0.48773522      11.09744839      -0.00263879      -0.00210766       0.00798173
H        3.47789122       1.11323329      12.09227921       0.00162227      -0.00017335       0.01246247
H        3.14993325       0.56507564      10.44196873      -0.00563143      -0.00367284       0.01487078
H        1.80109225       6.19434133       9.70578623      -0.00729695      -0.00488688       0.00671237
H        1.04996156       4.63421478       9.34213081      -0.00734121      -0.00583166       0.00983836
H        1.26458653       5.14277223      11.02181592      -0.00527617      -0.00322631       0.00878002
O        5.82675524       0.99331883       2.03277285       0.00440055      -0.01560188      -0.00318596
C        6.38515799       0.83748662       0.73501487       0.00163776      -0.01247060      -0.00455810
C        4.42776630       0.81825534       2.04875866       0.00438321      -0.01623197      -0.00101596
C        7.88155708       0.98939881       0.82208509       0.00135034      -0.00996009      -0.00762735
C        3.94042189       1.00380428       3.46559668       0.00631456      -0.01454212      -0.00078064
H        6.12485454      -0.15246419       0.33580184       0.00235552      -0.01240504      -0.00575058
H        5.95004579       1.59727990       0.06516602      -0.00143358      -0.01225781      -0.00203872
H        3.95174794       1.54884231       1.37407761       0.00315239      -0.01725516      -0.00110537
H        4.16916059      -0.18427957       1.67443782       0.00460710      -0.01672089       0.00026554
H        8.31551906       0.94613785      -0.17651311      -0.00106639      -0.00465365      -0.00881022
H        8.13723422       1.94519981       1.28041458       0.00027372      -0.01134071      -0.00382501
H        8.32770542       0.18282477       1.39831769       0.00461791      -0.01148289      -0.01291230
H        2.86094555       0.85887890       3.52302314       0.00663657      -0.01567640       0.00099843
H        4.41945332       0.28204440       4.12770857       0.00808188      -0.01274092      -0.00020854
H        4.17638733       2.00691032       3.82229005       0.00586236      -0.01366122      -0.00290142
O        6.11445417       6.12235828       2.66450139      -0.00346029       0.00295594      -0.00394320
C        7.36084674       5.46537047       2.74553180      -0.00510660      -0.00053418       0.00261606
C        6.26772270       7.49123224       2.30793027       0.00151777       0.00186843      -0.00246793
C        7.12018569       4.03361282       3.14048765      -0.00986353      -0.00141215      -0.00353937
C        4.90908907       8.13731330       2.35468867       0.00288528       0.00566781      -0.00943549
H        7.88628658       5.53137463       1.78109502       0.00094384       0.00186548       0.00624257
H        8.00274248       5.96807954       3.48625456      -0.00948232      -0.00394461       0.00827962
H        6.95641135       7.98923757       2.99906569      -0.00049210       0.00019911       0.00092196
H        6.72074650       7.57971849       1.31347375       0.00664568       0.00116819      -0.00043815
H        8.06648940       3.49866816       3.20830711      -0.01036140      -0.00157203       0.00324655
H        6.64162013       3.99053023       4.12038347      -0.01858198      -0.00407931      -0.00803521
H        6.47311452       3.52883497       2.42323483      -0.00330041       0.00063486      -0.01077209
H        4.99944343       9.20172771       2.13806130       0.00710666       0.00560261      -0.00790784
H        4.23091709       7.68226745       1.63075332       0.00604278       0.00831474      -0.01361257
H        4.47242914       8.01536238       3.34656403      -0.00280866       0.00568269      -0.01202236
O        9.25845863       4.56721341      12.29080048      -0.00004362       0.00235695       0.00361352
C       10.00062981       3.37331594      12.37500483       0.00534809       0.00572177       0.00624695
C        7.87390165       4.35684813      12.50266554       0.00192285      -0.00224990       0.00989388
C       11.44220001       3.68911136      12.05839963       0.00317234       0.01135947       0.00239142
C        7.15535416       5.67569955      12.36172366      -0.00424863      -0.00617623       0.00273275
H        9.91281943       2.93580560      13.38083105       0.00876502       0.00864573       0.00788277
H        9.59716992       2.62989560      11.66948480       0.00719114       0.00194734       0.00947276
H        7.49953796       3.62516156      11.76848406       0.00251107      -0.00933009       0.01690426
H        7.71466915       3.92710354      13.50243037       0.00768575       0.00424334       0.01354617
H       12.05499683       2.78408363      12.10812271       0.00735250       0.01425126       0.00314108
H       11.53139906       4.11945401      11.06105020      -0.00141219       0.00917341       0.00093511
H       11.83377395       4.41217158      12.77315794       0.00172975       0.01487146      -0.00046839
H        6.12695021       5.58657895      12.71629534      -0.00074810      -0.00673582       0.01216997
H        7.65871912       6.45091046      12.94075230      -0.00210224       0.00071862      -0.00848021
H        7.14740618       5.99509343      11.32266633      -0.01390956      -0.01633250      -0.00024149
O        9.10790246       5.16129560       8.91998876       0.00479707      -0.00548071       0.00424427
C        9.81892767       4.30869644       8.04375512       0.00506076      -0.00561512       0.00464857
C        9.10226010       6.48266079       8.41102604       0.00793621      -0.00455099       0.00699574
C        9.87107439       2.92030926       8.62990465       0.00081024      -0.00627232       0.00339302
C        8.37087703       7.41365978       9.34342997       0.00467998      -0.00666782       0.00665516
H        9.33970719       4.30324575       7.05460027       0.00697127      -0.00365401       0.00379729
H       10.83836008       4.69973064       7.89442693       0.00601727      -0.00725439       0.00737005
H       10.13875895       6.81861335       8.27663669       0.00868493      -0.00483757       0.01170858
H        8.63604781       6.48096473       7.41425483       0.01174903      -0.00208352       0.00530171
H       10.36570589       2.23894087       7.93668586      -0.00035129      -0.00715514       0.00343753
H       10.42276023       2.92063324       9.56774370      -0.00020029      -0.00858457       0.00411808
H        8.86496173       2.54700527       8.82438287      -0.00035378      -0.00349017       0.00197738
H        8.42737261       8.43224832       8.95606992       0.00787098      -0.00550330       0.01068719
H        7.31795887       7.14007764       9.42321870       0.00408320      -0.00588681       0.00051129
H        8.80824460       7.41018954      10.34124677      -0.00003169      -0.01081787       0.00860545
