197
Lattice="13.346636153825136 0.0 0.0 0.0 13.346636153825136 0.0 0.0 0.0 13.346636153825136" Properties=species:S:1:pos:R:3:forces:R:3 energy=-1217150.125 stress="-0.00021186168305575848 3.199480670446064e-05 0.0009772024059202522 3.199480670446064e-05 -0.0009413983207195997 -0.000825787748908624 0.0009772024059202522 -0.000825787748908624 -0.001961352303624153" pbc="T T T"
No       9.95776703      13.02667567      -0.96443657       0.00224221      -0.00163658       0.00333121
O        8.57399901      10.98405085      12.06087193      -0.00435072       0.00170416       0.01497939
O        7.60026516      12.82582914      12.76627748      -0.00075684       0.01321024      -0.00633180
C        6.19541813      10.98494769      12.20192572       0.00010383       0.00789136       0.00479282
C        5.06186162      11.78224730      12.03198721       0.00036591       0.00551856      -0.00191427
C        6.08826573       9.59852279      12.10105373       0.00633584       0.00684214       0.01194014
C        3.84848086      11.19179291      11.71191210       0.00321560      -0.00019932       0.00204092
C        4.86795097       9.00821827      11.81939860       0.00996425       0.00146316       0.01251622
C        3.75161594       9.80874633      11.59912137       0.00952223      -0.00094715       0.00891621
C        7.52112695      11.60424922      12.37946616      -0.00277960       0.00939244       0.00539087
H        5.15065224      12.85850735      12.12412007      -0.00157504       0.00600316      -0.00775945
H        6.97608841       9.00198181      12.24656527       0.00775376       0.01048776       0.01684097
H        2.97235963      11.80422349      11.53908568       0.00081472      -0.00433282       0.00193158
H        4.79783305       7.93181291      11.71813601       0.01163043       0.00063339       0.01787391
H        2.80688431       9.36273865      11.32984078       0.01272860      -0.00367907       0.00737192
O        3.65259263       9.94717625       4.02563299       0.00462866       0.00724900       0.00871444
O        4.92917563       8.77320307       5.45183305       0.00900811      -0.00794482      -0.00800252
C        5.86430873      10.68244968       4.41246198       0.00828242      -0.00165480       0.00294536
C        7.17542541      10.30061975       4.68935728       0.00807608      -0.00358135       0.00123768
C        5.62132946      11.96112877       3.92516676       0.00833929      -0.00013994       0.00738865
C        8.22256226      11.19281249       4.51239776       0.00863694      -0.00438774       0.00089673
C        6.66225718      12.87083524       3.77935701       0.00930905      -0.00184515       0.00526127
C        7.96702611      12.48989642       4.07024623       0.00956911      -0.00440016       0.00037764
C        4.73677317       9.71321338       4.66623774       0.00766921      -0.00085938       0.00115031
H        7.35531003       9.29809314       5.05131879       0.00734788      -0.00390577       0.00035315
H        4.60646287      12.24088345       3.67502338       0.00772148       0.00232282       0.01281624
H        9.23975461      10.87587634       4.71536467       0.00813094      -0.00520145       0.00148685
H        6.44962420      13.86817456       3.42265903       0.00958946      -0.00093801       0.00814906
H        8.78874643      13.18359480       3.93792259       0.01051296      -0.00644685      -0.00403024
O        3.49372231       8.06199495       2.42754595      -0.00948298       0.01598734       0.00212362
O        5.65884502       8.54530702       2.19783076      -0.00702024       0.00529921       0.00535956
C        4.77766891       6.58191772       1.13924329      -0.01335615       0.00886172       0.00623345
C        4.68465013       7.83190607       1.95455313      -0.01007423       0.01000446       0.00422105
H        4.70664183       5.75274561       1.84464163      -0.01932476       0.01024601       0.00724499
H        3.93844862       6.50122643       0.45075982      -0.01084758       0.01242319       0.00291886
H        5.72109368       6.52487754       0.60475077      -0.01141956       0.00428676       0.01048319
H        3.51664566       8.86685677       3.12201744      -0.00391306       0.01482365       0.00431694
O        7.88000078      11.42909223       9.51258368       0.00265396      -0.00461376      -0.00073540
O        9.02532923      13.27063022      10.04002194       0.00242428      -0.00539819       0.00388844
C        6.84486662      13.49588815       9.06416145       0.01472098      -0.00333166      -0.02112830
C        8.02112257      12.73791693       9.56979875       0.00730747      -0.00461654      -0.00698742
H        6.36451188      12.98900184       8.23102645       0.01299423      -0.00409304      -0.01955885
H        6.11822596      13.52760534       9.88223704       0.01545025       0.00315221      -0.02107581
H        7.13280117      14.51325026       8.82520510       0.01791429      -0.00554031      -0.02477353
H        8.50901417      11.00671020      10.13457963      -0.00651747      -0.00269142       0.00980833
O        0.03587130      10.67075100       1.24764840      -0.00899512      -0.00576004       0.00298367
O        1.49118920       9.59031770      -0.05210213      -0.00731229      -0.01293641       0.00080335
C        2.33206513      11.24563667       1.48143259      -0.01155877      -0.00391388       0.00266612
C        1.29986094      10.40785953       0.80692990      -0.01144919      -0.00569332       0.00685889
H        2.23376300      12.27259167       1.12489734      -0.02785601      -0.00516038       0.00526641
H        2.20540118      11.24084738       2.56357993      -0.00635612      -0.01120371       0.00235578
H        3.32254195      10.87159403       1.24287200      -0.01058006       0.00627230      -0.00643250
H       -0.55346055      10.03287902       0.78493540      -0.00836968      -0.00841469      -0.00018749
O        6.39291226      10.74912006       7.33122061      -0.02564543       0.01124358      -0.00301105
O        7.14427999       8.74354724       7.99720120      -0.00417352       0.01620936      -0.01039133
C        4.88032792       9.40827889       8.48595822      -0.01300758      -0.00838290      -0.01197591
C        6.24256646       9.54559456       7.90979288      -0.01327384       0.00657177      -0.00841014
H        4.88402333       9.91522493       9.44944608      -0.02685513       0.00979641      -0.02146946
H        4.14371632       9.89241768       7.85416878      -0.01690462      -0.03145462      -0.02494262
H        4.63732411       8.36224457       8.64403336       0.00249037      -0.00915068       0.00608479
H        7.28685566      10.77282649       6.95775690      -0.02537265       0.02295776      -0.00137657
O        9.45913345       7.81839488      12.87344695      -0.00174129       0.00169972      -0.00938099
O       10.16732394       8.09748811      10.77075372       0.00987688      -0.00569984      -0.00634176
C        8.13808569       6.89742908      11.14765000       0.00164288       0.00499722      -0.01223421
C        9.33514983       7.67514453      11.57424488       0.00411487      -0.00066745      -0.00941628
H        8.48236746       5.90586304      10.84037156      -0.00313842       0.00333038      -0.01162168
H        7.41836371       6.76331767      11.94867074       0.00084086       0.00716050      -0.01261261
H        7.67563497       7.35890280      10.27605522       0.00456595       0.00773822      -0.01235622
H       10.34233958       8.20571880      13.12222081      -0.00078142      -0.00251877      -0.00635934
O        7.67066254       9.91366188       1.49772306      -0.00793698       0.00379971       0.00564311
O        9.26838636       8.60357042       2.34372815      -0.01072673       0.00022471       0.00447884
C        9.85985042      10.75968134       1.49306375      -0.00236320      -0.00298566       0.00873791
C        8.89992857       9.65846352       1.82271158      -0.00894424       0.00133079       0.00506991
H       10.24652503      10.58596174       0.48589697       0.00667106      -0.00746328       0.01338163
H        9.34315767      11.71955715       1.52938163       0.00630409       0.00210290       0.00027502
H       10.69363716      10.76080525       2.18802592      -0.00852151      -0.01081629       0.01627567
H        6.99955337       9.19807298       1.75338065      -0.00909238       0.00492439       0.00769369
O       12.81603548      10.99543603       3.91723616      -0.00222170       0.01756741       0.00231677
O       11.71525695      12.90876380       3.50897526      -0.00745642       0.01663363       0.01018482
C       11.78549292      12.03997573       5.75421201       0.00159618       0.01437291       0.00799596
C       12.07819746      12.04908274       4.28669942      -0.00352252       0.01480788       0.00761396
H       11.70805951      11.02304100       6.13508105       0.00271085       0.01580524       0.01175836
H       12.61509025      12.53130811       6.27239753       0.00335589       0.01630948       0.00324377
H       10.87545322      12.60064602       5.95204614       0.00241363       0.01439929       0.01120564
H       13.00520024      11.03641604       2.95244537      -0.00633055       0.01770203       0.00209904
O        7.98597214       3.00309854      10.66000157      -0.00575439      -0.01834679      -0.01470643
O        9.73911269       2.13571268      11.74730494      -0.00732767       0.01256412       0.01225127
C       10.02456733       2.95867845       9.49981813      -0.00022739      -0.00718436       0.00230736
C        9.25562282       2.65703232      10.74174774      -0.00274354      -0.00396053       0.00163838
H        9.74359845       2.23168824       8.73620814      -0.00998379      -0.00204796       0.00102276
H        9.77113639       3.94193657       9.10991978      -0.00380097      -0.00716481       0.00408152
H       11.09128243       2.89216172       9.68922951       0.00092411      -0.00839180      -0.00267107
H        7.48100661       2.73729142      11.46853440      -0.00614977      -0.00759748      -0.01146841
O        4.18890703       3.47089550      11.11811285       0.03340361      -0.00732324      -0.02190995
O        5.24639568       5.44791640      11.17272752      -0.00406104       0.01142812       0.00291008
C        3.48688916       5.11342390       9.56841807      -0.00534320       0.00487474       0.00686061
C        4.40585169       4.72507474      10.68796564       0.00649887       0.00304502      -0.00360936
H        3.32017951       4.28377692       8.88363666      -0.01420594       0.00708981       0.00664456
H        2.51709944       5.40705026       9.97608288      -0.00065380       0.00878701       0.01574104
H        3.89791850       5.96699589       9.03796043      -0.00731118       0.00527598       0.00604708
H        4.87696252       3.25178341      11.78693345       0.03466466      -0.00141878      -0.02138186
O        2.17434346       4.61160104       5.84280345       0.00335723       0.00990242      -0.01405509
O        0.85314259       5.80426444       4.47551963      -0.02150176       0.00081885       0.00235546
C        0.28454957       3.51613406       4.92934670       0.00418633      -0.00519228       0.00289945
C        1.10050125       4.76987457       5.04039447      -0.00665265       0.00196940      -0.00142285
H        0.62514808       2.97221385       4.04632654       0.00058144       0.00346315      -0.00365190
H        0.40568016       2.86001972       5.78948124       0.01972651      -0.00835551      -0.00198540
H       -0.75910861       3.77932340       4.77161338      -0.00054976      -0.01755786       0.01437698
H        2.70028020       5.42299203       5.76660049      -0.00181456       0.01241082      -0.02213269
O       11.83808715       9.95735745       9.98838791       0.01301402      -0.00873682      -0.00201637
O       11.52738516      11.27910742      11.75735439      -0.01096613      -0.00823806      -0.00737587
C       12.44941598      12.22053207       9.75167200       0.00974324      -0.00859809       0.00046402
C       11.90575188      11.11862322      10.59250954       0.00490631      -0.00832228      -0.00193661
H       13.32952561      11.88477449       9.20575205       0.00600928      -0.00944690      -0.00544685
H       11.69622808      12.49597151       9.00855536       0.00485072      -0.00945494       0.00479867
H       12.67091097      13.08995148      10.36672692       0.01201350      -0.00814986      -0.00033878
H       11.33868738       9.29549203      10.53558582       0.00009099      -0.00625171      -0.01000583
O        8.42343248       7.35888165       4.52981909      -0.00990242      -0.01113594       0.00814050
O        7.42389799       5.58627291       3.58919110      -0.02041942      -0.00524652       0.00840175
C        7.05621970       6.07570088       5.92513082      -0.01645157      -0.00555627       0.00800848
C        7.62630851       6.28392973       4.56093014      -0.01574749      -0.00717926       0.00793779
H        7.87060634       5.85002349       6.61651626      -0.01739168      -0.00270011       0.00988439
H        6.58395608       6.99812017       6.26154029      -0.01967904      -0.00599089       0.00432745
H        6.33674575       5.26382537       5.90342809      -0.01501787      -0.00673166       0.00726919
H        8.64688131       7.58080080       3.60138498      -0.00810642      -0.01230700       0.00867438
O        6.76297075       1.18560159       1.06170598       0.00019002       0.00767145       0.01219687
O        6.23068589       2.40817568      -0.72389803       0.01987544      -0.00312181       0.00029957
C        6.21503139       3.43528340       1.44292521      -0.00340495       0.01130992      -0.00808838
C        6.39931462       2.30750045       0.49783353       0.00666221       0.00506780       0.00244305
H        6.23183871       3.11914636       2.48159808      -0.00533712       0.01977178      -0.00585893
H        7.00847410       4.17040589       1.29518810      -0.00605538       0.01307179      -0.01162256
H        5.27593260       3.93571412       1.22476076      -0.00420430       0.00653936      -0.01614941
H        6.93220700       0.46432271       0.37006456       0.00557920       0.01053692       0.01185554
O        3.23712418      13.62124993       7.89456381      -0.00630845       0.00384802       0.00562799
O        1.09780791      13.78621252       7.25524384      -0.00185436       0.01438028      -0.00586858
C        2.54683678      12.20774974       6.14027154      -0.00267971       0.00841725       0.00298244
C        2.18506655      13.26966776       7.11818712      -0.00396931       0.01038602       0.00017878
H        3.47102047      12.45727484       5.62396635       0.00231311       0.00299299       0.00946289
H        2.71314043      11.27642266       6.68180564      -0.01183422       0.00912295       0.00706343
H        1.74411948      12.05042474       5.42662252       0.00117879       0.01242872      -0.00198135
H        2.91219347      14.29578098       8.50723674      -0.00573468       0.00455537       0.00520876
O       12.46833156       5.31698558       7.35972191       0.00045983      -0.00927818      -0.00730497
O       10.52299250       4.93499259       6.31678942      -0.00878626      -0.00597930       0.00893760
C       11.35001948       7.19758375       6.46616526      -0.00048182      -0.00817060      -0.00295211
C       11.36159254       5.72181962       6.68850538      -0.00309587      -0.00720090       0.00068708
H       11.80573874       7.72336726       7.30333133      -0.00409529      -0.00694597      -0.00176881
H       11.94954994       7.40196422       5.57474605       0.00559330      -0.01137279       0.00051290
H       10.33277735       7.53355456       6.28772091       0.00102821      -0.00751574      -0.00914685
H       12.40664048       4.35343598       7.43260678      -0.00287500      -0.00876743      -0.00477089
O       11.35967322       5.69977195      10.43054647       0.02948779       0.00329334      -0.00697194
O       13.17053261       6.79271749      11.18203994       0.03240716      -0.00223064      -0.00010507
C       13.09788598       4.39776944      11.33992110       0.01722845      -0.00278479       0.00208198
C       12.57338915       5.75917776      10.99200337       0.02530107      -0.00188106       0.00011672
H       12.29239230       3.72661104      11.63556473       0.01538545       0.00329843       0.01020915
H       13.58574954       3.97760289      10.45784546      -0.00001819      -0.00572632      -0.00562939
H       13.84120590       4.49158910      12.12707626       0.02915448      -0.00878050      -0.00868692
H       11.05084967       6.62026585      10.28111714       0.03234109       0.00338405      -0.00926515
O        7.78306209       2.89620126       6.90717648      -0.00395834       0.00174817       0.00659183
O        6.19196992       2.68355290       5.35658175      -0.00261694      -0.00331915       0.00745130
C        8.50897037       2.61437526       4.68542636      -0.00296235       0.00535233       0.00602075
C        7.36868476       2.71795972       5.63828274      -0.00342137       0.00140283       0.00653303
H        8.87545580       3.62569300       4.49789503      -0.00103963       0.00526223       0.00989728
H        9.32585832       2.03807677       5.11679900      -0.00285164       0.00367124       0.00359274
H        8.16812545       2.17931143       3.75052908      -0.00359342       0.00898664       0.00455706
H        6.99230432       3.05600375       7.44296322      -0.00474715      -0.00623222       0.00804910
O        0.96577201       7.85100340       8.86426602      -0.01029289      -0.00412306      -0.02095342
O        1.28429790      10.04463911       8.50228647       0.04834720      -0.00887823       0.00388199
C        1.60430082       8.49042775       6.69038087       0.00371161       0.00414379      -0.01452428
C        1.27273147       8.90544582       8.08749857       0.01675606      -0.00368810      -0.00904286
H        1.24299346       7.48798865       6.47527128      -0.00820107       0.01005180      -0.02125047
H        1.18267956       9.19915503       5.98000068       0.00750338       0.01479800      -0.00618136
H        2.68939504       8.51469987       6.53946089       0.00287208      -0.00452776      -0.02108712
H        0.70386963       8.14754473       9.75206877       0.00423127      -0.00707331      -0.01565158
O        3.93129906       1.67813425       4.13569890       0.01741576      -0.00049281      -0.00986671
O        3.43726283       3.63370399       3.13559008       0.00328176       0.00056052      -0.00171813
C        2.61150632       1.58440649       2.19930708       0.00565445      -0.00203562      -0.00018123
C        3.35329591       2.43068844       3.19356009       0.00905085      -0.00025105      -0.00386092
H        3.30659028       0.87917432       1.74246756       0.00087774      -0.00916456       0.00406411
H        1.83198348       0.99847122       2.68858370       0.00248952       0.00530614       0.00344169
H        2.18602899       2.23185907       1.43831833       0.00850293      -0.00482386      -0.00395589
H        4.54156554       2.22713900       4.66668297       0.01763557      -0.00084737      -0.00921117
O       11.49777881       7.19122399       2.29960584      -0.01165050       0.00395261      -0.00356248
O       11.87779641       8.46420896       0.51377045      -0.00314075      -0.00582746      -0.00883734
C       13.60082999       6.95393433       1.25083556      -0.01037449      -0.00889522       0.00484044
C       12.26222923       7.60006149       1.31281193      -0.00773452      -0.00312096      -0.00310692
H       14.14921264       7.14257839       2.17522481      -0.00825538       0.00426033       0.00095934
H       13.47527101       5.87107677       1.19856114      -0.01662061      -0.00887567       0.02580740
H       14.15232270       7.32739487       0.39597806      -0.00838543      -0.02782390      -0.00211412
H       10.66795827       7.74670416       2.30246670      -0.01042540       0.00607696      -0.00578380
O       12.75626770       2.68005887       1.09054559      -0.00395143      -0.00243008       0.01005268
O       11.80015847       0.88453769       0.20466282       0.00468660       0.00260857      -0.00860986
C       10.53118633       2.24098405       1.74113015      -0.00316215      -0.01531020       0.00113359
C       11.71464849       1.86250577       0.93385500      -0.00091490      -0.00383830      -0.00037207
H       10.51092148       3.30748129       1.95491099      -0.01171446      -0.01644838       0.00496659
H        9.61900775       1.93034720       1.23223469      -0.00211650      -0.01926194       0.00196180
H       10.60910878       1.69197775       2.68456676       0.00458262      -0.01662086      -0.00027299
H       13.48391432       2.31348657       0.56533773      -0.00076729       0.00121289       0.01224154
