193
Lattice="13.34882187255156 0.0 0.0 0.0 13.34882187255156 0.0 0.0 0.0 13.34882187255156" Properties=species:S:1:pos:R:3:forces:R:3 energy=-1262189.875 stress="-0.00015088242071215063 0.0001629340258659795 -0.00024788318114588037 0.0001629340258659795 -0.00020178002887405455 0.0005218719015829265 -0.00024788318114588037 0.0005218719015829265 -0.0011888400185853243" pbc="T T T"
No      13.46857473      15.04011666       2.23418054      -0.00067645       0.01369986       0.01097831
S       11.80747168      13.02689029       1.90149038      -0.02253681       0.03089958       0.01713815
S       11.30181913      14.33077825       3.48186282       0.01822084       0.01258745       0.04394206
O        1.64311948       2.03289683      13.25303580      -0.00365433      -0.00649832       0.00302356
O        0.23790374       2.27179450      11.56066764      -0.00332159      -0.01421992       0.00172400
O       -0.26233173       3.12610347      13.58437280      -0.00556508      -0.00863951      -0.00178026
C        2.34871071       1.41959832      12.11895282      -0.00094306      -0.00618821       0.00474346
C        1.26102468       1.34738567      11.05434883       0.00044523      -0.01058090       0.00360334
C        0.48299996       2.52598660      12.82380730      -0.00463666      -0.00964093       0.00139427
H        2.71881659       0.45831765      12.44620876       0.00137051      -0.00488031       0.00614920
H        3.18000820       2.07230555      11.86594690      -0.00248957      -0.00425443       0.00461515
H        1.56724384       1.69924362      10.07804412       0.00051279      -0.00991316       0.00387922
H        0.79725227       0.36870568      10.95700279       0.00441204      -0.01227942       0.00317463
O        4.03223999       1.32252954       1.44793724       0.00459737       0.02473394       0.00609320
O        4.46323081       1.33591445       3.61460553       0.00303644       0.00459059       0.00617635
O        2.34967936       1.40826649       2.92090034       0.00466773       0.03810588       0.00567383
C        5.46066261       1.05015504       1.53729712       0.00123969       0.00653854       0.00532228
C        5.77040548       1.38491817       2.98844216       0.00380886      -0.00680196       0.00771433
C        3.54571379       1.34454107       2.67951202       0.00413796       0.02305756       0.00620220
H        5.96744032       1.66316339       0.79776701       0.00902227       0.00506422       0.00960986
H        5.60094360      -0.00254099       1.33287556      -0.01225410       0.00614166      -0.00195236
H        6.40249244       0.64697716       3.47031249      -0.00490391      -0.01670063       0.00328104
H        6.15812436       2.39135038       3.14023388       0.01582483      -0.01236871       0.01392290
O        9.40460732       6.15596899       1.81090952       0.00474410      -0.00358048      -0.00693166
O        7.84243371       4.65575229       2.30642127       0.00358024      -0.00014379      -0.00056795
O        7.23694390       6.67402817       1.50763293       0.00740606      -0.00492060      -0.00773780
C       10.10263567       5.09721165       2.51343358       0.00421965      -0.00139320      -0.00322890
C        9.10703883       3.95339213       2.43826295       0.00284561      -0.00066012       0.00348046
C        8.08677798       5.90074731       1.85128306       0.00170210       0.00022116      -0.00705928
H       10.28968251       5.44930697       3.52729779       0.00571913       0.00302491      -0.00520626
H       11.03898855       4.90431437       1.99786731       0.00311121      -0.00469457      -0.00378229
H        9.24251374       3.32557129       1.55601524       0.00133726      -0.00537531       0.00708380
H        9.07093557       3.32998825       3.32683863       0.00258942       0.00501487       0.00724202
O        9.13644171       0.89503503      11.83971003      -0.00215399       0.00098961      -0.00904161
O        9.15371484       3.11362247      11.83249103       0.00153869       0.00086755       0.01185664
O        7.19075986       2.02065515      11.96095675       0.00086462       0.00311075       0.01517012
C       10.53492848       1.26778016      11.97097008      -0.00075057      -0.00219938      -0.01397662
C       10.52094058       2.72017580      11.53786491      -0.00150585       0.00090855      -0.00251043
C        8.38995577       2.00765295      11.88027067      -0.00026828       0.00197536       0.00681128
H       11.11596430       0.62323663      11.31963777      -0.00518529       0.00250626      -0.02206540
H       10.81706013       1.12385378      13.01663410       0.00450558      -0.00984919      -0.01628780
H       11.18511450       3.35930886      12.10855152       0.00423029      -0.00476095      -0.00358415
H       10.69758020       2.84151515      10.47019962      -0.01040946       0.00864638      -0.00319052
O        9.63861296       5.30327680       6.74965650       0.00618990      -0.00958073       0.00040133
O       11.22567963       6.84314499       6.97644967      -0.00706917       0.00345079       0.00255364
O        9.05922309       7.44975673       7.10475165      -0.00850666      -0.01910198       0.00228503
C       10.88300397       4.56945663       6.83269887       0.01236323       0.00031674      -0.00106350
C       11.90752628       5.64668797       6.53629397       0.00347286       0.00975090       0.00133158
C        9.90751626       6.61863936       6.95733483      -0.01003051      -0.00330001       0.00285351
H       10.85382843       3.75986205       6.10624070       0.01909015       0.00236472      -0.00294358
H       10.97637513       4.16167425       7.83850976       0.01529309      -0.00075178      -0.00203878
H       12.83015389       5.54538811       7.09724270       0.00355625       0.01711732       0.00172246
H       12.13466401       5.75721192       5.47675723       0.00306389       0.01336657       0.00181389
O        5.96278952      12.51603002      10.12584470       0.00219893       0.00607401      -0.00291436
O        4.93888428      12.81704834      12.07136230      -0.00112125      -0.00705610      -0.00266248
O        3.98839945      13.58447736      10.17939871      -0.00725174      -0.00521821      -0.00185233
C        6.76272816      11.77888644      11.07320404       0.00671005       0.00843322      -0.00462434
C        6.23027985      12.26021590      12.41278902       0.00166918      -0.00088078      -0.00331128
C        4.88939118      13.03077877      10.74103210       0.00188398      -0.00519130       0.00023088
H        7.80168353      12.04746492      10.91659894       0.00490138       0.01716752      -0.00220077
H        6.60386145      10.71738867      10.88781189       0.01488875       0.00801289      -0.00873132
H        6.07171501      11.46992943      13.14093769       0.00515299      -0.00516841      -0.00696892
H        6.84395337      13.04853841      12.83555427      -0.00376961       0.00064000       0.00156175
O        2.69387908      10.26523614       1.93281132      -0.00835709      -0.00371981      -0.00108184
O        4.84272855       9.98453550       1.43883973      -0.00580108       0.01113489       0.00243840
O        4.17576688      11.86512840       2.47726651      -0.02200523       0.01312178      -0.00852996
C        2.78835437       8.90016611       1.48300952       0.00223315      -0.00425148       0.00378999
C        4.17737067       8.85172397       0.85146696       0.00405785       0.00288591       0.00695619
C        3.92385536      10.79932155       1.99843017      -0.01323533       0.00440073      -0.00424081
H        1.97838785       8.71886411       0.77970653       0.00513434      -0.01184887       0.00240189
H        2.69714232       8.25940726       2.35905069       0.00404188      -0.00181773       0.00588465
H        4.75448935       7.96476524       1.10125718       0.00987144       0.00859544       0.01331852
H        4.15193906       8.99212141      -0.23129798       0.00610864      -0.00396338       0.00597703
O        5.08595959       4.34529159      11.71264607      -0.00743296       0.00080513      -0.00633970
O        7.01209847       4.93552386      10.76741507      -0.00615941      -0.01092614      -0.01106577
O        5.49061347       3.80198060       9.56564678      -0.01057735      -0.02080891      -0.00894916
C        5.89092915       4.84076471      12.79355498      -0.00660667       0.01009491      -0.01112992
C        7.04411122       5.53060654      12.07218407      -0.00681677       0.00255036      -0.01685910
C        5.84192828       4.30869561      10.58835326      -0.00380072      -0.00484967       0.00318027
H        6.22312887       3.99310704      13.39245848      -0.00735644       0.01529157      -0.00288619
H        5.29791367       5.52253097      13.39637868      -0.00644676       0.01579884      -0.01663145
H        6.89554279       6.60567064      11.96754385      -0.00681062       0.00156784      -0.02861137
H        8.01434687       5.31858092      12.51326485      -0.00677672       0.00731558      -0.01379514
O        5.34674813       9.88139360       9.03472120      -0.01395682      -0.00537494       0.01761564
O        4.13744042       8.11721807       8.44860259      -0.01393589      -0.00174979       0.00712584
O        6.19181134       7.81624392       9.31041343      -0.02584791      -0.00614017       0.02742469
C        4.05761749      10.43216263       8.69103292      -0.00691790      -0.00000399       0.00004046
C        3.31957878       9.24877512       8.07164459      -0.00763452       0.00018224      -0.00038567
C        5.30424001       8.53899324       8.95580442      -0.01543665      -0.00682676       0.01951599
H        4.21810740      11.25958826       8.00795354       0.00593170      -0.00625262      -0.00397295
H        3.58505665      10.79444320       9.60402172      -0.01429665       0.00925321      -0.00791973
H        2.32442967       9.09670220       8.48594669      -0.01011685       0.00523191      -0.00490898
H        3.28835449       9.29098785       6.98584701      -0.00172413      -0.00325070      -0.00029856
O       10.85491977       7.69564532       9.87184623       0.00461540       0.00001600       0.00649898
O       12.19911867       7.77410687      11.64264327       0.00075056      -0.00448227       0.00945029
O       12.78459068       8.83851146       9.74281969       0.00430405       0.00364918       0.01356381
C       10.15240075       6.96136779      10.88287807       0.00448233      -0.00764438       0.00086203
C       11.18797753       6.81748634      11.99950219      -0.00053605      -0.00443476       0.00607896
C       12.02986189       8.14681472      10.35582982       0.00112915      -0.00166702       0.01168224
H        9.83338537       6.00997575      10.46276807       0.01346181      -0.00870648      -0.00337309
H        9.27421470       7.54056119      11.17420976      -0.00086483      -0.01453209      -0.00219987
H       10.80423021       7.07159645      12.98613933      -0.00554621      -0.00281174       0.00364175
H       11.64835621       5.83189078      12.01103272       0.00002474      -0.00409305       0.01044171
O        8.72533701      11.13212439       0.18697689       0.00350708       0.00366859      -0.00207317
O        8.90425849      10.66058341       2.35204867       0.00680581       0.00334142      -0.00254488
O        7.98410640      12.61488626       1.71813363       0.00100145      -0.00138420      -0.00153416
C        9.17751742       9.76495330       0.24733569       0.00440216       0.00380132      -0.00305712
C        9.66887249       9.63928836       1.67668043       0.00699019       0.00437140      -0.00387314
C        8.49827944      11.57198634       1.44829277       0.00216067       0.00534004      -0.00111055
H        9.96078381       9.62742633      -0.49455752       0.00318852       0.00428569      -0.00409974
H        8.33054326       9.10568963       0.04331930       0.00453195       0.00336584      -0.00167118
H        9.45430602       8.67697875       2.13139931       0.00855902       0.00415447      -0.00361782
H       10.72761615       9.88482910       1.78125539       0.00673506       0.00565895      -0.00529153
O        9.00913755       2.14040453       7.92015417       0.00315368       0.00105336      -0.00660475
O        8.44471908       0.05867243       8.44500744       0.00706112      -0.00179676      -0.01378200
O       10.51716688       0.79520255       8.90809094       0.00475979       0.00003257      -0.01316980
C        7.58942898       2.04986629       7.62796894       0.00332880      -0.00019807      -0.00612504
C        7.33286020       0.55498617       7.65366063       0.00524211      -0.00084329      -0.01039135
C        9.41917585       0.98297022       8.46043321       0.00721246      -0.00076659      -0.01036659
H        7.41181755       2.49655904       6.65352974       0.00235843       0.00232282      -0.00467303
H        7.04369578       2.59487924       8.39757949       0.00279504      -0.00334477      -0.00457615
H        6.40767613       0.27357402       8.13790004       0.00653219      -0.00344545      -0.00986969
H        7.38446559       0.09147450       6.67097747       0.00450797       0.00250006      -0.01188439
O        4.73350926       5.03462392       6.90486602       0.00138631       0.00858250       0.00286518
O        5.64992492       3.82563123       5.27501552       0.00589147       0.00900442       0.00528719
O        3.63070928       3.24317774       6.10648204       0.03425980       0.02855015       0.00130927
C        6.07368838       5.54441572       6.77032930       0.00161066       0.01061228       0.00536609
C        6.49837876       4.98045289       5.42374474       0.00452489       0.01110056       0.00597537
C        4.57431053       3.96967583       6.10242194      -0.03133750      -0.01969981       0.00324677
H        6.66961531       5.17094454       7.60210883      -0.00115052       0.00890917       0.00580502
H        6.03853529       6.62904049       6.81253526      -0.00075841       0.00822288       0.00577667
H        6.29696735       5.66227809       4.59600425       0.00156428       0.00901845       0.00563300
H        7.53797311       4.66121011       5.40228017       0.00262833       0.01228847       0.00673962
O        1.03775044       3.94092064       9.12526948      -0.01245996      -0.00956476      -0.00037654
O        1.45107699       6.01151578       9.80600318      -0.01167250      -0.00979662      -0.00016500
O       -0.65246921       5.21448929       9.88856878      -0.00814652      -0.01305081       0.00967574
C        2.48787126       4.06247176       9.12407263      -0.01251842      -0.00697899      -0.00951978
C        2.67939747       5.55987902       9.17274376      -0.01467398      -0.00687146      -0.00769748
C        0.51345700       5.07022063       9.63157601      -0.01348937      -0.01084362       0.00431417
H        2.87609503       3.58820984       8.22859150      -0.01741752      -0.00415523      -0.01350605
H        2.87762668       3.57080663      10.01557893      -0.00603443      -0.00833270      -0.01311693
H        3.51727230       5.88074862       9.78265870      -0.01172644      -0.00666258      -0.01204199
H        2.74583465       6.01055441       8.18662128      -0.02117458      -0.00474125      -0.00728899
O       11.85211126      11.33006240       8.09053359       0.01073965      -0.00354826       0.00349425
O       11.94470559      11.72005695      10.27609926       0.00575164       0.00456038       0.00217006
O       13.71281716      12.21610084       8.98432830       0.01123989      -0.00281984       0.00472002
C       10.60070006      10.81745320       8.58606729       0.00897679      -0.00022599       0.00232691
C       10.62996071      11.18660863      10.06950752       0.00619952       0.00387201       0.00122577
C       12.60134913      11.78744301       9.10502577       0.00687814      -0.00179324       0.00369128
H       10.57212503       9.74517599       8.40644803       0.00788998      -0.00064266       0.00534479
H        9.78982740      11.31801291       8.06170178       0.01066715      -0.00042173      -0.00062716
H        9.90968358      11.96083623      10.32364431       0.00538924       0.00399792      -0.00208058
H       10.50559033      10.32070714      10.71691954       0.00535407       0.00538716       0.00327674
O        5.98402860       8.19546184       3.99114065      -0.00194484       0.00958947      -0.00572866
O        5.56181558       9.29419097       5.87419030      -0.00076684      -0.00747867       0.00449079
O        3.85343584       8.58747261       4.58022068      -0.00270736      -0.00176917       0.00231169
C        7.28215041       8.42626874       4.58907199      -0.00106078       0.00925305      -0.00745311
C        6.98434051       9.46317763       5.65867111      -0.00180446      -0.00134873       0.00257125
C        5.02805566       8.69032634       4.80075356       0.00017238       0.00019295       0.00070079
H        7.95571372       8.77656858       3.81712373      -0.00485781       0.01875742      -0.00634065
H        7.65561609       7.49629339       5.01519716       0.00385527       0.00692704      -0.01700059
H        7.50495526       9.27121831       6.59139548       0.00088902      -0.00786991      -0.00039697
H        7.15026450      10.48440618       5.31516771      -0.00566007       0.00231850       0.01142699
O        1.65505138       5.56926860       2.67359217       0.00315438      -0.01577343      -0.00106208
O        3.37373330       5.49134063       4.08845457       0.00466762       0.00163680      -0.00211231
O        1.28868789       5.80063339       4.88578379       0.00800586      -0.00724517      -0.00706613
C        2.78309901       5.21490465       1.86053122       0.00495182      -0.00851789      -0.00188869
C        3.97522522       5.45332633       2.78844840       0.00449049      -0.00534536      -0.00179545
C        2.04072905       5.63807042       3.97997039      -0.00115564      -0.00706834       0.00441384
H        2.78298199       5.84998640       0.97524956       0.00165986      -0.00596914       0.00050941
H        2.67978377       4.17136424       1.55607574       0.00922178      -0.00770652      -0.00448481
H        4.70653020       4.64680875       2.77405481       0.00351664      -0.00575674       0.00199644
H        4.48151154       6.40499608       2.62298928       0.00555137      -0.00695008      -0.00574277
O        2.75981200      13.54971870       6.01600011       0.00059283      -0.00167513       0.00106292
O        3.50546889      11.51000426       5.54546924      -0.00042938      -0.00088289      -0.00366859
O        4.96469912      13.10192579       6.14814739       0.00044048      -0.00279790      -0.00207886
C        1.57096554      12.75830708       5.82214331       0.00033119      -0.00154325       0.00235036
C        2.11070504      11.46684485       5.21081234      -0.00061065       0.00094402      -0.00342208
C        3.83971794      12.76503196       5.91675418       0.00054663      -0.00133705      -0.00133665
H        0.90446358      13.30337475       5.15476834      -0.00265619       0.00022434       0.00682470
H        1.09476018      12.61414920       6.79298403       0.00378796      -0.00513284       0.00349545
H        1.68499075      10.56364030       5.64281281      -0.00053722      -0.00093699      -0.00733246
H        2.02420663      11.43125428       4.12561506      -0.00111530       0.00620814      -0.00363022
O       12.12725574       9.42880976       4.30855536      -0.00501563      -0.00465214       0.00055505
O       10.06497935       9.80652569       5.04102762      -0.00309918      -0.00153109       0.00434256
O       10.60917549       7.76953831       4.25408409      -0.00827393      -0.00238001       0.00135735
C       12.15532304      10.77565191       4.83606329      -0.00176942      -0.00496627       0.00140345
C       10.68497771      11.11483035       4.98053300      -0.00083765      -0.00254151       0.00469897
C       10.91272785       8.89866368       4.52339796      -0.00550011      -0.00154757       0.00231752
H       12.66302711      11.41146768       4.11371420      -0.00217924      -0.00502819       0.00107950
H       12.66807347      10.75571328       5.79626670       0.00038558      -0.00667068       0.00027996
H       10.45640575      11.65310712       5.89504390       0.00180441      -0.00315961       0.00564426
H       10.28203353      11.64396815       4.11890012      -0.00153951      -0.00086924       0.00594738
