199
Lattice="12.561732663054643 0.0 0.0 0.0 12.561732663054643 0.0 0.0 0.0 12.561732663054643" Properties=species:S:1:pos:R:3:forces:R:3 energy=-1019661.5 stress="0.00022294103109743446 0.00029880087822675705 0.0001676507235970348 0.00029880087822675705 -0.0007056141039356589 0.000675024202791974 0.0001676507235970348 0.000675024202791974 0.00030033988878130913" pbc="T T T"
Pm      11.82113341      12.43006382      -0.44330603       0.00154197       0.00668713       0.00428557
I        1.49033813      11.45193470       2.40011266      -0.00018013      -0.00462347       0.00127542
O        0.99032524      12.88333596      -0.86827854       0.00244844       0.00163266       0.00122064
O        0.09445520      12.51091954       1.90969765       0.00514489       0.00395113       0.00404361
O        0.63415570      10.22047002       3.44437249      -0.00420907       0.00481874       0.00867885
O        2.30159936      12.47780618       3.66565712       0.01349843      -0.00692177      -0.00561351
I        6.27338648      12.01465830       4.54058527      -0.00333926       0.00666254      -0.00199818
O        5.95514346      10.26695350       4.39303017      -0.00643829       0.00827831      -0.00990107
O        5.94781241      12.81480842       2.97292726       0.00511970       0.01434514       0.00033149
O        5.28782351      12.76446168       5.81438583      -0.00400230       0.00512889      -0.00125855
O        8.01956949      12.21334742       4.90892944      -0.00379181       0.00039352       0.00342267
I        4.74220997       9.94481722       0.80413797       0.00194807      -0.00677121       0.00319169
O        3.61480049       9.18360523       1.97294173       0.01025945      -0.00968444       0.00508660
O        6.41886649       9.88407871       1.39903485       0.00599325       0.00460888      -0.00374034
O        4.61097108       9.12329810      -0.77389951       0.00458792      -0.00908628       0.00331008
O        4.20963218      11.63581649       0.60157159      -0.00628290      -0.00877523       0.00214762
O        9.89936423      13.43167313      11.03709826       0.00579569       0.00874706       0.00084138
H        9.98955388      13.99023701      10.20606454       0.00911104       0.00362843      -0.00208965
H        9.16675018      12.80045695      10.87883018       0.00389108       0.01002070       0.00119200
O        9.29673679       1.92182792       3.88213992       0.00695178      -0.00589132       0.00559410
H        9.02187054       2.10906909       2.96813106       0.00853796      -0.00241113       0.00732282
H        9.00506485       1.01518451       4.05417198       0.00205383      -0.00524345       0.00378367
O        8.45047771       9.11589450       3.78881835      -0.00016102       0.00664020       0.00190610
H        7.57294556       9.53818729       3.80334706       0.00124709       0.00968774       0.00222820
H        8.69146582       9.03683263       4.74984029       0.00075246       0.00354633       0.00138532
O        3.35638212       0.90317427       7.71306436      -0.00073841       0.00052452       0.00495782
H        2.38833597       0.88524266       7.61503437      -0.00147653       0.00087748       0.01052631
H        3.60176655       1.83476563       7.60457083      -0.00145970       0.00010562       0.00221238
O        8.66741750       4.12212594      11.42995395      -0.03483117      -0.00431962      -0.01897588
H        8.62361396       4.08934061      10.45926373      -0.04567170      -0.00636590      -0.01854798
H        7.74433673       3.98121546      11.69491562      -0.02913958      -0.01651561      -0.00614126
O        0.23141948      10.16165038       0.32539699      -0.01409868       0.00698549       0.01145521
H        0.58874972       9.60492193      -0.43091063      -0.01070020       0.00445862       0.01483411
H       -0.33314287       9.55501199       0.82477992      -0.02968677       0.01608023       0.00426265
O        7.91474489       6.72841472      11.65962959      -0.01799309      -0.00398789      -0.01250179
H        8.37864911       5.88432856      11.81483357      -0.02842292      -0.01034620      -0.01669668
H        8.29475674       7.42446968      12.23360013      -0.01079483      -0.01057148      -0.00937557
O        2.10667323      10.70119568       9.37612258       0.00594541      -0.00637265       0.00982042
H        2.60368695      11.39023493       9.87160409       0.00455196      -0.00325915       0.00647722
H        2.79055376      10.38740245       8.74456459       0.00555938      -0.00569761       0.00902052
O       12.85016812       3.79645727       4.67963900       0.00720807      -0.00569499      -0.02083674
H       12.00527122       4.18629627       4.96275439       0.00479394      -0.01549813      -0.01517522
H       12.93421168       4.03319317       3.73745606       0.00403050       0.00562294      -0.01825625
O        8.45697392       3.46770592       5.95478520       0.00220559      -0.00415441       0.00333810
H        8.72479440       2.83547177       5.24936231       0.00459185      -0.00520135       0.00587146
H        7.54259848       3.74225968       5.71353372       0.00298724      -0.00340621       0.00000432
O        4.16798031       4.82934021       3.65131610       0.00912680      -0.02139762      -0.00023863
H        3.47331848       4.97146618       4.34206968       0.00676504      -0.01536494      -0.00391783
H        3.91986378       3.99074821       3.22792242       0.01084175      -0.02583867       0.00590739
O        8.57530769       2.63048217       1.29376038       0.00724420       0.01945064       0.00722824
H        9.18012666       2.65415364       0.53472708       0.00380914       0.01283626       0.00468858
H        7.78357661       3.15262388       1.03461918      -0.00107267       0.00398894       0.00244154
O       10.43121007      10.40578913      11.32527331      -0.00264426       0.00234893       0.00210065
H       10.70145170       9.77837925      10.64531833       0.00032437       0.00561190       0.00053999
H        9.82583471       9.90944384      11.92740134      -0.00238883      -0.00172862      -0.00144681
O        0.50098839       4.58581639       1.94473090      -0.00882664       0.00155666      -0.01727535
H        1.39592880       4.74133992       1.56822612      -0.00696135      -0.00186964      -0.01645155
H        0.15899338       5.48377323       2.04436697      -0.00829822       0.00225550      -0.02594839
O        4.18833446       3.71389025       7.45930216      -0.00423615      -0.00301945      -0.00382400
H        3.42077389       4.06858702       6.93956765      -0.00200474      -0.00435250      -0.00902036
H        4.43508915       4.43843880       8.07235756      -0.00719203      -0.00089422      -0.00508496
O        5.93312711      12.55405984       8.65223186       0.00049838       0.01233844       0.00411174
H        5.25865234      12.61216808       9.36673187       0.00091462       0.00810872       0.00451608
H        5.40956425      12.66109556       7.84088948      -0.00204639       0.00666300       0.00513339
O       12.25066387       7.54209255       3.85314042      -0.00447323       0.00627717       0.00044513
H       12.89045071       8.21628790       3.57884931      -0.00400186       0.00792764       0.00162005
H       12.07478903       7.73202947       4.78639258      -0.00430808       0.00400025      -0.00114566
O        2.79144494       2.07409185       0.16680936       0.01999880      -0.01038113      -0.00679928
H        3.11461350       1.92598867       1.08677379       0.01109229      -0.00380078      -0.00332761
H        2.08235507       1.42863410      -0.06297167       0.01485133      -0.00562537      -0.00504164
O        4.35084350      10.15464404       7.91581854       0.00702105       0.00142556       0.00246203
H        5.06654445      10.52542625       8.44803273       0.00849131      -0.00395851       0.00430700
H        4.68642941       9.27344058       7.63455183       0.00434479       0.00144213      -0.00085138
O       10.49543395       4.86874903       8.52480472      -0.00597794      -0.00250889      -0.01517785
H       11.09569498       5.22445634       9.18944562      -0.01524377       0.00287166      -0.01271150
H        9.61135600       5.23451713       8.70016128      -0.01154825      -0.01287045      -0.01785584
O        2.95372627       4.69477058      13.28245224      -0.00586766      -0.00649494      -0.00264722
H        2.77512641       3.82058625      12.88958198       0.00365637      -0.00797305      -0.00426258
H        3.20723598       5.29308137      12.56203067      -0.00749350      -0.00397798      -0.00018796
O        1.74908172       7.20401022       6.86408716       0.00592351      -0.00646639      -0.02560616
H        0.81392016       7.45183482       6.80229986       0.00788248       0.00329036      -0.01064838
H        2.17215524       7.69708741       6.13503172       0.00394060      -0.00240649      -0.02421874
O        3.89115361      12.49088041      10.43816653      -0.00286520       0.00417911       0.00193349
H        3.52580031      13.37671336      10.23673532      -0.00627505       0.00056922      -0.00407273
H        3.96529761      12.41954855      11.40183872      -0.00678240       0.00979270       0.00332579
O        3.73025377       2.01850144       2.67302945       0.00278829       0.00112951      -0.00018352
H        3.09928781       1.42809998       3.13994102       0.00094765       0.00061053      -0.00310639
H        4.56255495       1.52233074       2.75390362       0.00214422      -0.00054216       0.00135681
O        1.07059443       8.74128437      10.85472327      -0.00136228       0.00553125       0.02079066
H        0.28088960       8.54045927      10.31599092       0.00015339       0.00523017       0.01876693
H        1.56697570       9.41131250      10.31550458       0.00366867       0.00191703       0.02017500
O        5.51840190       6.15277806       1.52043196      -0.00215781      -0.01645139       0.00435855
H        6.29630302       6.45265175       2.05121451      -0.00474234      -0.01067192       0.00455559
H        4.86475637       5.84092799       2.17698418      -0.00062695      -0.01990910       0.00478454
O        5.99188280       4.40798726       5.64246931       0.00428528      -0.00622883       0.00245590
H        5.44026415       4.54154515       4.83764513       0.00552473      -0.00959609       0.00067043
H        5.35545707       4.06215168       6.32345330       0.00298060      -0.00555459       0.00117800
O        9.79831914      10.83579177       8.25395209      -0.00221676      -0.00143287       0.00002261
H        9.39860752      11.65455730       7.88378246      -0.00139426      -0.00278303      -0.00357933
H        9.51370016      10.12396770       7.65109224      -0.00148216      -0.00363582       0.00224596
O        0.08291365      10.80339081       6.07278848       0.00014198       0.00664163       0.00748959
H        0.16524985      10.71754475       5.10041847      -0.00194219       0.00694055       0.00717479
H        1.03018223      10.85889725       6.31800500       0.00083485       0.00439058       0.00541404
O        8.89572351       8.91433083       0.38771727      -0.00029927      -0.01218733      -0.00525268
H        8.14328639       9.30631539       0.85187544       0.00041521      -0.01277521      -0.00189099
H        9.51558393       8.49359949       1.04017856       0.00124119      -0.01289169      -0.00768690
O        8.93809771       7.56374464       9.35447128      -0.00261410      -0.00279786      -0.00749451
H        8.23186210       8.21340823       9.17535798       0.00440487       0.00606346      -0.00256675
H        8.60903330       7.17641494      10.20719173      -0.00722857      -0.00522512      -0.01073384
O        2.45583830       4.84770479       5.75593335       0.00131324      -0.00842004      -0.00854395
H        1.62261520       4.41039341       5.42918752       0.00247166      -0.00736280      -0.01269968
H        2.14351408       5.66879173       6.20334696       0.00067163      -0.00475025      -0.01439510
O        0.40259213       5.76404188       9.72238820      -0.00618798       0.00938214      -0.01205826
H        1.21687785       6.25942088       9.84989783      -0.00177532       0.00282651       0.01020817
H        0.66031178       4.93319733       9.23221358      -0.01109982       0.01727012      -0.00368479
O        5.04405401       7.71049514       6.96688927       0.00190385       0.00064261      -0.00029069
H        4.41589960       7.81764121       6.22351823       0.00310043       0.00194504      -0.00135599
H        5.90964575       7.56134159       6.52998536       0.00220051      -0.00255426       0.00107192
O       10.23668974       2.17543593       8.83042464       0.01346943      -0.00717466      -0.00852724
H       10.33350999       3.14421937       8.70314834       0.00707369      -0.00764984      -0.00843956
H        9.60357882       1.84976105       8.17043958       0.00944325      -0.00956364      -0.00408193
O        4.38450335       6.39474741      11.47697698       0.00224010      -0.00833236      -0.00120014
H        4.18279856       7.34454045      11.50549472       0.00980118      -0.00672227       0.00266916
H        5.03602684       6.31049061      12.19675976       0.00217052      -0.01556705      -0.00255619
O        0.52705918       1.00287770       7.48948957      -0.00031526       0.00460497       0.01966071
H        0.20756426       0.58819961       6.67999123       0.00137115       0.00658190       0.01517081
H        0.02975379       0.56530551       8.20246978       0.00084539       0.00754087       0.01315165
O       10.36192071       5.06763406       5.12873168       0.01029576      -0.00970408       0.00514615
H       10.43468375       5.89852726       5.60490128       0.03508787      -0.02361348       0.02170201
H        9.62535548       4.55701495       5.56772734       0.00864965      -0.00667034       0.00599343
O       11.52553396       2.23749384       0.88834733       0.00110136       0.00217654      -0.00008664
H       11.59105212       1.77640363       1.73741232      -0.00547696       0.00665630       0.00301987
H       12.08169475       3.02718068       1.01901408      -0.00281458       0.00489381       0.00108223
O        3.23059828       2.63046412      10.19611070       0.00376379       0.01031922      -0.00867672
H        4.01527580       3.07397370       9.86153518      -0.00024420      -0.00358009      -0.01196992
H        3.25665664       2.61663793      11.17392857       0.01118376       0.00438090      -0.00612217
O        1.14691089       3.54224278       8.55891973      -0.00941885       0.01072735       0.00871244
H        1.80757891       3.10119481       9.11943802      -0.00344196       0.01443763       0.00529066
H        0.70342120       2.83723212       8.06062389      -0.00690606       0.00693151       0.00958002
O        7.65594219       6.67200344       3.03362239      -0.00761309       0.00675086       0.00764036
H        8.36988721       6.03753716       2.79586088      -0.00434867       0.00944544       0.01051202
H        8.07339313       7.55759074       3.11015588      -0.01104707       0.00882843       0.00675077
O        9.72292157       5.00106495       2.50597761      -0.01287380       0.00424758       0.00935581
H        9.56318727       4.10577592       2.17093366      -0.02972133       0.01003200       0.00706343
H       10.03718248       4.94015558       3.43807740      -0.00592147       0.00216079       0.00231670
O        1.27115269       7.48223705       1.24937010       0.00793248      -0.00013271      -0.02228275
H        1.19632254       7.41014248       0.29163839       0.00621725       0.04123493      -0.00113252
H        2.11323764       7.93453198       1.38942589       0.00596130      -0.00760765       0.00878018
O       10.64791615       7.42272394       1.61918610       0.00349915      -0.00656582      -0.00539625
H       11.16318632       7.59164384       2.43387797       0.00056207      -0.00291179      -0.00407511
H       10.36942914       6.49480272       1.71544939      -0.00366999      -0.00342518       0.00115757
O       11.49578547       7.97653404       9.19622426      -0.00049260       0.00874427       0.01197803
H       11.92237188       7.09307078       9.29034615       0.00427090       0.00891539       0.01109212
H       10.50443501       7.83338441       9.29070889       0.00076634       0.00349750       0.00691466
O        6.33128536       3.89251470       0.43207475      -0.01174454      -0.01560330       0.01070407
H        5.54462865       3.34027886       0.41772437      -0.01251280      -0.01351824       0.01269292
H        6.03794272       4.75209256       0.85060203      -0.00832936      -0.01403983       0.00795707
O       10.57427188      10.24823608       2.56808097       0.00220522      -0.00550348      -0.00613482
H        9.84664139       9.86226688       3.09978811       0.00108689      -0.00271326      -0.00621678
H       11.40151996      10.25838037       3.08065344      -0.00016555      -0.00087460      -0.00135669
O        7.32627655       6.74769163       5.82189826       0.00185636      -0.00219364       0.00598270
H        7.43897132       6.76720995       4.84896897      -0.00022145      -0.00140035       0.00554624
H        6.88611055       5.87688908       5.95190838       0.00388394      -0.00299603       0.00561873
O        7.52539355      12.69585385       0.59233571       0.00282913       0.01269725       0.00386289
H        7.73298978      13.60258892       0.88611996       0.00290246       0.00988817       0.00802144
H        6.92687688      12.35731453       1.27217306      -0.00108446       0.01080769       0.00059591
O        2.78354143      10.93957001       5.88496569       0.00050922       0.00148152       0.00505896
H        2.77581809      11.66859165       5.23660230       0.00104527      -0.00079912       0.00203982
H        3.47340537      11.10800489       6.55162167       0.00024357       0.00397736       0.00390819
O        5.26794388       5.75988155       8.91072368      -0.00329069      -0.00504721      -0.00517660
H        5.01140581       6.03847157       9.81361790       0.00001273      -0.00492663      -0.00408229
H        5.09236716       6.50812036       8.29997407      -0.00189243      -0.00315423      -0.00390826
O       12.09131061      11.77781548       9.53964587       0.00136711      -0.00451449       0.00318128
H       11.39380678      11.33007310       9.01850148       0.00215425      -0.00301149       0.00091480
H       12.94981189      11.35477493       9.33098641       0.00142324      -0.00456870       0.00359113
O       11.70313903       8.39608849       6.60069461       0.00712745       0.00239953       0.00896743
H       11.64960390       8.26511700       7.58836011       0.00496949       0.00417173       0.00891627
H       12.05361246       9.32520009       6.46647076       0.00330732       0.00391469       0.00834119
O        7.97900866      11.47883634      10.24774462       0.00781478       0.02058183       0.00242740
H        7.33773602      11.88084102       9.63640795       0.00504816       0.01896811       0.00428481
H        8.68422762      11.12534993       9.66655760       0.00363806       0.01600347       0.00020389
O        7.81051638       4.52007819       8.75096898      -0.01304360      -0.01354536      -0.01582870
H        7.88090490       4.02676889       7.92264909      -0.00504350      -0.01858687      -0.01374051
H        6.96532973       5.00898516       8.74190424      -0.00296503      -0.02057712      -0.01396268
O        9.08868558       8.79936938       6.36060609       0.00411656      -0.00309686       0.00016853
H       10.04143483       8.53402393       6.39621626       0.00405645      -0.00181123       0.00197665
H        8.55528510       7.99734069       6.51475681       0.00527418      -0.00395831       0.00036340
O        3.26807191       8.48545900       4.99984035       0.01070941       0.00692666      -0.00831744
H        3.44429758       8.44110261       4.05423895       0.02072513       0.01627998      -0.00708228
H        3.13822406       9.44479879       5.21535338       0.00709784       0.00393933      -0.00059558
O        6.69575543       9.16952691       9.57145633       0.00951198       0.01882727       0.00592604
H        7.08375355       9.93838234      10.03740370       0.01086785       0.01753315       0.00576465
H        6.16721358       8.71865800      10.23901059       0.00978762       0.01945743       0.00490636
O       10.04582471      12.19742226       1.01475359       0.00147060       0.00552601       0.00563291
H       10.21487433      11.47058787       1.69147722       0.00081635       0.00108779       0.00108133
H        9.07593115      12.23453271       0.77632275       0.00238702       0.00665351       0.00447476
O        8.46070374      13.09421755       7.50912992       0.00029734       0.00085932      -0.00081237
H        8.28088072      12.96387813       6.56223133      -0.00317439       0.00032726      -0.00040531
H        7.58691053      13.10733433       7.93914220       0.00190662       0.00685558       0.00119987
