199
Lattice="13.00442540610207 0.0 0.0 0.0 13.00442540610207 0.0 0.0 0.0 13.00442540610207" Properties=species:S:1:pos:R:3:forces:R:3 energy=-388509.15625 stress="-0.0006615882157348096 -0.0007714306120760739 -0.0007488034898415208 -0.0007714306120760739 -0.001095392508432269 0.0002861293905880302 -0.0007488034898415208 0.0002861293905880302 -0.0014227352803573012" pbc="T T T"
Pm      14.09017232      10.05594691       3.49617628       0.00968650      -0.02256773      -0.00720815
O        2.31774092       8.74012397       4.75529920       0.02361429      -0.01198466      -0.00259557
O        4.35074950       8.90899024       5.73739671       0.03110224      -0.00368148      -0.00059375
C        3.15982510      10.83952918       4.83043975       0.00600764      -0.01172793      -0.00754873
C        3.61939402      11.22800530       3.56272736       0.00058815      -0.00230451      -0.00667473
C        2.11116724      11.55139517       5.44588465       0.00377508      -0.01626765      -0.00476226
C        2.95189175      12.23521666       2.86039536      -0.00675668      -0.00510156      -0.00495359
C        1.43189252      12.53640877       4.72513552      -0.00466214      -0.01773781      -0.00015517
C        1.80678806      12.82363793       3.40470288      -0.01083083      -0.01539402      -0.00169115
C        3.37555229       9.38221983       5.20879576       0.00258678       0.00065696      -0.01434931
H        4.44349061      10.69353412       3.09964007       0.00047372       0.00130919      -0.01195404
H        1.79724470      11.27943654       6.44727769       0.00551150      -0.02245626      -0.00553790
H        3.30627126      12.52668908       1.88210661      -0.01006224      -0.00004775      -0.00539035
H        0.58888119      13.04835733       5.17169052      -0.00767490      -0.02384566       0.00308239
H        1.26196057      13.56861152       2.83793613      -0.01788255      -0.01897730       0.00070538
O        5.58973697       9.34376153      13.64922149      -0.01721287       0.01203173       0.00185609
O        7.12921187       7.81365737      13.03925676      -0.01917505       0.00635195       0.00997229
C        7.26334494       9.97336100      12.09267610      -0.01128358       0.00210899       0.00344139
C        8.55697160       9.76321067      11.62185803      -0.01181547      -0.00503017       0.00525267
C        6.59242107      11.13319236      11.71345994      -0.00622146       0.00326805      -0.00146807
C        9.19013776      10.70606452      10.82072397      -0.00787388      -0.01124327       0.00134940
C        7.21401963      12.07836698      10.90808813      -0.00221264      -0.00295059      -0.00541810
C        8.51908008      11.87427906      10.47163696      -0.00311422      -0.01030459      -0.00426512
C        6.60259630       8.94489567      13.01276963      -0.01638591       0.00745451       0.00561213
H        9.04522607       8.84468637      11.91280447      -0.01571745      -0.00582713       0.00932690
H        5.57823818      11.27449028      12.06550197      -0.00567189       0.00898675      -0.00229396
H       10.19405152      10.52563999      10.45404063      -0.00874241      -0.01706921       0.00222034
H        6.68247119      12.97643615      10.61912891       0.00144319      -0.00230470      -0.00995288
H        9.00695557      12.62008726       9.85613938      -0.00016580      -0.01550683      -0.00795984
O       12.06876173      10.61706381       4.57153197       0.01552871      -0.02732360      -0.00343890
O       12.33288124       8.60476822       3.70756785      -0.00302574      -0.02170902      -0.02081951
C       10.24304532       9.03944992       4.70171203       0.00482017      -0.01037239      -0.00697851
C        9.79332211       7.81257666       4.20922502      -0.01302756      -0.00402883      -0.00486114
C        9.39705524       9.83188849       5.47452551       0.02133450      -0.00131059       0.00095119
C        8.49953420       7.39760846       4.45361802      -0.01553096       0.01147764       0.00717749
C        8.10105023       9.40607152       5.72237248       0.01943678       0.01339347       0.01281080
C        7.64431672       8.20113122       5.20061106       0.00121436       0.01971550       0.01636389
C       11.60002124       9.45448714       4.32615464       0.00674134      -0.02215045      -0.01204962
H       10.46976140       7.21604702       3.61415312      -0.02581152      -0.01207576      -0.01117127
H        9.75119151      10.77957163       5.85699934       0.03735939      -0.00672731      -0.00125786
H        8.15689676       6.45723538       4.04570191      -0.03135053       0.01756966       0.00851795
H        7.42349733      10.01996979       6.30028344       0.03311890       0.02127348       0.01923320
H        6.61806715       7.90396753       5.36943975      -0.00043324       0.03143284       0.02382490
O       11.69272797       3.28628171       1.28558261       0.00487372       0.00719327      -0.00029847
C        9.77021885       3.16735360       2.69638109       0.00500524       0.00972411      -0.00108543
C       10.95734577       3.76912831       3.44872081       0.00573872       0.00543333       0.00076282
C       10.42614615       2.61370071       1.42487845       0.00642455       0.00507798       0.00225776
C       11.79425134       4.28885383       2.29309806       0.00763497       0.00473191       0.00200206
H        9.24763344       2.39727965       3.26396950      -0.00007537       0.01284583      -0.00172798
H        9.04618219       3.94353354       2.44003462       0.00950544       0.01280490      -0.00440393
H       10.67587435       4.54652275       4.16036412       0.00764047       0.00525858       0.00157312
H       11.50707142       2.99036999       3.98413208       0.00316124       0.00318044      -0.00004047
H       10.63244775       1.54320357       1.50215197       0.00839287       0.00583613       0.00843038
H        9.81388546       2.79169922       0.53650118       0.00721183      -0.00087281       0.00072229
H       11.38889074       5.24362023       1.92725801       0.01041821       0.00641143       0.00370520
H       12.85113474       4.42797149       2.52705977       0.00791007       0.00112850       0.00258067
O        8.88368003      10.72648948       2.39740222      -0.00734445       0.00576514      -0.00224289
C        7.04345566      12.10775632       1.96294471      -0.00621945       0.00765504       0.00058219
C        8.28310553      12.82760742       1.42788395      -0.00642504       0.00625545      -0.00212315
C        7.65451940      11.16282292       2.97796666      -0.00583082       0.00667748      -0.00040169
C        9.39975266      11.78199769       1.58255142      -0.00560209       0.00749421       0.00135270
H        6.31679832      12.79344287       2.39818713      -0.00491282       0.00839108       0.00140134
H        6.55386922      11.52165814       1.18738792      -0.00843924       0.00862753       0.00129968
H        8.17388266      13.14849046       0.39358222      -0.00716108       0.00176612      -0.00335661
H        8.49380583      13.70919812       2.03398673      -0.00647151       0.00908604      -0.00627893
H        7.84790156      11.67849414       3.93168986      -0.00392421       0.00554755      -0.00023013
H        7.05370235      10.27418863       3.17018522      -0.00639346       0.00701326      -0.00015422
H        9.69023634      11.34376362       0.62544203      -0.00085864       0.00898126       0.00222135
H       10.29626130      12.20877251       2.05480946      -0.00824842       0.00836596       0.00544807
O        2.43271082       3.73556586      10.69221181       0.00374278      -0.00353956      -0.00187228
C        1.11755576       1.88724632      10.05607428       0.00210863      -0.00383803       0.00300299
C        1.88772032       1.52502527      11.32411121       0.00290167      -0.00173515       0.00301498
C        1.93980448       3.05552354       9.53275638       0.00259635      -0.00568166      -0.00007841
C        2.25112011       2.90800865      11.84878229       0.00418188      -0.00099802      -0.00003238
H        1.03886313       1.06887697       9.34093808       0.00063713      -0.00512283       0.00473678
H        0.11063214       2.22718288      10.30553272       0.00267687      -0.00250325       0.00321199
H        1.29996125       0.95000063      12.03951767       0.00337096      -0.00004477       0.00462742
H        2.78527619       0.95314688      11.07241574       0.00250176      -0.00252971       0.00347832
H        2.78996869       2.70402768       8.93179660       0.00193501      -0.00760870       0.00027418
H        1.35769184       3.76103021       8.93545058       0.00274903      -0.00672379      -0.00124490
H        1.43452403       3.31630074      12.45790009       0.00483531       0.00062513      -0.00034747
H        3.16872020       2.92894387      12.44000088       0.00455296      -0.00039715      -0.00075233
O        4.71922315       1.69788379       2.86271897      -0.00939518      -0.00181183       0.00082916
C        2.95933438       2.88733165       3.95674388      -0.00940460      -0.00358045       0.00192869
C        3.84713018       2.14539019       4.96862433      -0.00599068       0.00022741       0.00175488
C        3.63997980       2.60418538       2.59933884      -0.01088789      -0.00365366       0.00147012
C        5.14387061       1.97790250       4.19217735      -0.00738540       0.00052943      -0.00044268
H        1.92688147       2.53811100       3.98696940      -0.00798005      -0.00754826       0.00354964
H        2.94038730       3.95914297       4.15570415      -0.01197128      -0.00322497      -0.00004601
H        3.98649917       2.67436900       5.90648585      -0.00457109       0.00266565       0.00017020
H        3.43677919       1.16141191       5.19494257      -0.00414902       0.00015193       0.00462871
H        2.98190406       2.12103765       1.87406283      -0.01167491      -0.00498903       0.00319943
H        4.04730537       3.51604168       2.15399886      -0.01279274      -0.00364363      -0.00023666
H        5.73768347       2.90457124       4.21393894      -0.00825462       0.00115132      -0.00262777
H        5.76779339       1.15052468       4.53256330      -0.00581163       0.00181407      -0.00034414
O        6.15748181       2.97322536       7.09014423      -0.00271247       0.00542894       0.00533460
C        8.11180747       4.29673017       7.05176282       0.00057870       0.00082350       0.00595465
C        6.91161975       5.17946692       6.71390398       0.00230303       0.00388074       0.00820968
C        7.54562902       2.91684014       6.74857285      -0.00267655       0.00223312       0.00572276
C        5.75713367       4.34538043       7.24155248       0.00111151       0.00594515       0.00871901
H        9.00220824       4.52854196       6.46714625       0.00038597      -0.00080150       0.00510803
H        8.36856270       4.38793128       8.11095598       0.00221153      -0.00044447       0.00558597
H        6.95531788       6.17124593       7.16054621       0.00545328       0.00320297       0.00928128
H        6.82409953       5.29860363       5.63122734       0.00130112       0.00543074       0.00855672
H        7.64930967       2.68345744       5.67936136      -0.00314270       0.00201533       0.00583410
H        8.00441578       2.10833226       7.32147628      -0.00430842       0.00130922       0.00569087
H        5.57054569       4.54509527       8.30261573       0.00361008       0.00462993       0.00934774
H        4.82532138       4.50539233       6.69390480       0.00032035       0.00938371       0.01103982
O       11.50418997       2.96282682       8.32282973       0.00361248      -0.00399010      -0.00069149
C       11.07124034       1.52239235       6.52062763      -0.00180885      -0.00138997      -0.00080079
C       10.70066749       0.79018093       7.80873832      -0.00241826      -0.00151610      -0.00119427
C       12.03531906       2.56915769       7.05643091       0.00188860      -0.00511062      -0.00088766
C       10.62062018       1.94018852       8.81056780       0.00208689      -0.00224519      -0.00017270
H       11.50465491       0.87040236       5.76263204      -0.00445607      -0.00183046      -0.00178194
H       10.19159891       2.00575556       6.08739588      -0.00089303       0.00133133       0.00046600
H        9.77324102       0.22333470       7.73670462      -0.00415936       0.00139317      -0.00079893
H       11.49682613       0.09443909       8.08573591      -0.00435787      -0.00414987      -0.00255297
H       13.03983336       2.14053346       7.18871604       0.00046575      -0.00867963      -0.00163202
H       12.12392700       3.45998527       6.43149368       0.00412613      -0.00517660      -0.00038014
H        9.61052228       2.35990306       8.86815712       0.00328484       0.00016789       0.00180733
H       10.92338044       1.65407468       9.82118177       0.00307047      -0.00393909      -0.00105774
O       12.44104573       6.92048211      11.14925502       0.00077498       0.00964135       0.00560977
C       10.32351875       6.33027612      12.05048808       0.00345147       0.00105448       0.00546813
C       10.95695362       5.10389379      11.39572607       0.00657165       0.00465089       0.00210302
C       11.14437129       7.46134337      11.44205604      -0.00053674       0.00494033       0.00767812
C       12.42220731       5.50294268      11.38367522       0.00541332       0.00912207       0.00229978
H        9.25520917       6.44336646      11.87931285       0.00314769      -0.00209499       0.00565997
H       10.47076343       6.29175428      13.13322310       0.00416501      -0.00114628       0.00523511
H       10.77609451       4.18396804      11.94582312       0.00967645       0.00271651      -0.00021414
H       10.57908833       4.97253659      10.37870732       0.00626323       0.00633381       0.00213021
H       10.70374905       7.83493763      10.51258188      -0.00233814       0.00514944       0.00858998
H       11.25927894       8.31384349      12.11956325      -0.00297078       0.00371173       0.00949913
H       12.89101335       5.28465183      12.35256072       0.00665247       0.00836945       0.00140309
H       13.01849515       5.02373887      10.60562237       0.00634536       0.01274209       0.00090241
O       10.74628649       8.59064826       8.19343729       0.00289965      -0.00144178       0.00152975
C       12.44549073       7.31350150       7.15222565       0.00496364      -0.00008959       0.00370735
C       11.42838016       6.36464764       7.78238902       0.00481910      -0.00073439       0.00214782
C       12.15270662       8.60327574       7.90680681       0.00337493      -0.00050068       0.00351593
C       10.22227876       7.27795936       7.94822139       0.00419131      -0.00144023       0.00021335
H       13.47895452       6.99109821       7.27308631       0.00497121       0.00039262       0.00499938
H       12.24865867       7.43035549       6.08479707       0.00591360      -0.00022603       0.00354263
H       11.20270184       5.48938008       7.17566700       0.00647423      -0.00112964       0.00224957
H       11.79051117       6.01919685       8.75057231       0.00365691      -0.00006724       0.00272539
H       12.71084307       8.63210492       8.85037300       0.00172144      -0.00087515       0.00437009
H       12.37706441       9.50793181       7.33451010       0.00353653      -0.00042766       0.00415453
H        9.61612286       7.30326997       7.03621542       0.00601578      -0.00162551      -0.00104332
H        9.57387441       7.00026038       8.78479106       0.00266066      -0.00198968      -0.00124604
O        5.45358964       5.16267755       1.41778759      -0.00745870      -0.01036006      -0.00802866
C        3.71389263       6.41221633       2.40731854       0.00938761       0.01185110      -0.00734389
C        4.85524347       6.19910274       3.42445138       0.00877875       0.00173987      -0.00903356
C        4.33641095       5.98378473       1.06767013       0.00144649       0.00215574      -0.00731453
C        6.04079143       5.84164559       2.52323310       0.00239328      -0.01611127      -0.01006401
H        2.83819848       5.81161583       2.66005004       0.00368753       0.02205913      -0.00368896
H        3.39649866       7.45212630       2.36559770       0.02211669       0.01540077      -0.00988141
H        5.03175467       7.08019581       4.03823392       0.02213590       0.00211245      -0.01353256
H        4.62083930       5.37077210       4.09679340      -0.00004487       0.00803512      -0.00473660
H        3.66842472       5.40116394       0.43475038      -0.00636700       0.00908831      -0.00525171
H        4.70489753       6.85535706       0.51911715       0.01067209      -0.00290537      -0.00880298
H        6.55168552       6.74138261       2.15803745       0.01247838      -0.02327597      -0.01274613
H        6.75969520       5.15946952       2.98109332      -0.00603081      -0.02417931      -0.00919828
O        3.94072045      10.30350557       8.81380461      -0.01733023      -0.01182401      -0.02967063
C        4.97562926       8.36550381       9.61180612      -0.01108360       0.00266084      -0.00239027
C        6.00341380       9.08569678       8.73228487      -0.01070327      -0.00036243      -0.00349703
C        3.67361669       8.92324505       9.06092197      -0.01002237      -0.01079407      -0.01698425
C        5.30839887      10.41159403       8.37938038      -0.01021677      -0.00167874      -0.00428915
H        5.03447250       7.27930902       9.53142212      -0.00397048       0.00241643       0.00963487
H        5.10121224       8.63545614      10.66175868      -0.02031510       0.01523107      -0.00449646
H        6.95719043       9.24164373       9.23585189      -0.00978783      -0.00035936      -0.00556332
H        6.18379707       8.51168761       7.82266725      -0.01328401      -0.00212160      -0.00291136
H        3.40354977       8.41393617       8.12688663      -0.00081816      -0.02223971      -0.01357681
H        2.83019285       8.86752975       9.74940452      -0.01447102      -0.00875506      -0.02242821
H        5.74680949      11.26469179       8.89651897      -0.02308425      -0.00481254       0.01139081
H        5.32895967      10.59555890       7.30195197       0.00749169       0.00957436      -0.00179285
O        1.81406823       7.63472307       0.23115304      -0.00249565       0.00207889      -0.00755741
C        0.49310348       9.51751905       0.67329162       0.00955901       0.00499555       0.00384399
C        1.95064915       9.96636697       0.56620888       0.00880443       0.00253105      -0.01386961
C        0.69137072       8.03562123       0.98744341       0.01556447       0.00796157       0.01307985
C        2.57029010       8.78855167      -0.17628598      -0.00559987      -0.00021321      -0.02049401
H       -0.14427886      10.05817414       1.39463793       0.01507640       0.01325156       0.00219336
H        0.00163458       9.63953589      -0.29465178       0.00056523      -0.00643484       0.00734577
H        2.10148010      10.92622821       0.07584241       0.00608927       0.00163057      -0.01601286
H        2.44258657      10.02905876       1.55413939       0.01870696       0.00078705      -0.01897562
H        0.90732340       7.88887820       2.06835345       0.04368261       0.01522352       0.00883073
H       -0.16645327       7.41012452       0.74006516       0.01016769       0.00494698       0.04248840
H        2.45390397       8.92072885      -1.25495849      -0.02398221      -0.00128293      -0.01840478
H        3.62529773       8.65947971       0.06785017      -0.00335670      -0.00363429      -0.03409888
O        8.02336007       3.86505068      11.74634786       0.00175458      -0.00076759      -0.00321518
C        6.21535470       2.78417855      10.69266626      -0.00597635       0.00015262       0.00972837
C        5.72534555       4.10996899      11.27036523       0.00008190       0.00377658       0.00580220
C        7.46713904       2.56811053      11.53111807      -0.00350055       0.00004026       0.00565049
C        7.02644636       4.87070787      11.45160169       0.00276452       0.00072868      -0.00102010
H        5.49081929       1.97519082      10.78968586      -0.00777441       0.00270900       0.01654180
H        6.46756731       2.88449660       9.63340702      -0.01001722      -0.00537489       0.00841430
H        4.99830499       4.62628317      10.64621642      -0.00021467       0.00346774       0.00597727
H        5.27114882       3.94156652      12.24793933       0.00303479       0.00893306       0.00775298
H        7.20567991       2.11240392      12.49609780      -0.00140724       0.00587960       0.00887871
H        8.22532324       1.94174204      11.05256957      -0.00747791      -0.00480047       0.00597909
H        7.32047689       5.38150833      10.52295998       0.00055642      -0.00141686      -0.00273162
H        7.00074687       5.60360035      12.25755692       0.00686930       0.00197643      -0.00206399
