196
Lattice="14.126132664779849 0.0 0.0 0.0 14.126132664779849 0.0 0.0 0.0 14.126132664779849" Properties=species:S:1:pos:R:3:forces:R:3 energy=-575116.0 stress="-0.000103042482805904 6.40975558781065e-05 -0.00014922699483577162 6.40975558781065e-05 0.0003103404014836997 -0.000267579045612365 -0.00014922699483577162 -0.000267579045612365 -0.00012925347255077213" pbc="T T T"
Pm      13.79813940      14.18314456      -0.33473719       0.02744579      -0.00464626      -0.02500647
Br      14.37017705      11.78187387      11.19879426       0.02433991      -0.01538230      -0.01791111
O       13.71484101      12.66974369       9.99702516       0.04049861      -0.00593710      -0.01775169
O       13.50897812      12.36028136      12.62565715       0.03185362      -0.00316324      -0.02104801
O       13.89720605      10.23514461      11.05470100      -0.00817883      -0.00558007      -0.00652713
O       14.90049136      15.20773358      12.86301132       0.00955182       0.00798434      -0.03217465
Br       2.67078087      12.92784225       1.23699297      -0.01241945       0.02787367       0.01218418
O        3.16464267      12.71707228       2.75577576      -0.03313231       0.00070367       0.03371418
O        3.28959601      14.24034228       0.55525492       0.00649989       0.00195622       0.03495485
O        2.87300020      11.58752576       0.36720288      -0.04462181       0.01956248      -0.00124168
O        0.99316027      13.19893933       1.30960585      -0.01730049       0.04180023       0.02110574
Br       7.66667061      13.17729472      13.60553385       0.01262418       0.01343021       0.01188623
O        6.24797216      13.04629471      14.38173011       0.01115489       0.01557544       0.00784802
O        8.07425431      11.73709213      12.97191497       0.01448274       0.01267231       0.01290852
O        7.53774116      14.27422675      12.40199484       0.01701684       0.01305711       0.01099634
O        8.82207818      13.67802515      14.63953961       0.01067698       0.01274079       0.01490045
C       11.51448054       3.43769881       3.58743367       0.00058816      -0.01042902      -0.00572520
C       10.49962224       2.98700352       4.63164256      -0.00124216      -0.00787759      -0.00627008
C       12.17700745       2.27397859       2.85494692      -0.00393829      -0.01154870      -0.00728495
C        9.81557948       4.13637031       5.36269254       0.00151918      -0.00631332      -0.00612821
C       13.15785728       2.73081316       1.78456208       0.00041249      -0.01441109      -0.00508754
C        8.85043385       3.65944635       6.44039505      -0.00203025      -0.00361639      -0.00808054
H       11.02175436       4.08870207       2.85650006       0.00389174      -0.00678155      -0.00469154
H       12.28607007       4.05053268       4.06878082       0.00425068      -0.01579463      -0.00472645
H       10.99741371       2.34426604       5.36476639      -0.00361875      -0.00979477      -0.00606427
H        9.73915202       2.36332415       4.14950004      -0.00272468      -0.00569800      -0.00663468
H       12.70107482       1.64349858       3.57885063      -0.00804056      -0.01463398      -0.00676617
H       11.40067842       1.64424574       2.40781069      -0.00556871      -0.00703427      -0.01039223
H       10.57744894       4.78372729       5.80991559       0.00266835      -0.00893575      -0.00455444
H        9.27780223       4.75877553       4.63931145       0.00449106      -0.00430030      -0.00665769
H       12.65579949       3.27076327       0.97901079       0.00328290      -0.02302319      -0.01276749
H       13.70633945       1.89038254       1.33585839       0.00508076      -0.01665722       0.00522594
H       13.91686885       3.39522077       2.20148212      -0.00559410      -0.00724906      -0.00568625
H        8.10691998       2.97710017       6.02276016      -0.00421450      -0.00001967      -0.00988349
H        9.37860821       3.12603618       7.23400986      -0.00536250      -0.00657965      -0.00777812
H        8.31676937       4.49192553       6.90093675       0.00080468      -0.00174081      -0.00818254
C        6.90107563       3.31388358       2.44878758       0.00680131      -0.00872487      -0.00824250
C        6.96410766       4.77507383       2.01571396       0.00643677      -0.00895813      -0.00899829
C        5.53150371       2.89181348       2.96827331       0.00462043      -0.01003465      -0.01506481
C        8.35004451       5.20869827       1.55307772       0.00832680      -0.00658256      -0.00115489
C        5.48524697       1.44410935       3.43670606       0.00313089      -0.01114190      -0.01840350
C        8.42346658       6.66450221       1.11332719       0.00908109      -0.00604635       0.00091107
H        7.19068454       2.66420516       1.61632308       0.01214204      -0.00892240      -0.00623158
H        7.64593255       3.14509665       3.23663411       0.00304185      -0.00691583      -0.00448766
H        6.64826286       5.41440932       2.84610905       0.00018695      -0.00916487      -0.01103801
H        6.23973746       4.94952227       1.21081358       0.01074770      -0.01115930      -0.01318467
H        5.24934439       3.55652909       3.79035123       0.00016398      -0.01182412      -0.01492929
H        4.78474980       3.04218825       2.18215326       0.00816995      -0.00941194      -0.01806629
H        9.06100584       5.03789411       2.36728730       0.00406328      -0.00619147       0.00251007
H        8.67035265       4.55996249       0.73401192       0.01404614      -0.00530370       0.00008366
H        5.71663292       0.75768821       2.62081853       0.00557758      -0.00905868      -0.01945385
H        4.49832500       1.17644519       3.81613654       0.00168335      -0.01138158      -0.02183321
H        6.20938298       1.27094735       4.23751969       0.00025515      -0.01355509      -0.01664838
H        7.70253260       6.87558749       0.32335356       0.01477240      -0.00620096      -0.00446425
H        8.20006344       7.34368195       1.93770309       0.00181775      -0.00752171       0.00018553
H        9.41383219       6.92059485       0.73248210       0.01162484      -0.00429641       0.00904733
C       12.43091740       1.71865011       9.29837260       0.00173557       0.00005078       0.00858580
C       11.52004527       1.13107685      10.37113961       0.00452280      -0.00363836       0.00877617
C       12.26942786       1.07717792       7.92476935       0.00333145      -0.00131848       0.00896454
C       11.77065430       1.74142226      11.74704911       0.00120950      -0.00166246       0.00865383
C       13.22662491       1.65827251       6.89182460       0.00427854      -0.00220001       0.00938138
C       11.03645649       1.01434019      12.86894007       0.01480424      -0.01245992       0.01016641
H       12.26209832       2.80052714       9.21682167      -0.00170893      -0.00042480       0.00833862
H       13.46863764       1.58943754       9.62315738       0.00202811       0.00353120       0.00878982
H       11.70185294       0.05372619      10.42650464       0.01125987      -0.00261271       0.00943990
H       10.46715885       1.25755730      10.09438403       0.00376856      -0.01038096       0.00826088
H       12.44093854       0.00171215       8.01567381       0.00389086      -0.00120822       0.01010235
H       11.23564093       1.19379286       7.58043795       0.00361124      -0.00239755       0.00801273
H       12.85469813       1.73342346      11.92705722       0.00168228       0.01214834       0.00398915
H       11.48230818       2.79798055      11.74313510      -0.01344529      -0.00596419       0.01078377
H       13.05763568       2.72947956       6.75211880       0.00318750      -0.00270997       0.00692504
H       13.11564005       1.17656059       5.91888569       0.00675977      -0.00476509       0.01039621
H       14.26332479       1.52770878       7.20765490       0.00379772      -0.00025465       0.01167198
H        9.95420039       1.01897711      12.73770457       0.01470286      -0.02337938       0.01372570
H       11.31114517      -0.04983851      12.91252611       0.02690496      -0.00965489       0.00675115
H       11.23277545       1.45905445      13.85534005       0.01305496      -0.01381546       0.01087400
C        8.84351697       7.90210397       7.33014624       0.00301152      -0.00013845      -0.00463749
C        9.72745550       8.41894294       6.20199648       0.00150180      -0.00008027      -0.00570309
C        9.55226433       6.92617907       8.25951051       0.00469214       0.00119229      -0.00419833
C        9.06934054       9.52846997       5.39225203       0.00151718       0.00130224      -0.00359997
C        8.64187089       6.37063414       9.34318198       0.00658178       0.00375997      -0.00145447
C        9.96290150      10.08615197       4.29393619      -0.00016677      -0.00014532      -0.00567159
H        8.47303352       8.74891527       7.91866104       0.00306121       0.00015604      -0.00498714
H        7.95419039       7.42129879       6.90259594       0.00287697      -0.00105838      -0.00327995
H        9.99283658       7.58773461       5.53779648       0.00003472       0.00029173      -0.00679703
H       10.67145168       8.78550122       6.61809694       0.00247398      -0.00095341      -0.00677370
H        9.96661096       6.10263310       7.67039042       0.00358307      -0.00003666      -0.00343797
H       10.40730277       7.42969009       8.72061239       0.00563753       0.00209530      -0.00689939
H        8.14246053       9.14741454       4.95536752      -0.00068924       0.00366469      -0.00141156
H        8.77449668      10.33472427       6.07231294       0.00506667       0.00164559      -0.00237173
H        8.27987239       7.16395782      10.00082574       0.00461102       0.00625412      -0.00557116
H        9.15494324       5.63388837       9.96114730       0.00851341       0.00828420       0.00231723
H        7.76511133       5.88242325       8.91010201       0.00783266      -0.00074441       0.00102018
H       10.86360397      10.53519119       4.71734854       0.00271259      -0.00363201      -0.00792374
H       10.28104023       9.29756243       3.60835303      -0.00513537       0.00004624      -0.00793462
H        9.45229529      10.84921379       3.70542430       0.00046211       0.00248004      -0.00260685
C        4.92968171       6.30162111       4.94113872      -0.00027612       0.00209624      -0.00059402
C        5.01577593       7.81653579       4.77876148      -0.00330687       0.00210923      -0.00235960
C        4.11597286       5.85034784       6.15015514       0.00183097       0.00118673       0.00038645
C        5.81027638       8.25450864       3.55311169      -0.00294259      -0.00042099      -0.00309840
C        4.02037959       4.33680312       6.29299266       0.00408621       0.00094748      -0.00087713
C        5.84455896       9.76472579       3.35087801      -0.00536778      -0.00128156      -0.01000388
H        4.49354962       5.86856331       4.03371856      -0.00029881       0.00031297       0.00022802
H        5.94099020       5.88236200       5.01607339       0.00072795       0.00434786      -0.00138831
H        5.46622189       8.25626814       5.67720369      -0.00466663       0.00430495      -0.00274765
H        4.00547454       8.23100851       4.71603139      -0.00415838       0.00012738      -0.00347187
H        4.55524718       6.27519430       7.05914476       0.00238959       0.00146459      -0.00007010
H        3.10747187       6.27001978       6.07772695       0.00112262      -0.00019757       0.00170363
H        6.83161437       7.86812744       3.64028188      -0.00204593       0.00242795      -0.00021974
H        5.38949036       7.77725754       2.66199599      -0.00061379      -0.00520365      -0.00139776
H        3.53261803       3.88744576       5.42610217       0.00270320       0.00135282      -0.00037599
H        3.44786747       4.05713280       7.17879457       0.00635265      -0.00104364      -0.00012292
H        5.00980589       3.88244162       6.37967131       0.00495920       0.00228542      -0.00375168
H        4.84738099      10.16656282       3.16560022      -0.00618553      -0.00413688      -0.01316316
H        6.24007156      10.27089813       4.23466519      -0.00771639       0.00333497      -0.01188450
H        6.46495651      10.04757962       2.49966074      -0.00424138      -0.00458509      -0.01024491
C        8.71903305      11.76877705       9.33911983       0.00224835       0.00339562       0.00457001
C        7.55762911      12.74812852       9.22616574       0.00600653       0.00843048       0.01028505
C        9.95962325      12.16520713       8.55093850       0.00108114       0.00002363       0.00099012
C        6.32940170      12.22921639       9.95857853       0.00510242       0.01251322       0.01206583
C       11.06779560      11.12619632       8.64594589       0.00186247       0.00118127       0.00381526
C        5.12620814      13.15520570       9.90065328       0.00877896       0.01761815       0.01347637
H        8.97443997      11.65156592      10.39710788       0.00512817       0.00069057       0.00374061
H        8.38311255      10.78017527       8.99845431      -0.00288774       0.00539485       0.00420471
H        7.31678101      12.91926222       8.16808800       0.00408933       0.01263247       0.01143011
H        7.84924194      13.71399601       9.64996614       0.01168911       0.00589469       0.01220161
H        9.68844367      12.32616765       7.50045076      -0.00028664      -0.00497026       0.00062385
H       10.32447550      13.12599817       8.91841394       0.00192080       0.00176829      -0.00411223
H        6.06694334      11.25768764       9.53615756       0.00033019       0.01348719       0.01254913
H        6.59983076      12.05000460      11.00099410       0.00600836       0.01176059       0.01172078
H       11.38377887      10.97203945       9.67808813       0.00858496       0.01158642       0.00320432
H       11.95639609      11.41839972       8.08557245      -0.00241250      -0.00406246      -0.00547828
H       10.72179041      10.16457255       8.26088673       0.00011066      -0.00308357       0.01605400
H        5.36639397      14.12084167      10.34492917       0.01383376       0.01742774       0.01062626
H        4.79181522      13.32082417       8.87262826       0.00671887       0.01684847       0.01393420
H        4.28547679      12.74376448      10.46399967       0.00846086       0.02203099       0.01607388
C        1.63100168      10.05454938       4.25011112      -0.01344842       0.00664164      -0.00409958
C        0.95995350       9.33869032       3.08466404      -0.00827026       0.00727907      -0.00747553
C        0.90949168      11.32999836       4.67278341      -0.01473951       0.00659651      -0.00631537
C        1.68569604       8.06914094       2.65117215      -0.00514102       0.00990148      -0.00888951
C        1.62723761      12.09689389       5.77667716      -0.01268575       0.00925067      -0.00982356
C        0.97646752       7.34329571       1.51499189       0.00021958       0.00901701      -0.01002192
H        1.70387138       9.36891839       5.10119239      -0.01576333       0.00666401      -0.00337499
H        2.65701430      10.31242197       3.96684671      -0.01254961       0.00704266      -0.00022849
H        0.89853021      10.02151878       2.23075236      -0.00596205       0.00828397      -0.00681177
H       -0.07269972       9.08925767       3.35729188      -0.00888968       0.00556842      -0.01212242
H        0.81234860      11.97560920       3.79735101      -0.01745236       0.00472313      -0.00741488
H       -0.10710233      11.08092286       4.99616287      -0.01418558       0.00686368      -0.00417948
H        2.70407271       8.32752499       2.34246099      -0.00374672       0.01145391      -0.00318925
H        1.78898671       7.39557769       3.51015223      -0.00629526       0.00950000      -0.00925708
H        1.66122966      11.53178482       6.70798317      -0.00987035       0.01119234      -0.00870325
H        1.13129447      13.04487551       5.98994371      -0.01205812       0.00980291      -0.01115872
H        2.65370124      12.32156118       5.47918069      -0.01326334       0.00863248      -0.01260939
H       -0.03224745       7.04744703       1.81258462       0.00158817       0.00756958      -0.01293346
H        0.88387019       7.98822962       0.63808688       0.00054646       0.00409767      -0.00990504
H        1.50997192       6.44089246       1.21211600       0.00150312       0.01048873      -0.00620651
C        6.21059530       3.45570851      12.25025708      -0.00636446      -0.00827140      -0.00117521
C        4.86588103       4.16551068      12.18417646      -0.00571208      -0.00678027       0.00178814
C        7.37445345       4.43427597      12.18003560      -0.00619566      -0.00837612       0.00138531
C        3.65996889       3.24040968      12.26147294      -0.00823740      -0.00366265      -0.00027055
C        8.73500600       3.75532793      12.19784413      -0.00608850      -0.00827464      -0.00177455
C        2.34166001       3.99759589      12.19406972      -0.00494963       0.00187770      -0.00264971
H        6.27881245       2.86007109      13.16620243      -0.00553887      -0.01108889      -0.00320894
H        6.29159924       2.73058042      11.43472051      -0.00703984      -0.00538757      -0.00380769
H        4.81333777       4.74619291      11.25380296      -0.00544724      -0.00405633       0.00349167
H        4.80708570       4.90393075      12.99470606      -0.00397238      -0.00895657       0.00392917
H        7.27593762       5.04118468      11.27511868      -0.00658251      -0.00475511       0.00349972
H        7.30147103       5.13771294      13.01566769      -0.00575584      -0.01135798       0.00386390
H        3.70751837       2.51348358      11.44574800      -0.00962234      -0.00350443      -0.00056094
H        3.70264278       2.64950129      13.18078772      -0.01209419      -0.00387213      -0.00023285
H        8.84092944       3.11390947      13.07422018      -0.00615766      -0.01309778      -0.00522524
H        9.54948487       4.48370322      12.20760147      -0.00670508      -0.00781079       0.00222427
H        8.86571878       3.11248102      11.32514378      -0.00565749      -0.00357260      -0.00507928
H        2.25762893       4.71630819      13.01323818      -0.00495692      -0.00024053      -0.00084269
H        2.26095247       4.56338901      11.26198244       0.00127525       0.00465976      -0.00130424
H        1.50149484       3.30658966      12.25874999      -0.00814801       0.00543430      -0.00801815
C        4.94828267       9.08797916      10.92624032      -0.00555488       0.00156033       0.00971497
C        4.03320919       8.70536357       9.77133274      -0.00848177      -0.00135678       0.01264506
C        4.81190478       8.18073968      12.14004336      -0.00220051       0.00602034       0.01366567
C        4.19368958       9.60785599       8.55455320      -0.00984785      -0.00339592       0.01053976
C        5.68613120       8.63828487      13.29903792      -0.00092518       0.01227996       0.01038429
C        3.22483214       9.27636882       7.43576213      -0.01554683       0.00012711       0.01385716
H        5.99140844       9.08324373      10.58888369      -0.00639942       0.00069597       0.00707773
H        4.74139829      10.11938451      11.22732803      -0.00431140       0.00292820       0.00635372
H        2.99054314       8.73645812      10.10683273      -0.00770164      -0.00075080       0.01489219
H        4.22662553       7.66588785       9.47641110      -0.01051565      -0.00244012       0.01529872
H        3.76247037       8.15514623      12.45177802      -0.00160006       0.00580517       0.01601247
H        5.06681333       7.15477938      11.85597453      -0.00142485       0.00526348       0.01743593
H        4.05628283      10.64956003       8.85638459      -0.00349791      -0.00230742       0.01053375
H        5.22371023       9.53744280       8.18516419      -0.01150018      -0.00776484       0.00711329
H        6.74125332       8.64084378      13.01823009      -0.00188270       0.01798582       0.00719668
H        5.56851393       7.98790064      14.16810481       0.00523701       0.01273528       0.01148841
H        5.43880038       9.65681417      13.60275873      -0.00561085       0.01098067       0.01052282
H        3.32506785       8.23661236       7.12751839      -0.02112594      -0.00048873       0.01365932
H        2.19191357       9.42862161       7.75430060      -0.01373345       0.00429972       0.01731125
H        3.40011448       9.89828626       6.55939282      -0.01707663      -0.00073056       0.01255769
