190
Lattice="14.045579260038512 0.0 0.0 0.0 14.045579260038512 0.0 0.0 0.0 14.045579260038512" Properties=species:S:1:pos:R:3:forces:R:3 energy=-404610.375 stress="-0.0015055808471515775 0.0005697156011592597 -7.504836321459152e-05 0.0005697156011592597 -0.0011396105401217937 -0.00022166666167322546 -7.504836321459152e-05 -0.00022166666167322546 -0.0003597612085286528" pbc="T T T"
Pm      13.86654740      13.79589765       0.08203518       0.01910126      -0.00540049       0.02038050
Cl       1.86840619      14.06689477       3.03702560       0.01986027       0.00232497       0.03329635
O        1.45020694      14.40799008       4.46234703       0.00398549       0.02431253       0.02327013
O        0.63010878      13.52243818       2.15752790       0.02161330       0.02328557       0.02089966
Cl       7.77726344      12.80874551      13.20549208       0.01019436       0.00856411      -0.00274503
O        7.10207875      13.99806591      12.57140237       0.01738554       0.00922322      -0.01274657
O        8.97627983      12.28487523      12.46039657       0.00386715      -0.00906152       0.00868458
Cl      12.01839594      13.55589288      11.94935302       0.01369235       0.00925267       0.03512210
O       15.26172869      14.39539175      13.18544457       0.03189707      -0.02251932       0.02893251
O       12.67250966      12.35311121      12.90799420       0.00769418      -0.00200057       0.02501628
O       11.74823893       9.69154732       8.95655153       0.00713986       0.00415075       0.00213954
C       12.83249555       8.99764759       9.55246635       0.00720652       0.00684661       0.00510523
C       12.19719130      10.69454617       8.06333413       0.00659689       0.00691009       0.00504655
C       12.29951021       8.03226545      10.58119490       0.00644416       0.00557527       0.00345308
C       11.02538146      11.54962599       7.64896996       0.00556690       0.00525790       0.00510470
H       13.40605231       8.46628479       8.77766625       0.01086503       0.00852793       0.00687382
H       13.51077608       9.72111912      10.02556647       0.00365901       0.00859404       0.00725657
H       12.96211845      11.31040423       8.55636948       0.00437099       0.00737804       0.00761244
H       12.67138846      10.22657577       7.18570541       0.00909917       0.01004872       0.00496578
H       13.12567027       7.49545667      11.04884528       0.00654425       0.01049335       0.00867363
H       11.75251731       8.57001178      11.35513049      -0.00013073       0.00435072      -0.00028646
H       11.63226240       7.29762112      10.13014214       0.01223630       0.00190391       0.00120111
H       11.35096755      12.31608062       6.94459221       0.00534596       0.00843331       0.00864088
H       10.25830005      10.94645940       7.16680490       0.00808509       0.00510444       0.00135459
H       10.58513634      12.03654022       8.51922254       0.00229832       0.00130747       0.00574991
O        3.20032773      10.35989989       5.73657122      -0.00692397      -0.00203012       0.00516098
C        2.06834677       9.51885626       5.82492876      -0.00685639      -0.00284672      -0.00203867
C        2.84169485      11.73402044       5.63066687      -0.00594226      -0.00141674       0.01235519
C        2.52976467       8.08148898       5.83270173      -0.00660591      -0.00270867      -0.00725917
C        4.08694294      12.54655888       5.37935639      -0.00489020      -0.00184631       0.01615994
H        1.49819137       9.75651674       6.73727859      -0.00957623      -0.00739732      -0.00263363
H        1.40176914       9.70954586       4.97049093      -0.00420830       0.00086377      -0.00312471
H        2.13074327      11.86380309       4.80729532      -0.00602981       0.00327516       0.01315117
H        2.33495582      12.05635950       6.55175088      -0.00510323      -0.00548863       0.01418591
H        1.67245407       7.40840205       5.87805865      -0.00699222      -0.00262998      -0.01520306
H        3.09375693       7.86690834       4.92367538      -0.00245114       0.00193688      -0.00573775
H        3.15786722       7.87914282       6.70055645      -0.01066287      -0.00717639      -0.00527978
H        3.82119148      13.60186083       5.32598662      -0.00209566      -0.00076878       0.02608230
H        4.81667866      12.40351158       6.17829704      -0.00383656      -0.01051728       0.01366596
H        4.53469160      12.25518778       4.43096108      -0.00691889       0.00483020       0.01304612
O       13.00859294       2.11883900       3.30670018      -0.00499964      -0.00968233      -0.00515686
C       12.31962434       1.62143085       2.19029987      -0.00431172      -0.00945552      -0.00464630
C       12.63483243       1.46805478       4.52585905      -0.00299886      -0.01018399      -0.00517923
C       12.85380463       2.31586719       0.95432851      -0.00073811      -0.01200992      -0.00435427
C       13.17076365       2.26819831       5.68718927       0.00727746      -0.01413995      -0.00780001
H       12.46334385       0.52537996       2.11187495      -0.00661038      -0.01038158      -0.00277149
H       11.23980348       1.79055166       2.29599413      -0.00433981      -0.00783071      -0.00642821
H       11.54236390       1.41270061       4.57553120      -0.00311172      -0.00571764      -0.00082687
H       13.05851192       0.45897471       4.52531658      -0.00770596      -0.01232415      -0.00920725
H       12.35656625       1.95393102       0.04461248       0.00502878      -0.01697495      -0.00520056
H       12.68601433       3.39131746       1.01267977      -0.00466086      -0.01216920      -0.00855051
H       13.93511595       2.16549290       0.85754884       0.00041489      -0.00809095       0.00294300
H       12.97494494       1.73583294       6.61930855       0.00992950      -0.01243982      -0.00658809
H       14.24737463       2.39981416       5.58682027       0.00750259      -0.02140898      -0.01560124
H       12.68360678       3.24089455       5.75594585       0.01353122      -0.01102281      -0.00656382
O        9.60117513       2.79752168       3.99722142      -0.00596070      -0.00222181      -0.00385442
C        8.56660633       1.93082497       3.56961814      -0.01013682       0.00188828      -0.00119126
C        9.75839814       3.94468946       3.18270827      -0.00602925      -0.00109014      -0.00224414
C        8.56485342       0.71949155       4.47171053      -0.01164797       0.00123790      -0.00224814
C       10.98029898       4.68694151       3.66755992      -0.00259247      -0.00494492      -0.00538129
H        7.59925050       2.45274581       3.60613229      -0.00808424       0.00519961       0.00219370
H        8.74029056       1.63767304       2.52315864      -0.01439214       0.00213696      -0.00204220
H        9.87551784       3.63827650       2.13135462      -0.01081962       0.00046597      -0.00320914
H        8.85223872       4.56785900       3.23853203      -0.00421268       0.00098702       0.00248495
H        7.77012790       0.03288742       4.18388066      -0.01402254       0.00359344      -0.00112517
H        9.51805852       0.19347228       4.40744168      -0.01317665      -0.00107591      -0.00461553
H        8.40880127       1.01633953       5.50893374      -0.00866413       0.00088495      -0.00179599
H       11.14974241       5.58543379       3.07558240      -0.00281540      -0.00434658      -0.00458868
H       10.85755019       4.96802052       4.71410235       0.00221415      -0.00644090      -0.00449917
H       11.86091772       4.05040038       3.59018689      -0.00440487      -0.00697565      -0.00966675
O        4.00207209       3.42825157      12.10187820       0.00557342      -0.00112170      -0.00574833
C        5.05677352       3.22307896      13.01537381       0.00379229      -0.00260389      -0.00494125
C        3.37121246       2.20430293      11.73880993       0.00746858      -0.00053941      -0.01095542
C        5.54796803       4.58112024      13.45204427       0.00088920      -0.00382203       0.00187546
C        2.19902630       2.50972438      10.84089884       0.00461444       0.00106275      -0.00669822
H        4.69634560       2.64731919      13.88227393       0.00346121      -0.00702566      -0.00814557
H        5.85995825       2.62953339      12.55312531       0.00636578       0.00056383      -0.00571802
H        4.09926128       1.55171426      11.23379146       0.00802076       0.00426161      -0.01736382
H        3.02462740       1.67835582      12.63454383       0.01152402      -0.00652549      -0.01341456
H        6.36590544       4.49421395      14.16882310      -0.00161218      -0.00581741       0.00448139
H        5.89133407       5.15828314      12.59295712       0.00339279      -0.00009713       0.00559573
H        4.73103098       5.12820168      13.91764262      -0.00142401      -0.00694281       0.00133767
H        1.69396464       1.58227699      10.57457005       0.00671355       0.00096226      -0.01000908
H        1.48347183       3.14808045      11.36068509       0.00409102      -0.00315075      -0.00174360
H        2.52349236       3.01877313       9.93253658       0.00013637       0.00581111      -0.00517975
O        8.67958522       8.67752676       4.29753387      -0.00091888       0.00573519       0.00178671
C        9.47897326       7.67071132       3.70982733       0.00124008       0.00813870       0.00031918
C        8.87415746       8.74904533       5.69912443      -0.00103033       0.00469679       0.00164670
C        9.18747011       7.59683057       2.22954345       0.00202331       0.01166922       0.00014055
C        7.95473516       9.78750025       6.28850626      -0.00071293       0.00509146       0.00130066
H       10.54306445       7.88996489       3.88711668       0.00066745       0.00968668       0.00142531
H        9.26523783       6.70816111       4.19447679       0.00262167       0.00675920      -0.00209606
H        8.67315248       7.76603322       6.14935674      -0.00135015       0.00473198       0.00123116
H        9.92625213       8.98952553       5.91395774      -0.00105053       0.00436328       0.00193247
H        9.85013239       6.87677633       1.74858503       0.00290908       0.01360358      -0.00141624
H        8.15972657       7.28195643       2.05432229       0.00245708       0.01134867      -0.00110491
H        9.33587736       8.56855247       1.75885336       0.00150073       0.01300898       0.00281859
H        8.14662795       9.87686092       7.35753505      -0.00116598       0.00524902       0.00125839
H        8.11773918      10.76165716       5.82606641       0.00010974       0.00489415       0.00120749
H        6.91085464       9.51228260       6.14547810      -0.00070438       0.00564627       0.00079766
O        9.85619890       4.48044259      11.36471775       0.00323093      -0.00351055      -0.00114885
C        8.76243970       5.20476562      11.88579827       0.00435323      -0.00403315       0.00323603
C        9.54910089       3.10255065      11.22163856       0.00475505      -0.00307021      -0.00207661
C        9.16341893       6.64855731      12.05511374       0.00432245      -0.00376475       0.00098886
C       10.77868207       2.38462935      10.72642541       0.00534177      -0.00191025      -0.00292861
H        7.89680883       5.11305481      11.20954419       0.00167423      -0.00468109       0.00715089
H        8.45781251       4.77106424      12.84968713       0.00887418      -0.00399844       0.00457209
H        9.21647260       2.69170115      12.18544849       0.00470088      -0.00413696      -0.00209653
H        8.71007150       2.98358891      10.52024560       0.00528860      -0.00402775      -0.00255823
H        8.35838551       7.21099962      12.52719424       0.00570264      -0.00345890       0.00296810
H       10.05226042       6.72437059      12.68175812       0.00620931      -0.00299496      -0.00213087
H        9.38544035       7.11090856      11.09366852       0.00115035      -0.00478994      -0.00016707
H       10.54300253       1.33863122      10.52571073       0.00746235      -0.00300992      -0.00090598
H       11.14878798       2.84814391       9.81157163       0.00303297      -0.00221077      -0.00408782
H       11.57495452       2.42080219      11.47081455       0.00640512       0.00183074      -0.00464085
O       10.88298723       5.03142727       7.24662132       0.00377178      -0.00354886      -0.00287301
C        9.48628246       4.99718752       7.47750638       0.00427380      -0.00457305      -0.00103223
C       11.36827315       6.34902249       7.06639773       0.00343561      -0.00297280       0.00079581
C        9.03641007       3.55778898       7.48500186       0.00429620      -0.00458366      -0.00693987
C       12.85393772       6.29217788       6.81221433       0.00379193      -0.00208893       0.00383832
H        9.25473608       5.49679130       8.43065077       0.00582769      -0.00908053       0.00161105
H        8.96693008       5.55031389       6.67822251       0.00314571      -0.00092208       0.00234920
H       10.85581453       6.81130972       6.21167739       0.00468379      -0.00136857       0.00086921
H       11.13993213       6.96679016       7.94622747       0.00162622      -0.00510079       0.00173116
H        7.96396784       3.49676314       7.67582722       0.00456423      -0.00522280      -0.00643014
H        9.25245093       3.09832669       6.52115919       0.00353571      -0.00039247      -0.00899670
H        9.55427593       2.99991189       8.26274892       0.00480129      -0.00807062      -0.00970814
H       13.23974632       7.29912058       6.64672502       0.00379997      -0.00192332       0.00517846
H       13.37724322       5.85266172       7.66162976       0.00208846      -0.00232778       0.00463124
H       13.06854531       5.68961283       5.92883188       0.00584969      -0.00161338       0.00405605
O        4.30721823       8.18945026       2.47766247      -0.00655869      -0.00320634      -0.00321822
C        5.66666198       8.44683269       2.79003093      -0.00755596       0.00073779      -0.00252154
C        4.15165607       7.04439038       1.66808138      -0.00254679      -0.00594936      -0.00005251
C        5.74913954       9.75704008       3.52404016      -0.01098800       0.00100482      -0.00263181
C        2.71350201       6.95602560       1.21931957      -0.00207812      -0.01280242       0.00040708
H        6.07688366       7.62131559       3.39194350      -0.00579502       0.00209969      -0.00200722
H        6.24548519       8.48902466       1.85569343      -0.00716904       0.00176558      -0.00214416
H        4.82203768       7.12000838       0.80026634      -0.00284332      -0.00586204      -0.00025022
H        4.44796711       6.14287039       2.22726970       0.00095213      -0.00326160       0.00232074
H        6.79180089      10.01341606       3.69587968      -0.01154204       0.00231597      -0.00099371
H        5.26759908      10.53750888       2.93809882      -0.01086615       0.00072813      -0.00334202
H        5.22549029       9.70430799       4.47796598      -0.01200221       0.00000782      -0.00336912
H        2.54869999       6.05334979       0.63062129       0.00260771      -0.01293489      -0.00067127
H        2.04643707       6.94115402       2.08159513      -0.00184685      -0.01759368       0.00040354
H        2.45650768       7.81927074       0.60597559      -0.00659499      -0.01348019       0.00148253
O        6.36962064      10.73361929      11.07422921       0.00284070       0.00415337      -0.00011484
C        6.99007163       9.62453945      11.69543406       0.00163662       0.00221410      -0.00074226
C        7.12621134      11.23543734       9.98261752       0.00337327       0.00304782       0.00045916
C        6.05323507       9.09519539      12.75438875       0.00139698       0.00336941      -0.00067499
C        6.31529492      12.30119908       9.28790074       0.00588864       0.00653172       0.00262712
H        7.19623687       8.84860124      10.94043139      -0.00057692       0.00291845      -0.00128427
H        7.95329155       9.92527477      12.12671492       0.00244325       0.00089994      -0.00132042
H        8.07945544      11.63417622      10.34558859       0.00499684       0.00046727       0.00065330
H        7.35155850      10.40550006       9.29596937       0.00043740       0.00382829      -0.00045931
H        6.50613279       8.25738557      13.28612729      -0.00103113      -0.00025427      -0.00444150
H        5.82507141       9.87607907      13.47970299       0.00613774       0.00196637       0.00255001
H        5.11783373       8.75448714      12.30824993      -0.00071600       0.00903316       0.00003077
H        6.88666886      12.72793168       8.46244329       0.00519496       0.00319750       0.00055955
H        5.39002956      11.88600845       8.88589352       0.00277226       0.01031816       0.00643254
H        6.06864493      13.09830527       9.98884274       0.01226690       0.00834967       0.00312613
O        3.95363771      12.01052335       1.84675535      -0.01014084       0.00897002      -0.00916690
C        3.14771859      11.12383191       1.08716593      -0.00996399       0.00721729      -0.00832821
C        5.05542863      12.51874369       1.11914375      -0.01386964       0.01325375      -0.01089635
C        2.09077805      10.54115623       1.99347324      -0.00661743       0.00400756      -0.00640553
C        5.85256668      13.41202721       2.03996428      -0.01379284       0.01203921      -0.00985676
H        2.70498287      11.67280688       0.24089886      -0.01319164       0.00828856      -0.00648937
H        3.77729889      10.32146488       0.67483969      -0.00939494       0.01007509      -0.01108599
H        5.67921497      11.68415953       0.76540710      -0.01288018       0.01607195      -0.01559594
H        4.70973604      13.06629174       0.23295567      -0.01783657       0.01542255      -0.00829822
H        1.45871222       9.84921853       1.43478546      -0.00446822       0.00060915      -0.00484922
H        2.56651479       9.98807352       2.80238292      -0.00331220       0.00407410      -0.00721301
H        1.46177399      11.32816582       2.40528620      -0.00676624       0.00163829      -0.00399586
H        6.68881841      13.86402616       1.50749590      -0.01565412       0.01615937      -0.00997575
H        5.22021282      14.20681446       2.43707575      -0.01482967       0.00909375      -0.00604521
H        6.24593323      12.83616184       2.87843116      -0.01090556       0.00994550      -0.01286335
O        4.31707615       7.56062732       8.81202481      -0.00319088      -0.00195493       0.00066791
C        4.49316431       8.96908980       8.87835964      -0.00483751      -0.00208363       0.00004077
C        5.43380310       6.90868652       8.24491386      -0.00290954      -0.00119740       0.00021835
C        3.26354898       9.57824216       9.50317198      -0.00457120      -0.00369917       0.00189483
C        5.14071343       5.43015979       8.17392226      -0.00001314      -0.00179482       0.00345971
H        5.38013845       9.20314004       9.47821521      -0.00395590      -0.00057156      -0.00139129
H        4.65145760       9.37061264       7.86667827      -0.00709537      -0.00198345      -0.00016063
H        5.63230686       7.31638592       7.24048761      -0.00501969      -0.00267242      -0.00060284
H        6.33085169       7.10279274       8.85513212      -0.00247061       0.00158281      -0.00130981
H        3.37633774      10.65988543       9.57379285      -0.00592991      -0.00359434       0.00190082
H        2.38013923       9.35607787       8.90378817      -0.00504011      -0.00482185       0.00317483
H        3.10810482       9.18551020      10.50809626      -0.00262931      -0.00407160       0.00199075
H        5.98456509       4.89976526       7.73116950       0.00065897      -0.00078700       0.00363529
H        4.95239711       5.02519825       9.16857612       0.00197949      -0.00035415       0.00431442
H        4.25929303       5.24998719       7.55790243      -0.00017421      -0.00496322       0.00472456
