196
Lattice="14.25030343730073 0.0 0.0 0.0 14.25030343730073 0.0 0.0 0.0 14.25030343730073" Properties=species:S:1:pos:R:3:forces:R:3 energy=-605748.4375 stress="-0.0006384302978403866 -0.0004937807971145958 -0.00026250709197483957 -0.0004937807971145958 -0.0010944448877125978 -0.0004820310714421794 -0.00026250709197483957 -0.0004820310714421794 -0.0017961066914722323" pbc="T T T"
Pm      11.32648637      14.05852157      -1.50140478      -0.01653892       0.00289923      -0.01094584
Br      11.91157557      14.11876264       9.58248635       0.00257530       0.01537678      -0.00526232
O       11.16057383      15.23358321      10.53258360      -0.01443121       0.00882512      -0.01472464
O       12.39709014      13.00977886      10.71284651       0.01049605       0.02549279       0.00190040
O       10.90058637      13.46756730       8.51912472       0.01354513      -0.00325990      -0.00501329
O       13.18579968      14.77208406       8.84590545      -0.00219858       0.02455369      -0.00401434
Br       6.67509896      13.69262650      10.66877248       0.01880328      -0.00262270      -0.00293413
O        6.48229484      12.83671066      12.04614740      -0.00417326       0.00592947      -0.01138008
O        5.41968432      14.71023777      10.50577012       0.02737594       0.00256836      -0.01520160
O        8.07029428      14.54144922      10.79312410       0.03276312      -0.02506399       0.00883150
O        6.76240072      12.69516752       9.39674590       0.02496541       0.00416911      -0.01088572
Br       9.07349983      10.92759475      12.97684346      -0.00753880      -0.00495648       0.01184493
O        8.44753687      10.62025908      11.50875461      -0.00919622      -0.01105886       0.01336741
O        7.91851844      11.19464672      14.09621187      -0.00853229       0.01099911       0.00761694
O       12.58846305      15.24158085      13.25942826      -0.03738964       0.02188390      -0.00655697
O        9.92023423      12.52965237      12.78432100       0.00097006      -0.01197881      -0.00291342
C       12.41994865      11.29426023       6.15617040      -0.00085893      -0.00294773       0.00024859
C       13.05379728      10.07542992       6.40368465       0.00087522      -0.00294138      -0.00441980
C       11.05197437      11.28060856       5.89288392      -0.00090995      -0.00276509       0.00341662
C       13.19794416      12.57539902       6.16112752      -0.00157318      -0.00242257       0.00222049
C       12.35302889       8.87805959       6.36940824       0.00046556      -0.00351150      -0.00548310
C       10.34193983      10.08615879       5.86605370      -0.00093275      -0.00349422       0.00177028
C       10.98941183       8.88015999       6.09818282       0.00052194      -0.00328125      -0.00229354
H       14.11015322      10.07161868       6.64798584       0.00118515      -0.00306664      -0.00775678
H       10.53836547      12.22067843       5.73164886      -0.00206681      -0.00265458       0.00710936
H       12.54015799      13.43976004       6.23052971      -0.00226800      -0.00296848       0.00025753
H       13.88919103      12.62185094       7.00420559      -0.00398131      -0.00194702       0.00393172
H       13.78729020      12.67000347       5.24443293       0.00126299      -0.00218356       0.00434828
H       12.85651132       7.94374563       6.58454744       0.00186586      -0.00351809      -0.00874089
H        9.27555831      10.09774788       5.67637900      -0.00077987      -0.00277325       0.00363803
H       10.43751878       7.94895207       6.09659028       0.00067079      -0.00366759      -0.00334324
C        3.19603996      10.09019031       5.18231815       0.00746248       0.00531821      -0.00096820
C        4.49794299      10.17973227       4.69039270       0.00778188       0.00543566      -0.00038408
C        2.50535750      11.27413178       5.43687016       0.00629455       0.00355507      -0.00254937
C        2.57857410       8.75522940       5.47118169       0.00940241       0.00442025      -0.00041619
C        5.09996584      11.41324646       4.47995279       0.00618719       0.00677949      -0.00094553
C        3.10179183      12.51129770       5.22911580       0.00502904       0.00487435      -0.00355642
C        4.40512871      12.58545349       4.75426152       0.00535389       0.00535271      -0.00310286
H        5.04321926       9.26834606       4.47206186       0.00845284       0.00627096       0.00068644
H        1.49012597      11.22708624       5.81004444       0.00613747       0.00347593      -0.00282121
H        1.49029630       8.80783885       5.44860764       0.00940299       0.00328796       0.00033806
H        2.89295893       8.00547517       4.74508880       0.00964388       0.00487205      -0.00055051
H        2.87813573       8.41090037       6.46456817       0.01042441       0.00455521      -0.00064528
H        6.11352593      11.45953985       4.10216926       0.00679649       0.00709297      -0.00046219
H        2.54895179      13.41716621       5.44630976       0.00383740       0.00413248      -0.00496915
H        4.87690273      13.54759259       4.60115171       0.00382496       0.00583081      -0.00349728
C       13.83952893       2.27288878       3.17709639       0.00017056       0.00356291       0.00130489
C       13.77927600       3.32995051       4.08598809       0.00257515       0.00500660      -0.00132757
C       13.73234527       2.56027706       1.81481837      -0.00472146      -0.00034373       0.00096661
C       13.98874749       0.85845494       3.65241864       0.00287427       0.00491652       0.00493753
C       13.60619807       4.63887408       3.64874260       0.00052278       0.00473129      -0.00395416
C       13.55794670       3.86544514       1.37568893      -0.00699865      -0.00054132      -0.00153895
C       13.49252301       4.91026955       2.29061435      -0.00385190       0.00069490      -0.00391392
H       13.86744970       3.12380078       5.14722787       0.00573537       0.00810235      -0.00144956
H       13.77176612       1.76562467       1.07758424      -0.00674248      -0.00150371       0.00283115
H       14.63729614       0.28493249       2.98872259       0.00772738       0.00597855       0.00868656
H       14.40012969       0.81759670       4.66076618      -0.00353757       0.00940848       0.00780216
H       13.02282950       0.34573124       3.67608980       0.00488928       0.00150409       0.00039694
H       13.55704938       5.44418100       4.37264553       0.00265569       0.00570494      -0.00547858
H       13.46882172       4.06060085       0.31408488      -0.01119823      -0.00355764      -0.00150615
H       13.34481047       5.92471474       1.94327733      -0.00510627       0.00048552      -0.00571404
C        9.57420854       2.76294133       5.75404747       0.00668485      -0.01625918       0.00737232
C        9.96509903       4.03853968       5.35046011       0.01764789      -0.00754188       0.00172543
C        8.22489121       2.54161835       6.03433700       0.00630924       0.03334111      -0.00350319
C       10.56562591       1.64220110       5.85740913      -0.00513291       0.01125219       0.00460468
C        9.03168947       5.05590507       5.20306711      -0.00876854      -0.03258123       0.00979524
C        7.28896820       3.55677007       5.88617735      -0.01024525      -0.01623363       0.00904852
C        7.68958045       4.81670640       5.45966639      -0.02597378      -0.00835079       0.00641794
H       11.00957075       4.22374673       5.12484720      -0.01400296      -0.00141728       0.00507283
H        7.91229013       1.55461355       6.35428053      -0.00779319      -0.03477384       0.02833872
H       10.19093281       0.74973350       5.35069263       0.00782637       0.00152452      -0.00032583
H       11.51790641       1.91955462       5.40688957       0.00693356       0.00469063       0.01262777
H       10.74920218       1.35330158       6.89436599      -0.00231001      -0.00160436       0.00678405
H        9.35341575       6.03450880       4.86829559      -0.00065328       0.01740181      -0.00638174
H        6.24248077       3.36101079       6.08817261       0.01418081      -0.00164718       0.00257184
H        6.95957194       5.60526491       5.32410487      -0.00088671      -0.01480985       0.00541444
C        9.00369740       4.53003893       1.90606950      -0.00318186       0.00512737      -0.00029865
C        7.65374073       4.85926437       1.98864585      -0.00300774       0.00329420      -0.00018637
C        9.37745503       3.20643184       2.14805436      -0.00179738       0.00471529       0.00110283
C       10.03904789       5.57053546       1.60362004      -0.00370514       0.00499117      -0.00133087
C        6.69814316       3.89992990       2.29838108      -0.00237954       0.00421161       0.00066674
C        8.42546991       2.24826339       2.46349655      -0.00110123       0.00577516       0.00230572
C        7.08052387       2.58960790       2.53747855      -0.00093231       0.00371552       0.00243563
H        7.34867627       5.88227753       1.79583984      -0.00392917       0.00335886      -0.00156820
H       10.42731719       2.93430574       2.08981168      -0.00200732       0.00593440       0.00043088
H       10.80355559       5.18742510       0.92858551      -0.00328946       0.00489822      -0.00058144
H        9.59634111       6.45360981       1.14307034      -0.00425015       0.00413407      -0.00261185
H       10.55171754       5.88314994       2.51804434      -0.00417081       0.00658690      -0.00169951
H        5.65153934       4.17362021       2.34040510      -0.00220709       0.00257631       0.00058667
H        8.72765396       1.22353936       2.64533430      -0.00028206       0.00555055       0.00355827
H        6.33825062       1.83586624       2.76478660      -0.00028069       0.00430260       0.00366721
C        7.83065939       2.04995415      13.46272585      -0.00864272      -0.00453353       0.00575750
C        6.91469152       1.02464427      13.68139653      -0.00656824      -0.00606865       0.00377212
C        7.35688204       3.34607258      13.29607353      -0.00901891      -0.00548342       0.00274594
C        9.28895161       1.73210526      13.32608389      -0.00872153      -0.00190973       0.00734806
C        5.55313647       1.28819101      13.69918071      -0.00756095      -0.00825268      -0.00084751
C        5.99431892       3.61457739      13.31601933      -0.00989755      -0.00766538      -0.00158724
C        5.08728802       2.58446119      13.51383110      -0.00787291      -0.00909353      -0.00401149
H        7.25809094       0.00239056      13.77239043      -0.00500852      -0.00512838       0.00554943
H        8.06190830       4.15567865      13.17370067      -0.00918251      -0.00538609       0.00475866
H        9.93114464       2.59667810      13.49409562      -0.00922195      -0.00109421       0.00333445
H        9.56880009       0.94841378      14.04761919      -0.00609183       0.00102759       0.00924103
H        9.43850041       1.35844298      12.29948125      -0.01282604      -0.00406781       0.00760779
H        4.85748775       0.46795731      13.81672273      -0.00580676      -0.00949784      -0.00323706
H        5.64406511       4.63176826      13.18144762      -0.01030598      -0.00799471      -0.00294931
H        4.02320610       2.78649397      13.50895920      -0.00856509      -0.01116151      -0.00885496
C       10.38996424       5.44722356       8.70983469       0.00348692      -0.00910399       0.00191415
C       11.01295964       6.68064839       8.89191036       0.00767294      -0.00913954      -0.00217626
C       11.17099427       4.29304126       8.75564450       0.00240861      -0.00976750       0.00403684
C        8.90835172       5.37149343       8.52298390       0.00362825      -0.00656760       0.00481500
C       12.37736082       6.75943050       9.12255171       0.00590922      -0.01205058      -0.00428422
C       12.54139570       4.36611049       8.97640858       0.00073241      -0.01295690       0.00161801
C       13.14791816       5.60297154       9.16025506       0.00543261      -0.01287965      -0.00191329
H       10.41952333       7.58846050       8.87437696       0.00842358      -0.00811623      -0.00379290
H       10.69710587       3.32603773       8.63409441      -0.00071577      -0.00955461       0.00736978
H        8.60203626       4.39980008       8.14369889       0.00287946      -0.00264162      -0.00495328
H        8.39537907       5.54232127       9.46840455       0.00573924      -0.01774190       0.00769559
H        8.55663113       6.13266665       7.82693493       0.00171109       0.00063746       0.01413013
H       12.83909751       7.72253629       9.29108854       0.00955948      -0.01221214      -0.00697257
H       13.12403417       3.45367644       9.01947860      -0.00016943      -0.01346508       0.00300893
H       14.21076901       5.67215655       9.35513623       0.00466915      -0.01520717      -0.00371664
C        1.82337642      10.38703177       1.80056864      -0.00035818      -0.00057995      -0.00087035
C        0.79598204       9.72478503       2.47003812      -0.00094837       0.00090928      -0.00290242
C        2.79063410       9.62098695       1.14765000       0.00243422      -0.00201917       0.00280614
C        1.90921205      11.88371828       1.78617204       0.00085887      -0.00061771      -0.00332668
C        0.73182744       8.33578199       2.48131583      -0.00221610       0.00093119       0.00032365
C        2.72800354       8.23433884       1.15545968       0.00110036      -0.00197564       0.00591372
C        1.69472049       7.58281569       1.82153729       0.00034161      -0.00031728       0.00348716
H        0.03812258      10.30122474       2.98860801      -0.00260014       0.00187456      -0.00538288
H        3.59754549      10.12044590       0.62428200       0.00361046      -0.00327209       0.00504440
H        1.95447764      12.26637736       0.76416283       0.00549728      -0.00145745      -0.00324857
H        1.04870089      12.33024044       2.28263657      -0.00145605       0.00008150      -0.00800651
H        2.81043566      12.22383143       2.30041864      -0.00190836      -0.00040520       0.00095981
H       -0.07085431       7.84364667       3.01757521      -0.00291862       0.00209423      -0.00119546
H        3.48354327       7.65964171       0.63299979       0.00318277      -0.00296779       0.00903738
H        1.64029976       6.50137933       1.82637952      -0.00070086      -0.00024056       0.00564649
C        4.89484354      10.25094658      11.29331744      -0.01061565       0.00117971      -0.00723806
C        4.02260922      11.33905945      11.28258454       0.00075690      -0.00478324      -0.00641397
C        5.28930244       9.70600335      10.07597116      -0.00398983      -0.00592458      -0.00915139
C        5.40584115       9.70160298      12.58848105      -0.00925961      -0.00677277      -0.00913173
C        3.55406345      11.86574674      10.09017580      -0.00249964       0.00861494      -0.00706751
C        4.82170219      10.22578117       8.87666056      -0.00733073       0.00818788      -0.00878230
C        3.95331241      11.30834382       8.88203270       0.00571997      -0.00018528      -0.00736412
H        3.74670139      11.80431817      12.22189561      -0.00346635      -0.00111372      -0.00645903
H        6.00735339       8.89294532      10.07056075      -0.01132179      -0.00360191      -0.00962518
H        6.34086064       9.16365873      12.44176240      -0.01441228      -0.01351287      -0.00959706
H        5.60431859      10.50613949      13.29528457      -0.00293792      -0.00596693      -0.01103257
H        4.68347338       9.01071057      13.03707586      -0.01460393       0.00056101      -0.00685916
H        2.91361442      12.73726400      10.09946025       0.00519636       0.00471531      -0.00607222
H        5.17203435       9.81913639       7.93497086      -0.00253728       0.00292260      -0.00945473
H        3.62336376      11.74294234       7.94921762       0.00433912       0.01007839      -0.00765103
C        2.00507693       7.70512443       9.72713958      -0.00472775       0.00163241       0.00280514
C        2.23094717       7.86083047      11.09546238      -0.01122060      -0.00427040       0.00476620
C        1.12118426       8.58147107       9.10192750       0.00259048       0.00351722       0.00031999
C        2.71707390       6.63295875       8.95359841      -0.00032486       0.00326607       0.00381319
C        1.59580047       8.86335668      11.81453861      -0.01463610      -0.00227024       0.00344007
C        0.48257486       9.59018067       9.81532280      -0.00072227       0.00505179      -0.00067471
C        0.71867995       9.73239804      11.17492699      -0.00663155      -0.00104229       0.00085594
H        2.93158967       7.19992845      11.59530685      -0.01754028      -0.00661741       0.00714995
H        0.92441122       8.46335597       8.04232905       0.00801548       0.00789221      -0.00092828
H        2.33366090       6.55771689       7.93641245      -0.00730187      -0.00601453       0.00722529
H        3.78800422       6.84388391       8.89599583      -0.00324693       0.01381587      -0.00593042
H        2.60493308       5.65606312       9.42835564       0.01339236       0.00543907       0.01037630
H        1.80055607       8.98015900      12.87139771      -0.01993501      -0.00733168       0.00520547
H       -0.19926097      10.26536260       9.31151050       0.00451186       0.00637043      -0.00290840
H        0.23663073      10.53057027      11.72603832      -0.00956153      -0.00028580       0.00008147
C        9.34306415       6.50389547      11.97194024       0.00674947      -0.00348738       0.00498366
C       10.16395850       5.38610701      12.10792699       0.00251282      -0.00717404       0.00246076
C        9.93162675       7.76495694      12.04087678       0.00641216      -0.00655553       0.00531870
C        7.85892249       6.40402778      11.76178487       0.00583306      -0.00188253       0.00640050
C       11.52149400       5.52816843      12.37400248       0.00692707      -0.00777598       0.00043915
C       11.28307764       7.91471890      12.31427135       0.01096785      -0.00926569       0.00477300
C       12.08285721       6.79262528      12.50154480       0.00508958      -0.01228195       0.00017876
H        9.74877689       4.39454091      11.97648783       0.00203191      -0.00446881       0.00318344
H        9.31795465       8.62723025      11.82124238       0.01026271      -0.00409034       0.00856507
H        7.51415486       7.16689416      11.06220815       0.00699327      -0.00168970       0.00599343
H        7.55365405       5.42545019      11.39550300       0.00402983      -0.00143903       0.00745948
H        7.32785574       6.57615254      12.70254316       0.00687031       0.00000791       0.00655809
H       12.14021545       4.64284155      12.45679331       0.00313690      -0.01078528      -0.00248325
H       11.72016627       8.90615606      12.34273454       0.01085189      -0.01194273       0.00736600
H       13.14302600       6.90728462      12.69247449       0.00857209      -0.01204080      -0.00141483
C       10.17341123      11.62783742       1.99254631       0.00331703       0.01167853      -0.00177396
C       10.85570114      10.52798932       1.47269315       0.00227132       0.01266843      -0.00477268
C       10.74644248      12.89159115       1.83122730       0.00147372       0.01217122      -0.00358593
C        8.86434036      11.47016331       2.70252125       0.00667885       0.01048678       0.00379147
C       12.05543520      10.68097269       0.78686484       0.00020334       0.01382142      -0.00811502
C       11.95484268      13.05491857       1.16148930      -0.00095472       0.01338386      -0.00733672
C       12.60917745      11.94629208       0.61931060      -0.00128302       0.01418730      -0.00894230
H       10.42728224       9.53859595       1.58935177       0.00298171       0.01248281      -0.00461677
H       10.24051070      13.75683272       2.24582450       0.00217871       0.01157874      -0.00181196
H        8.15017798      12.21693856       2.35515463      -0.00041562      -0.00027293      -0.00380878
H        8.43207284      10.48913465       2.51346344       0.01475004       0.00443844       0.01831691
H        8.99120872      11.58893060       3.78049818       0.00855134       0.02516594       0.00168198
H       12.56460218       9.80824661       0.39669303      -0.00048841       0.01449315      -0.01006522
H       12.39714850      14.04304947       1.06600404      -0.00315259       0.01388691      -0.00838536
H       13.56158227      12.06212406       0.11392596      -0.00233705       0.01500816      -0.01061873
