199
Lattice="12.686339484131983 0.0 0.0 0.0 12.686339484131983 0.0 0.0 0.0 12.686339484131983" Properties=species:S:1:pos:R:3:forces:R:3 energy=-1003419.625 stress="0.0020616878755390644 -0.0004455960588529706 -0.0008872135076671839 -0.0004455960588529706 0.001406833645887673 0.00048680110194254667 -0.0008872135076671839 0.00048680110194254667 0.0024492472875863314" pbc="T T T"
Pm      11.76502284      12.51435867      -0.79242150      -0.00087705      -0.00098927       0.00019377
I       -0.10852507      13.33944058       2.25440459       0.00932671      -0.00149778      -0.00504655
I        8.61888931      12.64900281       5.21917049       0.00200328       0.00495563      -0.00501873
I        4.30918165      12.74921711      -0.75805046       0.00435613      -0.01486452      -0.00070094
O        9.79559296      13.19534604      13.01650868       0.00353402       0.00697882       0.00494333
H        9.01122148      12.98886210      12.49384542      -0.00517082       0.00814861       0.01611210
H        9.61867107      13.95495059      13.62240491       0.01021539       0.00343759       0.01031251
O        7.38612902       2.51445050       3.33215955      -0.00938326       0.00278133      -0.00975895
H        7.51429347       1.67885007       3.81805930      -0.01061591       0.00012082      -0.01183649
H        6.63349599       2.38932252       2.70667795      -0.00693719       0.00466405      -0.01057309
O        8.10606041       9.11290431       3.63412528       0.00370899      -0.00178204       0.00173464
H        9.02668986       9.37267051       3.46442681       0.00124868      -0.00126962       0.00408886
H        7.96202166       9.24171413       4.59368543       0.00056439      -0.00147900       0.00349040
O        3.61814577       0.54355840       5.25945382      -0.00697610       0.00452721      -0.01417978
H        2.78692723       0.67632397       5.74854767      -0.00652420       0.00570372      -0.01209374
H        4.27517713       1.16474452       5.63305108      -0.00498822       0.00109097      -0.01162934
O        9.34459576       3.69495059      11.48258172       0.00357345       0.00428060       0.00595722
H        9.91708381       4.10199760      12.17105494       0.00265131       0.00365678       0.00738248
H        8.44297194       3.67426877      11.89253989       0.00273279       0.00341509       0.00445808
O        7.77941782       6.72243241      13.27145076      -0.01123015       0.00399160       0.00508250
H        8.21799192       6.91985390      12.43295065      -0.00207727       0.00421317       0.00171146
H        7.25244733       7.51205044      13.48689750      -0.00435980       0.00138037       0.00181569
O        0.56949222       9.30214886       9.22990012       0.00418845      -0.00059046       0.00442062
H        1.34345785       9.62005283       8.73518581       0.00041324      -0.00453509       0.00574009
H        0.14198497       8.65832813       8.60293140      -0.00019133      -0.00180567       0.00474326
O       10.63961133       3.15469953       5.30903405      -0.02106768      -0.01317005       0.00285846
H       10.39099927       2.26293710       5.02414352      -0.03857584      -0.01407547       0.02065065
H        9.83739463       3.69922177       5.16133373      -0.01609254      -0.00556006       0.00503154
O        8.17773012       4.56318890       4.88458775      -0.01465543      -0.00576846       0.00762315
H        7.66704497       4.58080839       5.71423702      -0.01334921      -0.00655784       0.00881581
H        7.77438217       3.84572800       4.34854080      -0.01553590      -0.00355459       0.00546430
O        4.52873177       4.89852048       2.59003533       0.00053716      -0.00147966       0.01357691
H        4.57721982       4.98786588       3.57426367      -0.00221307      -0.00244663       0.01395179
H        5.25815649       5.44369743       2.27148747       0.00405501      -0.00487393       0.01723072
O        9.69978912       2.57324518       2.00018092       0.00847699       0.00029803       0.01243767
H        8.85328386       2.59892627       2.50852893       0.00161908       0.00491572       0.00467950
H       10.36223257       2.11120522       2.54239489       0.00043000       0.00617372       0.02081949
O       12.15627594      11.70666048       9.73925301       0.00335564       0.00006984      -0.00012092
H       11.74499499      11.96578342       8.88277410       0.00227457      -0.00199542      -0.00066940
H       12.52673104      10.80092388       9.58501566       0.00366236      -0.00038718       0.00178757
O        0.83644354       3.81564850      -0.09022128       0.00371140       0.00052768      -0.00276145
H        1.26510842       3.76447952       0.81007967       0.00506679      -0.00056249      -0.00369807
H        1.52055035       4.19109440      -0.66040322       0.00241069       0.00146337      -0.00371722
O        3.37560553       4.53770805       7.99545090       0.00914143      -0.00123016       0.00125203
H        4.10662045       3.98403333       8.33977036       0.00838435      -0.00157934       0.00296043
H        3.06443239       5.05058015       8.76595978       0.00653065      -0.00208360       0.00154208
O        9.41217108      11.89185577      10.79200551       0.00731573       0.00173840       0.00312455
H        9.22125948      12.38698551       9.97134108       0.00711776       0.00167291       0.00246581
H        8.80763292      11.13349306      10.80965275       0.01151857      -0.00107242       0.00080394
O        0.90250958       1.35825035      -1.18461610       0.00479004      -0.00406670      -0.00295474
H        0.83741083       2.25201633      -0.75696512       0.00255876      -0.00093184      -0.00195206
H        1.82932544       1.08216845      -1.07956239      -0.00198136      -0.00289377      -0.00199522
O        4.49241296      10.75394895       5.89823394      -0.00874636       0.00256862      -0.01038402
H        4.28943318      11.69645018       5.69313899      -0.00774062       0.00046239      -0.01060951
H        5.27981886      10.76459717       6.47726583      -0.00660618       0.00265974      -0.00958981
O       12.58322252       5.02627148       8.95326451      -0.00047043      -0.00635397      -0.00736946
H       12.91118863       4.27633377       8.40370543       0.01363752      -0.00100417      -0.02010355
H       11.78935684       4.69897839       9.38704183       0.01577471      -0.01178190      -0.02089841
O        3.74098750       3.89060363      11.41301932       0.01462179      -0.01054227       0.00213617
H        4.00912822       3.23484814      12.06768638       0.01065275       0.00993491      -0.00365673
H        3.96360558       4.77099489      11.77863760       0.00835642       0.00496617      -0.00396883
O        3.19669394       7.27719773       7.28788247      -0.00148383       0.00174872       0.00189874
H        2.77064291       7.71335358       6.51661059      -0.00268628       0.00292280       0.00262495
H        3.32893858       6.35539611       7.01199671       0.00341764       0.00406211      -0.00250775
O        1.14905220      11.29867656      12.08582503       0.00067675      -0.00142844      -0.00172406
H        1.16714739      10.31533164      12.08511407      -0.00235064      -0.00517566       0.00263087
H        2.06607911      11.62437427      12.15067799      -0.00328777      -0.00535895      -0.00047273
O        2.01336753       3.76658029       2.26188514       0.00501357      -0.00569922      -0.00249240
H        1.49626566       3.76714768       3.08816306       0.00132544      -0.01465128      -0.00443683
H        2.74875308       4.38417435       2.38318877       0.00027968      -0.00113971       0.00427392
O        4.23364073       8.14117179       3.09439597       0.00021546      -0.00491101       0.00159153
H        3.62783051       7.72574251       2.44929262       0.00160106      -0.00727296       0.00281423
H        4.91437382       7.48596053       3.31050784       0.00144176      -0.00398813       0.00386347
O        4.71869282       5.48177017       5.20143007      -0.00158525       0.00050944       0.01408580
H        5.43867125       6.10736203       5.00785565      -0.00139180      -0.00021125       0.01302084
H        5.09651591       4.88184128       5.86029279      -0.00210042       0.00068288       0.01480789
O        6.43613597      10.75303724       7.88918091      -0.00412360       0.00750521      -0.01116197
H        7.17298730      10.21416020       7.54587105      -0.00597699       0.00830678      -0.00576162
H        5.89345357      10.20096472       8.48807132      -0.00728234       0.00739911      -0.00782529
O        1.05683536       9.66237963       2.65318700      -0.00097705      -0.00883549       0.00263245
H        1.30028135       9.30415542       3.52784099      -0.00230866      -0.00656416       0.00501342
H        1.63795761      10.44859510       2.59591497       0.00029518      -0.00998092       0.00080049
O        9.00468523       9.82030422       0.74883356      -0.00233471      -0.00291698      -0.00091866
H        8.60834148      10.60553660       1.18285948      -0.00076689      -0.00349311       0.00094005
H        8.40374988       9.65990440      -0.01054644      -0.00390962       0.00012958      -0.00042114
O        8.61294418       6.17871599      10.47408950       0.00179884       0.00448647       0.00414636
H        8.82205040       5.27057833      10.77408228       0.00252388       0.00561132       0.00442741
H        8.94391320       6.18444419       9.55808311       0.00474406       0.00531584       0.00423242
O        0.52853688       4.11152613       4.68100415      -0.01415299      -0.01953085      -0.01318069
H        0.88714970       3.86002183       5.55663893      -0.01410621      -0.01412375      -0.01004745
H       -0.38722588       3.77914575       4.72425181      -0.01254002      -0.02098046      -0.01419611
O        0.68330415       8.68393921      11.87223626      -0.00086412      -0.00752324       0.00996129
H        1.18037714       8.00715006      12.35465859      -0.00409760      -0.00268173       0.00678872
H        0.80330663       8.58528270      10.90589548       0.00005027      -0.00630143       0.00524415
O        5.88159366       7.42783106       7.76428742      -0.00122337       0.00527875       0.00070564
H        5.93927031       7.52668533       8.74434406      -0.00034207       0.00671776       0.00070096
H        4.92657467       7.52095744       7.54799132      -0.00088900       0.00430237       0.00155683
O       10.49923367       2.94345628       8.16850508       0.00206044       0.00175259      -0.00013234
H       10.72050426       2.90875986       7.21826500      -0.00371349       0.00243153      -0.00173695
H        9.78081118       2.28772868       8.29423367       0.00278120       0.00122929       0.00246465
O        3.87918569       6.60007906      11.83995836       0.00118667       0.00164255       0.00179298
H        3.43057168       6.97992552      12.61093845       0.00193509      -0.00362298      -0.00029716
H        3.22624354       6.64858510      11.10856247      -0.00007065       0.00024805      -0.00032790
O        1.40939625       0.42114086       6.99446974       0.00074846       0.00741641      -0.00216563
H        1.74114909      -0.43805048       7.31396939       0.00144913       0.01215462       0.00061775
H        0.44039005       0.30424925       6.97960935      -0.00179315       0.00723651       0.00263100
O       10.11956107       7.18357718       5.86741887      -0.00221484       0.00492902       0.00227198
H        9.86121975       6.41680114       6.42391403      -0.00032192       0.00335622       0.00264045
H       10.14875349       6.87920572       4.94912139       0.00110285       0.00547400       0.00278454
O        5.44908595       3.35068760       9.27548165       0.01101433      -0.00168216      -0.00062013
H        5.62399399       2.40171084       9.26576573       0.01475937       0.00159588      -0.00240782
H        5.00554336       3.54097264      10.13049300       0.01232892      -0.00159425       0.00165868
O        1.16016850       3.26154020       7.29603016       0.01433993       0.01133245      -0.02037920
H        1.26522933       2.29759418       7.37654444       0.01180743       0.00233421      -0.01906981
H        2.04137134       3.64278056       7.53943647       0.01026134       0.00537064      -0.01746174
O        6.71874218       6.70812730       3.70183501      -0.00136051      -0.00202302       0.00852109
H        7.29693475       7.49159075       3.60315227       0.00056390      -0.00450074       0.00560741
H        7.32245257       5.99103159       3.97950896      -0.00324373      -0.00374805       0.01107464
O       13.30553833       6.59599459       3.54405561      -0.00136679      -0.01087344       0.00317518
H       12.38250261       6.80616329       3.29923668       0.00043647      -0.00330667       0.00431470
H       13.25991372       5.72639703       4.00075968      -0.00768050      -0.01364027      -0.00273457
O        2.11378591       7.51988186       1.35713526      -0.00112070      -0.00833853       0.00290485
H        1.77169135       8.38697382       1.69756815      -0.00103646      -0.00909040       0.00545067
H        1.63202075       6.89266524       1.93259997      -0.00056899      -0.00998427       0.00253329
O       10.63055098       6.75293493       2.73167347      -0.00126669       0.00081623       0.00803259
H       10.68202605       6.05393008       2.04697823      -0.00000893       0.00129384       0.00826257
H       10.05678364       7.42401393       2.34503627      -0.00082770       0.00181591       0.00651949
O       12.42477827       7.45900727       7.51799620      -0.00390804       0.00287487       0.00262791
H       11.69932894       7.51273991       6.87186110      -0.00536913       0.00280921       0.00453622
H       12.34415432       6.58080316       7.92874041       0.00097643       0.00106308      -0.00120121
O        6.93676547       4.17947730      -0.18582752      -0.00158554       0.00072852       0.00025204
H        6.45558335       3.62229686       0.44796495      -0.00662893       0.00445306      -0.00385860
H        7.11040748       5.04657466       0.23188441      -0.00501638       0.00408065      -0.00075191
O       10.90450711      10.07871771       3.38083400       0.00226447      -0.00234261       0.00062218
H       10.76755317      11.03195137       3.27550505       0.00133182      -0.00191627      -0.00467575
H       11.70276727       9.90697869       2.84846241       0.00010279      -0.00503194      -0.00034440
O        6.71727098       4.93354798       7.30286368       0.00408515       0.00314628       0.01219884
H        6.35395657       5.83603795       7.50633795       0.00239937       0.00532427       0.00671673
H        6.35242174       4.33551503       7.98137548       0.00561304       0.00757506       0.01432735
O        7.48784375      11.92251003       1.81928055      -0.00517184      -0.00389448      -0.00723171
H        7.66530530      11.94938720       2.77162920      -0.00041924       0.00095348      -0.00317195
H        6.63293799      11.47878015       1.73535409       0.00542561      -0.01125795      -0.00278227
O        3.28108052      11.25790661       3.14185088      -0.00506118       0.00408839      -0.01155900
H        3.78923489      10.68317511       3.72837434      -0.00094504      -0.00359589      -0.00645344
H        3.30276517      12.11754157       3.58780578      -0.00698208      -0.00750063      -0.01592673
O        2.18429355       6.43227076       9.70337360       0.00185427      -0.00272235      -0.00035660
H        2.35264633       6.95632958       8.89265801       0.00298551      -0.00320352      -0.00029467
H        1.30573832       6.02263114       9.59047425       0.00280371      -0.00464745      -0.00295649
O       11.46501194      12.27452940       7.22453387       0.00273421       0.00067395      -0.00096290
H       10.65192165      12.57213063       6.78592955       0.00092421      -0.00032341      -0.00116965
H       11.75607717      11.50190151       6.67201059       0.00735239       0.00599094      -0.00458207
O       12.49011095      10.43248054       5.62249797       0.01587683       0.01763183      -0.01039752
H       13.07953095      11.00840597       5.11924017       0.00200266       0.02778105      -0.01512469
H       11.83597779      10.14651977       4.94879720       0.01497503       0.00847718      -0.00407097
O        6.05289046      13.17721143       8.95632216       0.00219990       0.00467263      -0.00005044
H        5.57557339      12.99266111       9.79188941       0.00314514       0.00213956      -0.00359879
H        6.22664928      12.28831484       8.55495773       0.00043060       0.00386070      -0.00585747
O        9.34164198       5.45550736       7.83222267       0.00487804       0.00423004       0.00316377
H        9.77288695       4.59008330       7.99449728       0.00387588       0.00408177       0.00256359
H        8.39762498       5.22681636       7.67565913       0.00373759       0.00489590       0.00501852
O        7.89382073       8.86145541       6.43290593       0.00231026       0.00438212      -0.00026345
H        8.70006086       8.31686207       6.34715778      -0.00386940       0.00492862       0.00245228
H        7.19738468       8.26866053       6.77614569      -0.00409127       0.00345248       0.00224217
O        2.16160831       8.36129916       4.97757221      -0.00008623      -0.00816695      -0.00015822
H        2.97510074       8.29616844       4.43782093      -0.00013164      -0.00668190       0.00070851
H        1.56711539       7.66577711       4.61770638       0.00212441      -0.01109319       0.00123000
O        7.26693239       9.86351946      11.32524981       0.00693882       0.00635128      -0.00899698
H        6.90224183       9.01982093      10.97144186       0.00221116       0.00484520      -0.00314428
H        6.57630301      10.17933918      11.92312550       0.00148104       0.02541986      -0.02835943
O        5.71524665      14.56305313       6.46536937      -0.00331834      -0.00357433      -0.00830589
H        6.49977059      14.17821856       6.04448293      -0.00175661      -0.00620145      -0.00658827
H        5.68304233      14.11704041       7.32798937      -0.00305407       0.00196084      -0.00685614
O        6.28406036       9.18462499       1.43183504       0.00206117      -0.00142917       0.00613281
H        6.94759691       9.27175627       2.14017696       0.00159489      -0.00535604       0.00825112
H        5.46065151       8.99005830       1.91144744       0.00132192      -0.00326957       0.00390943
O        5.42180310       2.53994063       1.54192276      -0.01404774      -0.00140521      -0.01045165
H        4.94702935       1.76806063       1.19200384      -0.00958702      -0.00132865      -0.00246587
H        4.79453281       3.16125231       1.95631260      -0.01539734      -0.00427990       0.00082901
O        6.24922170       7.46240211      10.45336096       0.00228353       0.00525862       0.00063291
H        6.98641809       6.81767484      10.55038612       0.00165508       0.00604393       0.00104782
H        5.50420496       7.17026692      11.01055840       0.00132396       0.00466356       0.00151239
O        8.72889405       0.84700614       8.62029943       0.00412428      -0.00181890      -0.00020623
H        7.79106622       0.91618409       8.89577870       0.00443356      -0.00272497      -0.00043732
H        8.66743843       0.45324879       7.73027034       0.00439992      -0.00182647      -0.00072360
O        2.32081955      10.36043415       7.30923165      -0.00342162       0.00734395       0.00159758
H        3.18068183      10.44747599       6.79802845      -0.00887390       0.00213354      -0.00429586
H        1.74928501       9.86844464       6.69879972      -0.01655627       0.01661317      -0.00010034
O       10.94407999       4.69244393       0.81900729       0.00547618       0.00095434       0.00674594
H       10.60613109       3.93269784       1.33833591       0.00720128      -0.00097602       0.00755285
H       11.84630788       4.45790452       0.53103143       0.00348210       0.00259922       0.00434733
O        4.36169559       9.83024501       9.45969990       0.00208375       0.01762569       0.01283567
H        3.61029491       9.90573433       8.85387338      -0.00698401       0.00223963      -0.01023260
H        4.21984843      10.51339389      10.13213952       0.00218097      -0.01244038      -0.01902424
O       10.94239457       1.72142743      10.68002915       0.00035981       0.00190479       0.00295722
H       10.24967205       2.36318758      10.98794732       0.00288171       0.00300075       0.00292565
H       11.20121714       2.03197481       9.79856003       0.00270453       0.00188601       0.00189912
O       11.31376296      10.35632226      12.57680299      -0.00196463      -0.00185505       0.00013978
H       10.39452692      10.08620459      12.91967387      -0.00197881      -0.00243605      -0.00092685
H       11.87791663       9.57493554      12.43190142      -0.00133662      -0.00208745       0.00128715
