193
Lattice="13.427564139257916 0.0 0.0 0.0 13.427564139257916 0.0 0.0 0.0 13.427564139257916" Properties=species:S:1:pos:R:3:forces:R:3 energy=-416842.5 stress="-0.0008273483836092055 -0.00033138391154352576 -0.0003916689893230796 -0.00033138391154352576 -0.000934491865336895 0.00038350472459569573 -0.0003916689893230796 0.00038350472459569573 -0.0012219237396493554" pbc="T T T"
Pm      16.59204525      12.39703411       1.09587982       0.01873916       0.00222112      -0.00848265
O        6.05453958       8.05943224      10.94961715      -0.01202872       0.01001382       0.01820296
O        6.96803904      10.09340510      11.24945954      -0.01334500       0.01239705       0.00460625
C        4.77376978       9.96557450      10.39584132      -0.01227427       0.00391507       0.00151038
C        4.74384079      11.31348830      10.04809495      -0.01172403       0.00044949      -0.01196688
C        3.58535680       9.24102630      10.36839801      -0.01204417       0.00346592       0.00571459
C        3.53992964      11.94036355       9.74550291      -0.01083229      -0.00343615      -0.02310111
C        2.37532681       9.86497714      10.09374351      -0.01110362      -0.00027450      -0.00647715
C        2.34660247      11.22536524       9.79768108      -0.01048298      -0.00364228      -0.02160441
C        6.05731109       9.30419473      10.88671571      -0.01359510       0.00674498       0.00868648
H        5.68065872      11.85733737      10.02612751      -0.01202974       0.00077395      -0.01411277
H        3.64398968       8.18173537      10.57488452      -0.01303886       0.00600427       0.01894592
H        3.53106861      12.99264424       9.49349265      -0.01024866      -0.00590335      -0.03362735
H        1.45381339       9.29442400      10.09945301      -0.01093975      -0.00055877      -0.00461859
H        1.40434795      11.71828367       9.59055415      -0.00984615      -0.00658172      -0.03140629
O        4.75623472      12.64420984       2.52233289       0.00996241       0.00907534       0.00161925
O        5.70514126      10.73179637       3.30921068       0.00764626       0.00985104       0.01378551
C        3.30240772      10.97320803       3.06935154       0.00750718       0.00817335      -0.00326675
C        2.90609964       9.99135488       2.14203921       0.01666342       0.00425366      -0.00321516
C        2.35758951      11.90675234       3.55156020       0.00114367       0.00738679      -0.01429176
C        1.65064073      10.10562865       1.53180401       0.02289777       0.00132121      -0.01671009
C        1.10547007      11.99012754       2.96685493       0.00690814       0.00483537      -0.02766441
C        0.77875152      11.14385279       1.89488146       0.01920648       0.00284838      -0.02984663
C        4.75002390      11.41496427       3.06727451       0.00421059       0.01219073       0.00461709
H        3.62427881       9.24724766       1.82033558       0.02029195       0.00402983       0.00544662
H        2.65886518      12.59371261       4.33175983      -0.00827937       0.00958115      -0.01300098
H        1.35552225       9.40195804       0.76385468       0.03239257      -0.00118948      -0.01833856
H        0.39590541      12.72052185       3.32473678       0.00247340       0.00480926      -0.03682123
H       -0.19074015      11.23473079       1.42175977       0.02542230       0.00228447      -0.04270333
O        8.08704584       8.57962058       5.18454597       0.00106725       0.01280808       0.01096141
O        7.23996896      10.60008529       5.72814243       0.00981212       0.01453161       0.01590490
C        9.18875776      10.56356347       4.50139352       0.00294435       0.00854808       0.00409096
C        8.88860654      11.51266332       3.52468719       0.00098521       0.00378104       0.00007742
C       10.50589841      10.40955921       4.93416640       0.00453610       0.00839324      -0.00116295
C        9.88236997      12.34465339       3.03982138       0.00033800      -0.00202909      -0.00998536
C       11.49782297      11.26066672       4.46126272       0.00479500       0.00216864      -0.01175322
C       11.17947259      12.24507647       3.53061100       0.00270219      -0.00279097      -0.01669368
C        8.06101160       9.82318259       5.19015224       0.00501454       0.01237810       0.01120186
H        7.86772026      11.60023046       3.18188840      -0.00043726       0.00408009       0.00394049
H       10.73761546       9.65211061       5.67362274       0.00678596       0.01234003       0.00226014
H        9.63901996      13.11012041       2.31248377      -0.00119291      -0.00640135      -0.01410279
H       12.50988820      11.15891481       4.83852651       0.00664066       0.00145413      -0.01742003
H       11.91844524      12.96178300       3.19758428       0.00360997      -0.00836960      -0.02622841
O       10.29821153       1.82347588       5.09432257      -0.00356707      -0.00362366      -0.00025163
O        8.46474461       0.73136671       5.37363276      -0.00386667      -0.00239545       0.00090569
O        8.63123721       2.12321654       3.58857645      -0.00207287      -0.00672108      -0.00231183
C       11.05474474       2.86460194       4.44532088      -0.00331515      -0.00544469      -0.00238532
C       12.48045189       2.74358638       4.92182084      -0.00456381      -0.00185703       0.00203997
C        9.07587486       1.61215239       4.58720595      -0.00311348      -0.00475380      -0.00063419
C        7.12297115       0.37390350       4.99596344      -0.00392394      -0.00286752       0.00187515
H       10.96433435       2.75135207       3.36446195      -0.00028706      -0.01004058      -0.00209486
H       10.60989218       3.81986009       4.72525404      -0.00515682      -0.00481796      -0.00758827
H       13.07613170       3.56101233       4.51285622      -0.00409798      -0.00357424      -0.00050445
H       12.53236270       2.78646290       6.00925283      -0.00759498       0.00368549       0.00188082
H       12.92068579       1.80048233       4.59381120      -0.00324804      -0.00333270       0.00830698
H        6.43347332       1.11580914       5.40531064      -0.00385492      -0.00464332       0.00501479
H        6.95585497      -0.61895483       5.41189365      -0.00182713      -0.00411648      -0.00026555
H        7.02779588       0.35265562       3.91337674      -0.00541541       0.00010177       0.00198901
O        2.80982559       1.72025730      11.44527583       0.00014657      -0.00899100       0.00932132
O        4.35290242       1.85982967       9.95759537      -0.00436981       0.00133339       0.00603224
O        2.79922426       3.51502056      10.05012137      -0.01245412      -0.00681627       0.01271158
C        1.71715900       2.25521756      12.20193925      -0.00181849      -0.01737207       0.01216739
C        1.51881443       1.33125538      13.39239042       0.00930057      -0.02019768       0.01200961
C        3.27406223       2.48337653      10.43951858      -0.00626835      -0.00479412       0.00951838
C        5.03966439       2.53249481       8.88899434      -0.00932781       0.00753573       0.00690456
H        1.96474719       3.26802097      12.52183145      -0.00912961      -0.01573074       0.01241049
H        0.82299079       2.29730474      11.57746819      -0.00385660      -0.02438063       0.01475009
H        0.63789570       1.63145802      13.95954016       0.00550750      -0.03221639       0.01241708
H        1.36688705       0.29454709      13.05614018       0.02208456      -0.02154207       0.00971225
H        2.38597341       1.39441004      14.06760633       0.00905690      -0.00921511       0.01169592
H        4.37291467       2.67040404       8.04020088      -0.01116474       0.00602134       0.00816388
H        5.86506011       1.87777072       8.62575626      -0.00627416       0.01254208       0.00434812
H        5.41008470       3.50120548       9.22292970      -0.01406918       0.00858855       0.00876492
O        7.19605813       5.57430266       2.62571880      -0.01352951       0.00500906       0.00603586
O        9.16953285       6.18193205       3.22489652      -0.01448229       0.00653768       0.00755385
O        7.87377336       5.07840685       4.73240407      -0.01171279      -0.00300163       0.00397778
C        5.89177334       5.04724184       2.92075020      -0.01159846      -0.00076541       0.00451738
C        5.79609429       3.58297808       2.56283599      -0.00306822      -0.00331724       0.01162590
C        8.06878480       5.56425153       3.64961703      -0.01269059       0.00296006       0.00392056
C       10.15384247       6.49444247       4.22555695      -0.01313485       0.00104161       0.00792462
H        5.67090033       5.22445920       3.97266705      -0.01609144       0.00393964       0.00292653
H        5.21406534       5.64958241       2.31347048      -0.01274329      -0.00759938      -0.00072843
H        4.77455941       3.23312984       2.73289209      -0.00105971      -0.00825752       0.01323488
H        6.03673038       3.42450078       1.51194361      -0.00170904      -0.00642051       0.01232159
H        6.48254143       2.99084595       3.16522994       0.00033697       0.00369526       0.01448092
H       10.28386210       7.57258224       4.20849881      -0.01321711       0.00104302       0.01373799
H       11.07990382       5.98915392       3.94555269      -0.01366803       0.00224842       0.00405294
H        9.81598198       6.17928575       5.20901383      -0.01187697      -0.00432305       0.00656730
O       10.33644505       3.95647132      12.11645675       0.00624292       0.00470366       0.00129753
O        9.73711393       6.03366242      12.03373496      -0.00200716       0.00218359       0.00174552
O        9.52013635       4.77014963      10.16925994      -0.00079286       0.00081889       0.00254166
C       10.65490407       2.73808510      11.41728268       0.00841092       0.00500497       0.00201994
C       11.13276767       1.75324983      12.45252454       0.01043593       0.00657806       0.00268835
C        9.81984941       4.92108664      11.32700403       0.00099027       0.00257464       0.00185227
C        9.15038668       7.15533188      11.32504990      -0.00784491      -0.00005184       0.00320469
H        9.77870191       2.37387854      10.88101445       0.00923562       0.00285001       0.00248611
H       11.41204766       2.94735753      10.66020272       0.00803095       0.00596872       0.00198314
H       11.45072563       0.82969028      11.96658606       0.01057767       0.00626785       0.00346763
H       11.97177411       2.16884089      13.01194904       0.01057179       0.00802442       0.00124823
H       10.34426843       1.51192366      13.16703128       0.01121324       0.00694620       0.00360163
H        9.52498926       7.18932678      10.30417008      -0.01068224       0.00134915       0.00238264
H        9.45050732       8.03294743      11.89056119      -0.00953730       0.00106165       0.00252758
H        8.06500235       7.07056559      11.31078515      -0.00743502      -0.00386317       0.00658985
O       11.23092467       5.37103340       7.39639753       0.00383152       0.00246808       0.00201887
O        9.46101595       4.17614540       7.22225957       0.00326446       0.00358811       0.00023243
O       11.27787688       3.27034464       8.24046293       0.00160992       0.00251448       0.00211138
C       12.52520137       5.63071922       7.95716779       0.00438304       0.00028485       0.00159048
C       12.76968269       7.11090543       7.80625383       0.00755869      -0.00053251      -0.00006763
C       10.69718414       4.17855259       7.69155451       0.00254455       0.00307441       0.00130975
C        8.62270936       3.09828551       7.64974568       0.00267284       0.00321415      -0.00177430
H       12.52393629       5.31999185       9.00326030       0.00400209       0.00117403       0.00176561
H       13.27560778       5.03191166       7.43329059       0.00294265      -0.00190520       0.00205776
H       13.75619180       7.37151830       8.19054406       0.00789897      -0.00207954      -0.00002708
H       12.72469020       7.40972379       6.75893770       0.00859929      -0.00164334      -0.00035673
H       12.01238686       7.67321951       8.35190029       0.00855587       0.00167152      -0.00112499
H        9.13012401       2.14088114       7.57751172       0.00274074       0.00340173      -0.00228979
H        7.76599346       3.13541430       6.98143509       0.00353953       0.00398035      -0.00279909
H        8.32310941       3.28668765       8.68008368       0.00158395       0.00198828      -0.00196612
O        3.02870555       7.38180537       4.48479242      -0.00588255      -0.00056450      -0.00570437
O        4.17708317       8.79613805       5.62467808      -0.00176644      -0.00283514      -0.00718991
O        1.95715341       9.18271068       5.35284561      -0.00263178      -0.00185913       0.00064839
C        1.77463486       6.91164976       3.97272033      -0.00773138       0.00010139      -0.00149834
C        2.03539751       5.55404946       3.37014738      -0.00965233       0.00139964      -0.00495328
C        2.96584757       8.53403688       5.18527685      -0.00321692      -0.00204527      -0.00363386
C        4.31065199       9.96038201       6.46887973      -0.00024348      -0.00640002      -0.00211784
H        1.04732431       6.86844525       4.78573282      -0.00415629      -0.00206785       0.00154996
H        1.40021580       7.62521995       3.23375768      -0.01116273       0.00143909       0.00165778
H        1.12129445       5.15313580       2.93128460      -0.01127999       0.00138009      -0.00138745
H        2.79304313       5.61892471       2.58924203      -0.01327425       0.00321946      -0.00819990
H        2.39060260       4.85975241       4.13182224      -0.00567985       0.00045880      -0.00770018
H        4.00764606      10.84853647       5.91409337      -0.02033438      -0.00608334       0.00889798
H        5.36884649      10.01079727       6.70391686       0.00324869       0.00357602      -0.01815213
H        3.68745302       9.84517005       7.35407732       0.01550534      -0.01957318       0.00746977
O       10.45664708      12.06900008      10.68801155       0.01035458      -0.00001906      -0.00034770
O       11.16388844      12.55860657       8.71739921       0.00351189       0.00455886      -0.00164658
O        9.23372431      13.50900754       9.43249719       0.00706220       0.00328374       0.00776108
C        9.45359328      12.12217032      11.73494583       0.01173994      -0.00715844       0.00076246
C       10.10339590      11.60360140      12.98749740       0.01431081      -0.01381220      -0.00333259
C       10.18532735      12.78041528       9.59303059       0.00623447       0.00401747       0.00181885
C       11.04158639      13.29476667       7.48372426      -0.00109169       0.00633003      -0.00014237
H        9.12821502      13.15913397      11.83886991       0.00971437      -0.00855815       0.00759806
H        8.60370030      11.50691575      11.43481127       0.01210922      -0.00671500      -0.00158818
H        9.39300719      11.63342334      13.80851270       0.01297536      -0.02735987      -0.00384502
H       10.41113887      10.56612815      12.85982620       0.02337420      -0.00979505      -0.01340553
H       10.97758951      12.20211177      13.25005472       0.00900999      -0.00908495       0.00368015
H       10.12490884      13.02292641       6.96636917      -0.00452781       0.00919089       0.00466359
H       11.90338849      12.99693563       6.89444300      -0.00516874       0.00460854      -0.00514287
H       11.06219893      14.36349133       7.68477973       0.00285878       0.00591201       0.00101742
O        5.19499017      11.23463829       0.15541542       0.01008591       0.00546452      -0.00294928
O        5.69466686       9.13971144       0.63571471      -0.00129804       0.01042058       0.00622493
O        7.32729026      10.69080294       0.72199025       0.02518880       0.00394768       0.00562204
C        5.82428411      12.44838247      -0.38267272       0.01104838       0.00032349      -0.01262353
C        4.73250120      13.41990248      -0.75092127       0.01408391       0.00004022      -0.01405172
C        6.20406307      10.34356910       0.53052614      -0.01578271      -0.00782661      -0.00123021
C        6.71632948       8.15527435       0.96729158      -0.01302668      -0.00007302       0.01521204
H        6.48539933      12.84621666       0.38372541       0.01626436       0.00194126      -0.01649252
H        6.39500910      12.11504973      -1.24616884       0.00714242      -0.00828482      -0.01270744
H        5.05792092      14.09340903      -1.53793751       0.01502810      -0.00245491      -0.01524192
H        3.85597914      12.91581663      -1.19301389       0.01332767       0.00039742      -0.01434834
H        4.45611573      14.10373742       0.07372445       0.01296308       0.00256862      -0.01630655
H        7.49382642       8.20204187       0.21023669      -0.01477572      -0.01898932       0.01101217
H        6.21979293       7.19662824       0.93347371      -0.02392711       0.00623105       0.03071569
H        7.10750014       8.35689413       1.96114037      -0.00565739       0.00899550       0.01136541
O        4.61334044       4.45829173      12.46330527       0.00100529      -0.00322416       0.00419981
O        5.98531287       2.78126587      12.46589605       0.00839125       0.00273642       0.00498041
O        6.79129783       4.83237171      11.95258987      -0.00306261       0.00424552       0.00039834
C        4.37566978       5.88451550      12.27473178      -0.00597399      -0.00461073       0.00102599
C        2.89626889       6.12381869      12.40330439      -0.00710279      -0.01280298       0.00424593
C        5.88511890       4.10893165      12.26301155       0.00415623       0.00385243       0.00220096
C        7.30519780       2.27227224      12.21696558       0.01005398       0.00860669       0.00230377
H        4.94334273       6.42158774      13.03230085      -0.00602472       0.00045595      -0.00291225
H        4.78507068       6.19619376      11.31643206      -0.01077715      -0.00593571      -0.00131983
H        2.71175990       7.19774297      12.35721179      -0.01395723      -0.01403189       0.00251284
H        2.34839306       5.64255505      11.59389792      -0.00620902      -0.01796618       0.00683436
H        2.51797565       5.75834565      13.35993872      -0.00251411      -0.01286680       0.00591387
H        7.54507712       2.35080374      11.15707663       0.00812094       0.01087313       0.00216603
H        7.28264209       1.22918426      12.51593111       0.01437459       0.00808758       0.00110886
H        8.04154116       2.82288849      12.79854680       0.00868550       0.01056200       0.00188380
O        6.14778650       7.59255837       7.79118240      -0.00237018       0.00061768       0.01009993
O        7.40951648       9.25920306       8.27426491      -0.00701395       0.00402039       0.01119059
O        8.36732158       7.21403063       8.08395249      -0.00063515       0.00792110       0.00324075
C        5.96069942       6.21223919       7.45479879       0.00376076       0.00101241       0.00491532
C        4.49068539       5.92401481       7.63957134       0.00324738      -0.00337060      -0.00604264
C        7.41132427       7.94520185       8.04498181      -0.00281763       0.00467932       0.00765622
C        8.69826246       9.82540336       8.49693423      -0.00848597       0.00838679       0.00852703
H        6.29142455       6.06249738       6.42522643       0.01109245       0.00453532       0.00688374
H        6.59300886       5.60319840       8.10430267       0.00085282       0.00078034       0.00745544
H        4.24919720       4.91710725       7.29877161       0.00834533      -0.00279471      -0.01130856
H        4.20421904       6.01050879       8.68847161      -0.00449611      -0.00759209      -0.00790250
H        3.89688176       6.62863832       7.05921699       0.00554372      -0.00311533      -0.00800255
H        8.98752419       9.68060432       9.53805202      -0.00512715       0.00783844       0.00749749
H        8.58859395      10.88358276       8.27546785      -0.01288317       0.00811607       0.01018298
H        9.42864391       9.37013325       7.82913818      -0.00865597       0.01203537       0.00598261
