197
Lattice="18.015440448236777 0.0 0.0 0.0 18.015440448236777 0.0 0.0 0.0 18.015440448236777" Properties=species:S:1:pos:R:3:forces:R:3 energy=-1738301.625 stress="-0.0005889945314265788 7.695367094129324e-05 -5.074164437246509e-05 7.695367094129324e-05 -0.0008685844950377941 0.0003015107213286683 -5.074164437246509e-05 0.0003015107213286683 -0.0006456142291426659" pbc="T T T"
Pr      18.18009013      18.32527797       0.12342929      -0.01164171       0.00611937       0.00977632
N       11.47454545      16.79330301      13.58344461      -0.00094062      -0.00046337       0.00666770
C       10.85844760      17.75806952      13.80776782      -0.00308204       0.00728464       0.00755113
N        0.40530818      16.22117766      17.50317025      -0.01711227       0.00243729       0.01215675
C        0.10719153      15.11138963      17.79380164       0.02024111       0.00690687       0.04333626
N        0.94668761      17.93586335       7.53700124      -0.00276309       0.02221962       0.01408613
C        2.04846996      17.90507088       7.14124123      -0.02315009      -0.02402385      -0.00520033
Cl       4.45167140       9.42551550      -0.50296335       0.01382771       0.00383200      -0.00063610
Cl       7.23976275       9.37325296       0.36017302       0.01057437       0.00016786       0.00953908
Cl       5.71267556      11.85562073       0.53206234       0.01128655       0.00059512       0.00718912
C        5.64280845      10.08227713       0.62873248       0.01013538       0.00065160       0.00461999
H        5.32304864       9.81837711       1.63043314       0.00689740      -0.00069860       0.00311130
Cl       0.09305251       4.83240159      16.48487791      -0.00806985       0.00683126       0.01260623
Cl       2.20466653       6.71095183      17.21868685       0.00262907      -0.00283134       0.00465948
Cl      -0.34212393       7.71427897      16.21106722       0.00548911       0.00854693       0.00949979
C        0.46046142       6.42626005      17.13785697       0.00114746       0.00579653       0.00936541
H        0.07735888       6.47367383      18.15006571       0.00423586       0.00875691       0.01041988
Cl      15.10435462      14.33208029       2.16018761       0.01098478       0.00344044       0.00801510
Cl      15.87267809      17.97352750       1.03383771      -0.02289369       0.01851666      -0.01608749
Cl      12.80780646      16.01478362       1.68243477      -0.00173670      -0.01275399       0.01383343
C       14.22768165      15.69650885       2.45429885       0.00449572      -0.00062177       0.00680766
H       14.58623782      16.39578569       3.19664037       0.00540406       0.00534111       0.00051588
Cl       2.00363607      16.57915698       4.36126154       0.02049267      -0.00712609       0.00827953
Cl       2.45544427      17.77097373       1.70508111      -0.01812108      -0.00438404       0.00563565
Cl       3.32034850      15.02102922       2.24896792       0.02688555       0.00938858       0.00021887
C        2.09792322      16.15728712       2.69058403       0.01273274      -0.00902420       0.00792748
H        1.13703848      15.85742928       2.27607921       0.01496325      -0.02389707       0.01438298
Cl       6.04300578       1.75449771       1.90129198      -0.00278974       0.00070713       0.01045319
Cl       6.06060423       2.59056414       4.69900237       0.00175351       0.00514285       0.00887233
Cl       8.40030167       1.26967992       3.55715714       0.00123228       0.00699696       0.00654367
C        7.03713490       2.35033226       3.24692440      -0.00104621       0.00402079       0.00730591
H        7.43817484       3.31116561       2.94394042      -0.00328469       0.00412509       0.00528883
Cl      14.31440450       3.62759729       9.92004719       0.01175675      -0.00196224       0.00681674
Cl      16.34756323       5.67185807      10.39639121       0.01270896      -0.00270450       0.00490454
Cl      17.09542334       3.15494639       9.14319217       0.00968692      -0.00165895       0.00124189
C       15.81662227       4.35165633       9.33227035       0.01065060      -0.00162982       0.00468612
H       15.61616050       4.78605311       8.36038232       0.00854329      -0.00068586       0.00565809
Cl      -0.27668153       1.50176458      16.02982506       0.01733388       0.01216318       0.00665888
Cl       5.16425851      -0.62316949      17.38379930      -0.00346801      -0.01630200       0.00487238
Cl       3.28563192      -1.15576438      15.24418330      -0.02601278       0.00659418       0.01969859
C        4.38601907      -0.17706351      15.99425703       0.00087776      -0.01300747       0.00371131
H        4.63515810       0.76803481      15.53845038       0.01914962      -0.02278733      -0.00550404
Cl       1.81181211      10.63195573       5.06428532       0.00472232       0.00940755       0.00916222
Cl       0.81133344      13.06030488       3.79325818       0.01209085       0.01072821       0.00741322
Cl       2.93870417      11.51763035       2.52206873       0.00810850       0.00445134       0.00923899
C        1.49203755      11.43368292       3.52742448       0.00777229       0.00884026       0.00838639
H        0.74437701      10.85991918       2.99341198       0.00638813       0.01051775       0.00860666
Cl       4.89962099       5.82073077       2.82343491      -0.00495060       0.00500798      -0.00781287
Cl       4.94313768       8.15750467       4.57588060       0.01172690       0.00195843      -0.00445807
Cl       2.65103495       7.67241612       2.83538342      -0.00108756       0.00943379       0.01142940
C        3.93042238       6.92667239       3.80898854       0.00439776       0.00512544       0.00086678
H        3.46271495       6.34931391       4.59810231       0.00893223       0.00481971       0.00325760
Cl       3.00771015       8.94826283      14.05301586       0.00421755       0.00187348       0.00799792
Cl       3.72633600       6.12843373      13.80490005       0.01020094       0.00359993       0.00454463
Cl       1.20735681       7.08811815      12.70810891       0.00241424      -0.00344354       0.01896086
C        2.89679787       7.49508232      13.05268540       0.00293002       0.00140531       0.00909279
H        3.38881105       7.70287346      12.10683443      -0.00175627       0.00375968       0.00713043
Cl       5.83883961      13.62899603       8.62446314      -0.01513215      -0.00155193       0.00809419
Cl       7.07392355      16.26758852       8.82588068      -0.01172403      -0.00278771       0.00780879
Cl       4.26272484      16.05250555       8.06751531      -0.00829709      -0.00080127      -0.00695503
C        5.56436314      15.34883287       9.01267795      -0.01419631      -0.00013098       0.00173152
H        5.29833482      15.39751759      10.06076699      -0.01911411       0.00359241       0.00021243
Cl      12.67698258      10.00598126       9.06697416       0.00120839      -0.00446400      -0.01010859
Cl      13.28777971       7.16824527       8.83956395       0.00522252      -0.00503632       0.01099837
Cl      15.43115568       9.09226784       9.37864445       0.00145039       0.00072189       0.00144854
C       13.72023085       8.69608018       9.62227886       0.00173721       0.00085862       0.00106731
H       13.56651990       8.57558320      10.68740159      -0.00027645       0.00823601       0.00142181
Cl       8.11866653       2.32259371      15.06714623      -0.00695865      -0.00365928      -0.00505984
Cl       9.10788490       0.33642629      16.95728194      -0.01330441      -0.00032685       0.00174433
Cl       7.46396090      -0.49178224      14.68804432      -0.00182080      -0.00490776      -0.00454810
C        8.70475952       0.65738298      15.26476031      -0.00621212      -0.00264630      -0.00040317
H        9.65827155       0.43942609      14.60214651      -0.00296122      -0.00077009       0.00343609
Cl       8.08532243      11.22106759       5.92303250      -0.00534329       0.00932533       0.00025849
Cl       9.95286795      11.87282066       8.05831658       0.00562140      -0.00079498      -0.00659674
Cl       9.39623734       9.07363163       7.40726207      -0.00404137       0.00274923      -0.01136546
C        9.55522751      10.71674047       6.77968191      -0.00309740       0.00379323      -0.00785948
H       10.37074413      10.72145649       6.06667095      -0.00652325       0.00405511      -0.01161756
Cl      -0.09099873       2.25817671       2.28990592      -0.01791826       0.00175624       0.01078467
Cl       2.43167084       3.17374259       1.17785739      -0.01525975      -0.03984153      -0.01083818
Cl       1.37887326       4.37409264       3.63705147      -0.00940524       0.02096425      -0.03548414
C        1.55465470       2.92700909       2.69556354      -0.01569888      -0.00029550      -0.00349185
H        2.05980645       2.16225587       3.27715812      -0.01889287       0.00635237       0.00839058
Cl      15.96701068       3.84832305      13.66262422       0.00874764      -0.02194887       0.00069119
Cl      14.55957744       1.30387821      14.00191767      -0.00995367      -0.00929594       0.01134155
Cl      14.50690284       3.29669501      16.13734839       0.00159329       0.00118905       0.00108337
C       14.57319425       3.02635522      14.38399034       0.00164983      -0.00801130       0.00246608
H       13.68075852       3.46382736      13.95651362       0.00571883      -0.00314999      -0.00081433
Cl      10.78877184      13.80886031       4.15657902      -0.02721156      -0.00739120      -0.00485599
Cl      10.13823254      13.38116478       1.33589819      -0.00174058      -0.00410488      -0.01085669
Cl      10.69181662      11.10332418       3.06357078      -0.01252240      -0.00557026      -0.01043053
C       10.01008867      12.73841660       2.97102568      -0.01470302      -0.00689240      -0.01330068
H        8.96253161      12.67429464       3.23975100      -0.01652619      -0.00882929      -0.02251767
Cl       7.05876432       4.50213391      12.20472348      -0.00229475       0.00274864       0.00459776
Cl       8.20472299       7.16258323      11.85944469       0.00746790      -0.00461720      -0.01438274
Cl       5.90907309       6.33773370      10.25221867      -0.00254497      -0.00320677       0.00005320
C        6.73292455       6.20193527      11.81805024       0.00315126       0.00185397      -0.00303262
H        6.05751065       6.57872682      12.57636720       0.00831322       0.00896768      -0.00208814
Cl      10.79430245      12.77690180      14.35743322      -0.00147810      -0.00105107       0.00134414
Cl       9.30329302      14.62806764      16.03616619       0.00988120      -0.00300565       0.01344150
Cl      12.18378698      14.33721708      16.40597897       0.01177862      -0.00492430      -0.00518826
C       10.84481836      14.31670064      15.22455726       0.00458424      -0.00263473       0.00347567
H       11.04423144      15.12618077      14.51400484       0.00007981      -0.00146985       0.00374192
Cl      12.27832559      13.35017324      10.95354360      -0.00772172       0.00370762      -0.00874187
Cl      14.10551880      14.18740810      13.06386618      -0.00774285       0.00517422      -0.01001173
Cl      14.05588374      11.40628643      12.20897268      -0.01070988       0.00389063      -0.00446899
C       13.86101369      13.08969266      11.70751902      -0.00843520       0.00297127      -0.00776094
H       14.61594429      13.30603717      10.96282962      -0.00800693       0.00047386      -0.00807568
Cl      16.93616844      11.59319404       0.85324301       0.01594825       0.00294590       0.00703253
Cl      17.04085798       9.07804003       2.35709378       0.00719886       0.00179796       0.00493310
Cl      14.46161675      10.24341538       1.62017867       0.01189575       0.00046545      -0.01140936
C       16.15121653      10.03619851       1.15181063       0.01497884       0.00220405      -0.00053145
H       16.18741134       9.47023305       0.22893910       0.02146746       0.00358991      -0.00096117
Cl      11.25840824       5.22350736      15.01942854       0.02497652       0.01621361      -0.02553558
Cl      11.66716086       5.57451875      12.15328133       0.00322625       0.00500390      -0.02732462
Cl      11.16916385       2.91038380      13.24240587      -0.00242706       0.01059097      -0.01566522
C       10.82940111       4.62946669      13.40004987       0.00784986       0.01269418      -0.01897124
H        9.76432914       4.77996803      13.27134083       0.00755978       0.01767172      -0.01085151
Cl      14.53733844       8.82452770      14.35681487      -0.00285693      -0.00532514      -0.01110440
Cl      16.50212671      10.87578513      15.07639940       0.00208911      -0.01362546      -0.00241594
Cl      13.69420040      11.24257843      15.78382554       0.00322655      -0.00880057      -0.00276186
C       14.98456133      10.08072202      15.53614152      -0.00014283      -0.01165798      -0.00590526
H       15.15246312       9.56241728      16.47218988      -0.00170101      -0.01541907      -0.00775883
Cl      17.55666085       2.23191872       5.66999759      -0.00337541       0.02533084       0.00115961
Cl      14.88955949       1.63170108       6.65324081       0.00426227      -0.00327100       0.00370211
Cl      16.25697159      -0.27249717       4.90095888       0.01265696       0.02240805      -0.01744387
C       16.45667671       0.95375804       6.18483457       0.00709861       0.01283659      -0.00672604
H       16.93124708       0.45460294       7.02856582       0.01512253       0.01011492      -0.01240259
Cl      16.72165471       6.45592114       4.81451374      -0.01691011      -0.01730475       0.00749479
Cl      14.89118524       4.22685624       4.40953147      -0.02973576      -0.00591895      -0.00435407
Cl      14.36804401       6.76815571       3.09189998      -0.00317064      -0.00222254      -0.00708846
C       15.61049309       5.65616318       3.67557276      -0.01386996      -0.00943958      -0.00004497
H       16.20458341       5.34298465       2.82540116      -0.01013049      -0.01425605       0.00400186
Cl       2.62999545      12.10150295      15.69004059      -0.00527290       0.00857124       0.00396413
Cl       1.31900633      13.96079483      13.86256665      -0.00307593       0.00462690      -0.00056525
Cl       4.22161968      13.60211982      13.75031714      -0.00326121       0.00305663       0.00156898
C        2.66103718      12.82118686      14.07689284      -0.00361502       0.00460524       0.00239424
H        2.53863340      12.02995581      13.34715596      -0.00334999       0.00288239       0.00424731
Cl       6.94586970      10.26331296       9.95763241      -0.00331283      -0.00375184      -0.00697336
Cl       6.61145224      10.75411802      12.81399573      -0.00209458      -0.01713833      -0.00587973
Cl       9.28510317      10.73438124      11.63611851      -0.00224796      -0.00272921      -0.00884005
C        7.57873949      11.11424118      11.37388580      -0.00379650      -0.00739957      -0.00489914
H        7.49918418      12.17577853      11.17673720      -0.00688646      -0.00708187      -0.00044451
Cl       0.67362138       1.09347984      12.74608309       0.01519728      -0.01179489      -0.01003197
Cl       1.55027263       3.70149907      11.78420578       0.00566161      -0.00469872       0.00222056
Cl       2.80049874       2.54112427      14.14994169       0.00145979      -0.00360479       0.00384521
C        2.02265623       2.19551977      12.57507602       0.01043651      -0.00392455       0.00031841
H        2.77054448       1.71060318      11.96307602       0.01557702       0.00171460       0.00254680
Cl       6.95764648       1.06195550      11.54758095       0.00903651       0.00388263      -0.01254967
Cl       5.87557102       2.01471625       9.00673513      -0.00136220      -0.00587247      -0.01149160
Cl       4.27578238       0.28586204      10.72178207       0.00683671      -0.00287795      -0.00453949
C        5.51654946       1.56180383      10.66697117       0.00558411      -0.00236456      -0.00918178
H        5.10983054       2.43345854      11.16831981       0.00462769      -0.00222167      -0.01058093
Cl      12.65839194      14.51352565       7.26620312      -0.00901577       0.00029022      -0.01134431
Cl      12.61292273      17.41945690       7.36104477      -0.00226292      -0.00060570      -0.00301650
Cl      10.11833024      15.90689082       7.52943140      -0.00344816       0.00439125       0.02116540
C       11.84468173      15.94317377       7.92427353       0.00093693      -0.00013983       0.00129500
H       11.93181304      15.89843432       9.00318765       0.01275013      -0.00336996      -0.00004035
Cl       8.55894944       4.42195802       7.73690320       0.00237945       0.00150970      -0.00070208
Cl      11.32468351       3.77151466       7.05253077       0.00597972      -0.00292224       0.01072690
Cl       9.39654458       1.62837181       7.51897388      -0.00213996       0.00042808      -0.00048977
C        9.62739372       3.27275627       6.91596472       0.00355054       0.00056096       0.00361737
H        9.36747190       3.27474247       5.86450712       0.01000982       0.00349624       0.00202137
Cl      -0.79512248      12.58417240       8.42572614      -0.01536560      -0.00068466       0.00780669
Cl       0.47329544      14.97500335       7.33515573      -0.01694077       0.00252050       0.01184812
Cl       2.12112564      12.71680085       8.10816143      -0.01613796       0.00330777       0.01098031
C        0.55811201      13.22899643       7.45243637      -0.01554612       0.00271860       0.01002768
H        0.46338144      12.79237297       6.46737645      -0.01431768       0.00425719       0.00944248
Cl      14.71209841       9.18334497       5.72374347       0.00321267       0.00404638      -0.00597227
Cl      16.06139921      11.67885056       5.05997379       0.00057317       0.00617996      -0.00194797
Cl      13.22511417      11.68325501       5.68414408      -0.00274026       0.00029314      -0.01751186
C       14.78440140      10.91433068       6.02319185      -0.00287716       0.00457425      -0.00802549
H       15.02317701      11.07319664       7.06859641      -0.00909013       0.00651602      -0.00699881
Cl       0.97915950       9.40629509       9.02288876      -0.00947945      -0.00325834       0.00292766
Cl       3.47709855      10.11208361      10.36880641      -0.01057762      -0.00566291       0.00507458
Cl       0.96482782      11.32798480      11.24281748      -0.01129964      -0.01044062       0.00843633
C        1.72547374       9.89309877      10.54712491      -0.01024624      -0.00779855       0.00457342
H        1.56063531       9.08462781      11.24749730      -0.00955252      -0.00999293       0.00213860
Cl       9.63295707       3.70856069       0.83644964      -0.01831206      -0.01316103       0.00238749
Cl       7.45119484       5.38316028      -0.13600199      -0.00712872       0.00245623       0.00441612
Cl       8.79819556       6.04911519       2.37032674       0.00301045      -0.00607904       0.00127327
C        8.98390615       5.34972719       0.74751872      -0.00602828      -0.00814536       0.00173461
H        9.69269398       5.96388333       0.20581368      -0.00286561      -0.01423693      -0.00056562
Cl      16.46718791      17.98649865      10.19205121      -0.02309845       0.01037091       0.00073776
Cl      14.97988967      15.57111436       9.57462720       0.01317456      -0.00640228      -0.01856837
Cl      17.33368260      15.42110918      11.28913169      -0.00078174       0.01862141       0.00158591
C       15.95488379      16.42063664      10.79525599      -0.00847447       0.00255512      -0.00827268
H       15.32639603      16.56592023      11.66535970      -0.01750776      -0.00794563      -0.01336086
Cl       5.74085947      13.71220059       4.51466386       0.00822237       0.01141649       0.02386198
Cl       7.14851928      15.30503692       2.51590506       0.00877267      -0.01392603       0.00407338
Cl       5.59284103      16.63428686       4.60457489       0.02561885       0.01222229      -0.00124978
C        6.58693450      15.23992981       4.20487991       0.01541144       0.00330498       0.00687881
H        7.46569216      15.25637883       4.83715273       0.01846111       0.00367703       0.00225766
Cl       4.43072095       5.08820390       7.02890314       0.01957212       0.00290991      -0.00191170
Cl       1.71846745       5.76273129       7.88426284       0.01414678       0.00609329      -0.02789310
Cl       2.50832517       2.95502004       7.59155262       0.00664635       0.00018752      -0.02161697
C        3.03317168       4.57310418       8.01684794       0.00789315       0.00003080      -0.02031470
H        3.36460201       4.57735674       9.04880105      -0.00301293      -0.01143976      -0.01776242
