190
Lattice="13.18364682050806 0.0 0.0 0.0 13.18364682050806 0.0 0.0 0.0 13.18364682050806" Properties=species:S:1:pos:R:3:forces:R:3 energy=-348908.5 stress="0.0009949019877240062 9.575884178048e-05 0.000492123537696898 9.575884178048e-05 0.00011480689136078581 1.4631063095293939e-05 0.000492123537696898 1.4631063095293939e-05 0.0006534269195981324" pbc="T T T"
Pr      12.55542209      13.50076809      -0.70033667       0.00484823      -0.00103974      -0.00500743
O        8.67531752      12.27180871       8.40888801       0.00603497      -0.00190973      -0.01608491
O        8.83912857      12.45148922       6.17394525      -0.00957398       0.01443744      -0.01947713
C        9.52467368      10.41736376       7.17458972      -0.01385435       0.00131392       0.00083186
C        8.96359626      11.83243070       7.26599145      -0.00399965      -0.01237404       0.04759532
H       10.05669931      10.26678372       6.23519274      -0.00779997      -0.00407402       0.00500955
H        8.68141007       9.72473982       7.20403849      -0.01617815       0.00225589      -0.00341699
H       10.18669370      10.19985388       8.01485089      -0.01746553      -0.00837198       0.00602336
O        6.33688070       9.78578689       6.40956191      -0.01397562       0.00034246       0.00554144
O        4.30081287       9.46670965       5.51089021      -0.02599120       0.03768897       0.01355672
C        5.30690246      11.61255405       5.29269524      -0.00750817       0.00861895       0.00509655
C        5.31409312      10.15777497       5.76447881      -0.02712098       0.00903785       0.00521034
H        5.05885143      11.64803719       4.23049187      -0.00864017       0.00321645       0.00498497
H        6.25977905      12.10536456       5.47955280      -0.00607610       0.00285517       0.00251424
H        4.51834809      12.14639238       5.83344485      -0.00603565       0.01257065       0.00330107
O       11.92433170      11.52758083      11.50518875       0.00548880      -0.00215550      -0.00265160
O       10.32709345      12.82139995      12.28493420       0.00493743       0.00119886       0.00091011
C        9.64985372      10.93139171      10.98584895       0.00319099       0.00253054      -0.00074564
C       10.67238632      11.77654941      11.62420761       0.00010891      -0.00398023      -0.00394898
H        8.74650669      10.90095224      11.59318641       0.00217327       0.00216208      -0.00124469
H       10.03404063       9.93477790      10.79143390      -0.00007518       0.00126678      -0.00423397
H        9.36708517      11.40530100      10.01348246       0.00139102       0.00401333      -0.00193548
O       11.49296873       6.32642031       2.43129091      -0.01154262       0.00118069       0.01320422
C       11.34529777       7.56468288       1.71922907      -0.00715113      -0.00133836       0.00768040
C        9.90730752       7.76021207       1.26716263      -0.00604737       0.00133244       0.00530633
C       11.84505586       8.72774339       2.55735744      -0.00426577       0.00084174       0.00307968
H       11.98527131       7.44883276       0.84026873      -0.00666595      -0.00721003       0.00880855
H        9.81294802       8.67490316       0.67662510      -0.00245329      -0.00079544       0.00146582
H        9.57417624       6.92211968       0.65408906      -0.00809310      -0.00024340       0.00847621
H        9.24457940       7.83997292       2.13380955      -0.00684650       0.00731448       0.00420026
H       11.82949249       9.65334984       1.97920493      -0.00040114      -0.00180426      -0.00135241
H       12.86643769       8.54808091       2.89272282      -0.00536869      -0.00100365       0.00530525
H       11.20780540       8.86935921       3.43489558      -0.00485982       0.00709704       0.00171988
H       11.00031751       6.41320107       3.25507653      -0.01586407       0.00441059       0.01012278
O       12.64373800       2.59517622       0.08364912       0.02324529      -0.00584662       0.00224008
C       11.78352097       2.88565620       1.24683542       0.01544134       0.00110799      -0.00561023
C       10.55881100       3.66660601       0.84527202       0.02109164       0.00440854      -0.01666193
C       11.43753152       1.50883814       1.77763380       0.00390567       0.00437328      -0.00336412
H       12.38807712       3.43990984       1.96814979       0.01209888       0.00048104      -0.00222746
H        9.94977144       3.85175947       1.73132487       0.01531068       0.00975967      -0.02163646
H       10.82594851       4.63781180       0.43294879       0.02756716       0.00185767      -0.01830888
H        9.97005277       3.10363316       0.11994928       0.02395435       0.00404531      -0.01883723
H       10.82530416       1.57016009       2.67711686      -0.00557871       0.01076136      -0.01022807
H       12.33760265       0.94608578       2.04781989      -0.00210045       0.00066775       0.00780398
H       10.81502410       0.95457354       1.05553038       0.00790989       0.00383716      -0.00660627
H       13.11103540       3.36892200      -0.26588379       0.03928024      -0.01218987       0.00739327
O        7.84269108       1.55497615       5.41068816       0.00193906      -0.00006282       0.01569146
C        8.85077570       2.16262001       4.65028965       0.00049168       0.00013572       0.00285619
C        8.53263001       3.64190761       4.54579131       0.00141436      -0.00154877      -0.00641926
C       10.23332649       1.94376277       5.25717748      -0.00009960       0.00127201       0.00306848
H        8.85224417       1.74262508       3.62322946      -0.00405323      -0.00929371       0.00822884
H        9.25474843       4.16482967       3.91417401       0.00059447      -0.00813022      -0.01241987
H        7.53554423       3.79523919       4.13402860       0.00039274      -0.00337317      -0.00532258
H        8.55349215       4.09064327       5.53924066       0.00430458       0.00626415      -0.01009782
H       10.99844497       2.51535250       4.72407973       0.00041189      -0.00440009      -0.00334609
H       10.49106239       0.88472588       5.26095250      -0.00129739       0.00078398       0.00914682
H       10.22147817       2.28580696       6.29308975       0.00370020       0.00886650      -0.00007208
H        8.18180841       0.68605574       5.78215808      -0.00469724       0.00943260       0.00714988
O        7.00431685      10.48301345       2.53401754      -0.00587773       0.00463873      -0.00623958
C        7.65170253      11.75822816       2.50491680      -0.00329092       0.00285974      -0.00080422
C        9.12699979      11.62967750       2.83528815      -0.00466132      -0.00008131       0.00560808
C        7.41226089      12.43372342       1.16307707       0.00390156       0.00704297       0.00035149
H        7.16777903      12.33338152       3.29561150      -0.00598580       0.00165954      -0.00083756
H        9.60139522      12.61296807       2.83102873      -0.00245939      -0.00123911       0.00918540
H        9.26003071      11.20569810       3.82946530      -0.00961750      -0.00217741       0.00540492
H        9.62966447      11.00579459       2.08749744      -0.00268726      -0.00009590       0.00694685
H        7.80440243      13.45386934       1.15748379       0.00484514       0.00667050       0.00465787
H        6.34491024      12.46857052       0.94178246       0.00483125       0.00859323      -0.00451605
H        7.90977365      11.88012121       0.36295199       0.00714489       0.00870405       0.00122728
H        7.56088041       9.86152096       2.05491741      -0.00866406       0.00626720      -0.01303212
O        2.01379097       3.42008966      11.65862370       0.01576659      -0.00798744       0.04043213
C        2.74432423       2.31439372      11.12960515       0.00748370       0.00134879       0.01149401
C        4.14794432       2.22296572      11.69610641       0.01192057      -0.01426155      -0.00506666
C        1.95279946       1.05768455      11.46793726       0.00399526      -0.00007388      -0.00663276
H        2.79681123       2.39464173      10.03401174      -0.00071953       0.02160722       0.01325393
H        4.65834676       1.33579605      11.31788100       0.00481037      -0.00612131      -0.03167750
H        4.72207556       3.10656336      11.42808791       0.01253642      -0.01045161       0.00962587
H        4.10621347       2.17048807      12.78429139       0.02228640      -0.04030396      -0.00661890
H        2.48598012       0.15516481      11.16151628      -0.00362292       0.00302017      -0.02732282
H        0.99812520       1.09266063      10.92426409       0.00017700       0.01692506       0.00186588
H        1.79817451       1.03677838      12.55977764       0.01161587      -0.01904168      -0.00649391
H        2.63054220       4.17921891      11.72426499       0.01318085      -0.00440422       0.03092274
O        3.01267176       0.84757594       3.39204963      -0.00007385      -0.00444520       0.00586018
C        3.98177774       1.87416671       3.69792381      -0.00156715      -0.00022674       0.00252420
C        4.76196561       2.13728994       2.42914567      -0.00121078       0.00517381       0.00261927
C        3.27117554       3.12686567       4.18612470      -0.00348634      -0.00199604       0.00488849
H        4.66487520       1.50414985       4.46872203      -0.00010237       0.00068094       0.00142288
H        5.53041032       2.89279437       2.59891017      -0.00192747       0.00617309       0.00497793
H        5.24458585       1.22622814       2.07626538       0.00089558       0.00703862       0.00073412
H        4.08746928       2.50337064       1.65180174      -0.00066169       0.00644065       0.00258844
H        3.98494126       3.93307354       4.37146387      -0.00464258      -0.00154862       0.00878358
H        2.72830798       2.94700865       5.11487815      -0.00476439      -0.00583915       0.00325207
H        2.55012349       3.45311367       3.43063391      -0.00273109       0.00017922       0.00491783
H        2.87674798       0.33116721       4.19105097       0.02121131      -0.02824898      -0.00457352
O        6.51334982       7.33220910       7.26669994      -0.00738883       0.00401825       0.00095451
C        6.04026297       6.57886879       6.17021041      -0.00151623       0.00092244      -0.00008970
C        6.93966882       6.77818998       4.95060387       0.00025058       0.00481743       0.00171053
C        5.96099763       5.12648526       6.60674298       0.00565770       0.00052053      -0.00024953
H        5.03663255       6.93433988       5.89588063      -0.00292492      -0.00459832      -0.00181198
H        6.56617047       6.21950347       4.08775051       0.00437537       0.00317860       0.00088015
H        6.96892497       7.83816609       4.69389186      -0.00287550       0.00491482       0.00148019
H        7.95531707       6.44293166       5.17501359       0.00080419       0.00835047       0.00396745
H        5.72676772       4.46397482       5.77258314       0.00900227      -0.00071708      -0.00021052
H        5.19720277       4.99827843       7.37314556       0.00647692      -0.00318052       0.00012657
H        6.91784419       4.80768733       7.02520535       0.00728588       0.00532946      -0.00032986
H        6.42721216       8.29697745       6.98530819      -0.01243708       0.00161821       0.00305837
O       11.91782859       1.42660845      10.51777765       0.00130069      -0.00449230      -0.00577931
C       12.31763218       1.43168970       9.09413139       0.00508291      -0.00196052      -0.00501245
C       11.52381958       0.38729478       8.35586982       0.00795105      -0.00071311      -0.00898409
C       12.16678707       2.83665315       8.55867909       0.00598826      -0.00081658      -0.00254776
H       13.37573857       1.15696999       9.10781189       0.00512174      -0.00168454      -0.00247602
H       11.80742871       0.37718507       7.30377703       0.01244534       0.00079464      -0.00793754
H       11.71253282      -0.60616905       8.76474089       0.00591736      -0.00143149      -0.00996985
H       10.44956620       0.57094130       8.41016458       0.00730368      -0.00063727      -0.01286809
H       12.49644816       2.87404402       7.52053647       0.00961094       0.00169978      -0.00151408
H       12.76012070       3.54992063       9.13101799       0.00312431      -0.00130512       0.00096788
H       11.11826514       3.14182853       8.57872641       0.00576413      -0.00160477      -0.00554111
H       10.96890919       1.75362102      10.59569709       0.00066939      -0.00507173      -0.00796217
O        9.44818972       2.02508947      11.13043947       0.00066648      -0.00368989      -0.01042791
C        8.35264782       2.84336940      10.61883147      -0.00033695      -0.00550485      -0.01128018
C        8.85951609       4.26753997      10.59239895      -0.00306252      -0.00448257      -0.00980931
C        7.89314584       2.34268112       9.26748289       0.00107670      -0.00525700      -0.01164311
H        7.53680681       2.76011908      11.34766339      -0.00082377      -0.00735684      -0.01163095
H        8.09310792       4.93362829      10.19734733      -0.00454791      -0.00587630      -0.00974135
H        9.13820433       4.61198051      11.58851333      -0.00378944      -0.00444502      -0.00969687
H        9.73099999       4.34204867       9.94131345      -0.00321141      -0.00219179      -0.00993133
H        7.00099442       2.88720181       8.95324556       0.00086839      -0.00626013      -0.01213612
H        7.66962182       1.27447903       9.27333638       0.00322897      -0.00588134      -0.01286991
H        8.66138640       2.50355546       8.50924742       0.00165087      -0.00372999      -0.01127974
H        9.12937574       1.12472465      11.28037703       0.00079632      -0.00415754      -0.00925118
O       12.81081088       6.50830440       8.28596629       0.00224513       0.00021455      -0.00043300
C       11.49980777       6.50191122       8.85791184       0.00173783       0.00184932      -0.00150935
C       11.37349254       7.55844185       9.94204146       0.00001529       0.00353855      -0.00356734
C       10.42460730       6.63075356       7.79161576       0.00373232       0.00262769      -0.00403684
H       11.42692264       5.51684118       9.32404156       0.00330772       0.00357670       0.00238445
H       10.40498949       7.48021067      10.44130501      -0.00187908       0.00585615      -0.00663000
H       12.16437250       7.44502117      10.68447187      -0.00231928       0.00267812      -0.00111493
H       11.44847855       8.55850063       9.50763113       0.00329196       0.00278211      -0.00429036
H        9.42154950       6.56999267       8.21823052       0.00218739       0.00505574      -0.00710030
H       10.53376477       5.84085848       7.04657404       0.00358403       0.00367510      -0.00539760
H       10.49746616       7.59767422       7.28744413       0.00615660       0.00274062      -0.00357954
H       12.97727215       7.39273170       7.94257937       0.00436581       0.00125539       0.00310169
O        3.98839363       5.91162015       1.69073167      -0.00122179      -0.00057125       0.00278887
C        3.05253800       7.00294092       1.86162395      -0.00136104      -0.00030570       0.00203136
C        1.71893093       6.65276169       1.22444396      -0.00274259      -0.00243901       0.00610298
C        2.93373720       7.38419837       3.32192933       0.00257175       0.00268266       0.00141615
H        3.51651919       7.81982213       1.29930293      -0.00328955      -0.00153798      -0.00141087
H        1.05285358       7.51490221       1.23392796      -0.00370322      -0.00312364       0.00689519
H        1.85623652       6.34397299       0.18728720      -0.00537526      -0.00342965       0.00603703
H        1.22533463       5.85100099       1.78033097      -0.00023160      -0.00255588       0.00828503
H        2.24336921       8.22039978       3.45261007       0.00231479       0.00220256       0.00285693
H        3.88200605       7.69136357       3.76020692       0.00400332       0.00414830      -0.00250576
H        2.52943346       6.54482720       3.89676375       0.00552318       0.00328580       0.00444960
H        3.72391915       5.20076030       2.28603534       0.00205034       0.00179699       0.00690773
O        2.55309721      10.84882160       8.73715014       0.00211817       0.00785629      -0.00903374
C        3.77200033      10.53302946       9.43236700      -0.00434154       0.00498246       0.00044733
C        4.26871494       9.15716007       9.03389658      -0.01056387      -0.00048202       0.01158977
C        4.82180428      11.61110154       9.20553638       0.00353783      -0.00311697       0.00120598
H        3.48273159      10.52936820      10.49116552      -0.01038863       0.01231576      -0.00090337
H        5.21197451       8.92398545       9.53080278      -0.01446682      -0.00376557       0.01693565
H        3.53476952       8.39009073       9.28325014      -0.01614392       0.00580060       0.01381603
H        4.45774647       9.11984125       7.95935435      -0.00771800      -0.00889083       0.01229858
H        5.69473930      11.44925354       9.84118648      -0.00237344      -0.00375507       0.00849359
H        4.40884349      12.59899413       9.42218304       0.00806034       0.00110897      -0.00903917
H        5.17957378      11.59580422       8.17595002       0.01132962      -0.01306262       0.00410739
H        2.70160330      10.62119269       7.81087312       0.00707909       0.00206872      -0.00712606
O        1.58438177       9.96529820       0.53578922      -0.00340757      -0.00080034       0.00354654
C        1.85030010      11.35318008       0.41226867       0.00035000      -0.00174755       0.00069146
C        0.90710124      12.13687048       1.32808830       0.00179413       0.00249700      -0.00136936
C        3.30447526      11.68752691       0.68732316       0.00124270      -0.00523296       0.00061205
H        1.60787930      11.57909181      -0.64202769       0.00146721      -0.00343043       0.00009227
H        1.05084751      13.22778678       1.23707599       0.00343677       0.00200677      -0.00397676
H       -0.14451327      11.84842874       1.14190836       0.00138226       0.00362223      -0.00092164
H        1.10938927      11.91065620       2.37753697       0.00097232       0.00474436      -0.00088370
H        3.49017704      12.76203836       0.63844679       0.00490839      -0.00613800      -0.00413820
H        3.95246007      11.18236159      -0.02883655       0.00011367      -0.01060788       0.00338456
H        3.57800937      11.36570828       1.69622363      -0.00034985      -0.00163511       0.00217572
H        2.07314965       9.64491199       1.30339645      -0.00874826       0.00081310       0.00763473
O        3.97871215       5.36966792      12.15085656       0.00138953      -0.01162305       0.00868845
C        4.79021196       6.32050042      11.43407309      -0.00863230      -0.00498209       0.00627825
C        6.01940417       6.69502725      12.24472655      -0.00358105      -0.00687054      -0.00107318
C        5.14254071       5.69617014      10.10301227      -0.01824124       0.00363562      -0.00000727
H        4.19673701       7.22609037      11.25556323      -0.01330772      -0.00619280       0.01658635
H        6.65405884       7.37240625      11.66990379      -0.01090108       0.00129496       0.00096703
H        5.74595613       7.18968309      13.17826123       0.00137519      -0.01747797       0.00588275
H        6.59772161       5.80111193      12.48943781       0.00179414      -0.00675404      -0.01421083
H        5.67586785       6.39271398       9.45295903      -0.02215855       0.00807093       0.00175281
H        4.23761045       5.37954669       9.58193425      -0.02161770       0.00734208       0.00365303
H        5.76953248       4.81498097      10.25917692      -0.01690459       0.00284377      -0.01043611
H        4.02658108       5.55615091      13.10893664      -0.00037166      -0.00863433       0.00843685
