196
Lattice="13.22681881395155 0.0 0.0 0.0 13.22681881395155 0.0 0.0 0.0 13.22681881395155" Properties=species:S:1:pos:R:3:forces:R:3 energy=-372311.625 stress="-0.00033085697214119136 -0.0006068115762900561 5.0708642447716556e-05 -0.0006068115762900561 -0.0013491695281118155 5.3611633120453916e-05 5.0708642447716556e-05 5.3611633120453916e-05 -0.001608847756870091" pbc="T T T"
Pr      13.47719211      13.08710618      -0.34114106      -0.06259862       0.01656660      -0.00191578
O       11.85076146      12.13090293       9.32525294       0.01428801      -0.03520232      -0.03095794
O       11.67170408      13.05793433      11.31922804      -0.01593131       0.00104672      -0.05103475
O       13.48587141      11.86422068      10.86410864      -0.00858849      -0.00307512      -0.00314200
C       12.35676762      12.35314433      10.53333501      -0.00263393      -0.01172052      -0.02791440
H       12.55785034      11.83748815       8.73540053       0.01834732      -0.07051185      -0.00746083
O        4.49409734      11.78678849       3.53457968      -0.03185344      -0.01090932       0.02610600
O        7.50165054      12.59107946       5.05431427       0.00498396      -0.01898223       0.02814686
O        5.84325930      11.35184639       6.11200507       0.01268190      -0.01358378       0.04694772
C        6.67468806      11.96918926       5.58554223       0.01497735      -0.01111430       0.03340438
H        3.73371566      12.01323416       4.08770070      -0.03333157       0.02166378       0.01145634
O       12.25374336      11.69608916       0.58608337      -0.04084374      -0.01631486      -0.02429724
O        9.50780797      13.68127915       0.23787040       0.06764968      -0.00922740       0.00128198
O        9.53438420      11.50956042      -0.58622083      -0.04362500      -0.03124964      -0.05505350
C        9.52991767      12.59538245      -0.16721465       0.01188645       0.09477937       0.01737782
H       11.52277988      11.20214803       0.20815082      -0.02801527      -0.05237567       0.00356270
O       11.20612461      12.73206085       5.33274225      -0.00536346      -0.00842777       0.00231487
C       12.08029728      11.79166149       4.72324778      -0.00461546      -0.00729394       0.00228326
H       11.99850499      11.80954933       3.63171640      -0.00831374      -0.01072356       0.00266296
H       11.88940228      10.77170600       5.07228048       0.00036041      -0.00701475       0.00523628
H       13.09432285      12.08088695       5.00060566      -0.00459805      -0.00342596      -0.00222789
H       10.31048860      12.54527362       5.03448229      -0.00525680      -0.00811838       0.00123744
O        4.03305863       8.85129742       4.23930620       0.01717669       0.03017372       0.00273930
C        3.52688847       8.01623094       3.19939691       0.01526582       0.01856586       0.01375712
H        4.32350267       7.65852077       2.54591565       0.01121932       0.03060706       0.00211541
H        2.77468501       8.53070012       2.59030500      -0.00280103       0.00306673       0.02303761
H        3.05735757       7.15643239       3.67159892       0.03750104       0.01135883       0.02295907
H        4.35290738       9.68392319       3.86720276      -0.02219168       0.04477030       0.00013512
O        7.20540598       3.10705288       9.23902069      -0.00122797      -0.01105124      -0.00583825
C        6.97769655       1.79463417       9.71502217      -0.00055622      -0.00649422       0.00640804
H        6.04104422       1.38053761       9.32889047      -0.01099643      -0.00278115       0.02791247
H        6.91832593       1.82685841      10.80500345       0.02078608       0.00137963       0.00706226
H        7.78915307       1.11108605       9.43547870      -0.01049015      -0.01339424      -0.00485289
H        6.82012034       3.14568075       8.34823950      -0.00507339      -0.01757048      -0.00433208
O        5.16456259       8.59610281       0.18476001      -0.00914016       0.01244807      -0.01327956
C        4.41620304       9.77729028       0.45741813      -0.01089928       0.01081087      -0.01310258
H        4.83195894      10.63883302      -0.07101733      -0.00828920       0.01261677      -0.00807692
H        4.47379754       9.97258028       1.52790946      -0.01571582       0.00607158      -0.01205784
H        3.36633482       9.67465040       0.17046407      -0.00947815       0.01185832      -0.01859988
H        5.50947942       8.68444909      -0.72695486      -0.01643775       0.00856179      -0.01642139
O        2.39504485       4.12085343      13.07189083       0.02167815       0.00766778      -0.00279742
C        3.35911403       3.18899789      12.60403437       0.00827339      -0.00546357      -0.00444597
H        2.95448422       2.18423684      12.71555343      -0.00341649      -0.00020531      -0.00088953
H        4.28898012       3.25039322      13.17374420       0.01208273      -0.01562405      -0.00914097
H        3.58969818       3.33581053      11.54201967       0.00575422      -0.01074538      -0.00561127
H        2.88744576       4.93832714      13.26955415       0.02949750       0.00345355      -0.00304160
O        7.55368655       8.52758667       8.66349055       0.02022639      -0.01183683       0.00580952
C        7.92729773       7.24331087       8.18769501       0.00000384      -0.01660660       0.00249723
H        7.08977610       6.54444735       8.15277140      -0.01197281      -0.00167924      -0.00303068
H        8.72812964       6.79581455       8.78574205      -0.01000339      -0.03271757       0.00343668
H        8.29333044       7.37361332       7.16947815       0.00548334      -0.01952501       0.00417909
H        7.02609533       8.41765303       9.46472268       0.00823531      -0.00525948      -0.00137861
O        1.05185820       1.38478586      11.17663670      -0.00277905      -0.01424126      -0.00520343
C        0.07573997       2.44953805      11.19652981       0.00435885      -0.00999831       0.01240750
H       -0.57143648       2.31161649      12.08160015       0.00959141      -0.01598829       0.01747978
H       -0.55303069       2.39967863      10.30676007      -0.00352538       0.00342746       0.01765978
H        0.57959258       3.41025250      11.27877853       0.00929336      -0.01316917       0.02090697
H        1.19093599       1.03641003      10.25115129      -0.00674486      -0.00790392      -0.00810027
O        2.82061982       9.30415451       6.70509993      -0.02628362      -0.02662402      -0.01032210
C        1.80083925      10.21931948       6.36914872      -0.00389203       0.00075334       0.00053824
H        0.85003408       9.87821448       6.79108175      -0.00867781       0.02018267       0.00465290
H        1.66883103      10.30932500       5.28542539      -0.00977381       0.00842677       0.00198829
H        2.00886508      11.22114452       6.76488830       0.02065279      -0.00517651       0.00331233
H        3.32620635       9.11746114       5.89717452      -0.00470704       0.00209267      -0.00370423
O        4.11465905       6.14244610       0.52285157       0.00320095       0.01265329       0.00200355
C        5.33065406       5.55210403       0.98342204      -0.00182709       0.00918451       0.00928664
H        5.09349908       4.85783231       1.78829136      -0.01050839       0.00722530       0.00492251
H        6.00570060       6.32024053       1.36875676      -0.00318575       0.00605339       0.01774724
H        5.84233187       5.01557661       0.17799688       0.00371073       0.01056771       0.01187810
H        4.33875303       7.06287244       0.26969974       0.00569315       0.01119815      -0.00146142
O        2.09715836       4.64887848       9.61966222       0.00517708       0.00664419       0.01545107
C        0.91197248       5.35594538       9.29457652       0.00291102      -0.00351946       0.00263655
H        1.10611794       6.21227143       8.63694254       0.00446247       0.00355336       0.01223503
H        0.37980649       5.70314439      10.18847829      -0.01395819      -0.01545607      -0.00320593
H        0.26823862       4.65676020       8.76046497       0.01772724      -0.00542280      -0.01293732
H        2.59166484       5.15447451      10.27061263      -0.02189364      -0.00585040       0.04537404
O        8.73573488      11.40743274       2.22343209       0.01362318       0.00876522      -0.01049027
C        7.41835589      11.10410727       1.78649374       0.00960048       0.00065522       0.01227769
H        7.37986985      10.20386146       1.16521781       0.00753313       0.00886959      -0.00016716
H        7.07741632      11.94891970       1.18400384      -0.00725108       0.00546332       0.02924402
H        6.72447439      10.98705542       2.62522791       0.02350548      -0.01699981       0.02188340
H        9.16598673      10.58591992       2.47218403      -0.00532924       0.02136597       0.06401480
O        2.02540100      12.31306463       0.53808208      -0.04850340       0.02893366      -0.03066623
C        1.61776628      12.33752385       1.87895164      -0.00643259       0.03839290      -0.02020681
H        0.70472080      12.98223149       2.01722984      -0.02954759       0.00226969      -0.01021173
H        2.35428848      12.78042309       2.55529592      -0.00166807       0.08319271      -0.05466902
H        1.33024849      11.34426761       2.25125384       0.04573294       0.03383726       0.00845918
H        4.18781135      11.96846120       2.63797179      -0.01431057      -0.01281287       0.02023345
O        4.77432696       1.58588176       3.80971957      -0.02772576      -0.00235820       0.01353732
C        4.60431463       1.81854640       2.40898500      -0.00363308       0.00116956       0.01093863
H        3.54829887       1.97010894       2.17377050       0.00063038       0.00497208      -0.00407442
H        4.99034415       0.98839339       1.81128398       0.00150429       0.00046618       0.01625539
H        5.14686184       2.72126612       2.13167014       0.00302424       0.00009945       0.02105433
H        5.05960293       0.67203649       3.91394961       0.00397982       0.00795737       0.01732197
O       11.91183455       3.42667297       5.99899896      -0.00919895       0.00506099       0.00428343
C       11.15886881       3.83251871       4.86039735       0.00184488      -0.00132210      -0.00504017
H       11.46449624       4.82842876       4.53025058      -0.00318652       0.00167823      -0.00066248
H       10.08564897       3.83109921       5.07624261      -0.00101086      -0.01176589      -0.01933557
H       11.34286551       3.12320353       4.05413554       0.01918767       0.00126746      -0.00304794
H       11.48816154       3.83887357       6.77031460      -0.01578823       0.00907009      -0.00138107
O        1.49745335       0.13884978       8.90935208       0.00876796      -0.00140876      -0.01329380
C        2.42357919       0.78204399       8.02244893       0.00705099       0.00543968      -0.01020085
H        2.75306629       0.10243549       7.23829800       0.00799315       0.01175374      -0.01544245
H        3.28496219       1.17181855       8.56727690       0.00662947       0.00448872      -0.00914383
H        1.88232474       1.60351182       7.56071711       0.00551888       0.00740130      -0.00498472
H        1.87978016      -0.67612438       9.25439693       0.01639506       0.00368148      -0.01009366
O        0.05197173       6.50585796       3.92158601      -0.00096029      -0.00144710      -0.00914919
C        0.33627094       7.45705663       4.93210804      -0.01274780       0.01070118      -0.01712781
H       -0.54109793       8.05804745       5.20069340      -0.02223745      -0.00306578      -0.01799611
H        1.15006685       8.13261716       4.65342456      -0.02616754       0.02266231      -0.02647272
H        0.65926631       6.90801931       5.81687976       0.00154841       0.02353704      -0.01463057
H       -0.28070588       6.95093205       3.12755043      -0.00527319      -0.01081347      -0.01254931
O        3.03370054       4.42041931       3.44070271      -0.02458818      -0.00107476      -0.00754941
C        2.36079353       4.57509603       4.68775595      -0.00888527      -0.00533530       0.00135022
H        1.28022959       4.48987195       4.58738959      -0.00984573      -0.00864075       0.01476488
H        2.58695443       5.53986740       5.15605989      -0.00647843      -0.00511444      -0.00045034
H        2.72715958       3.78338041       5.34043655       0.00202915      -0.00555225      -0.00518951
H        2.56246797       4.93117119       2.77595032      -0.03702441      -0.00403342      -0.00090111
O       12.65671623       7.37591861       1.29093794       0.00523609      -0.00376423      -0.01077510
C       12.57270931       8.81130435       1.26577270       0.01739263      -0.00259827      -0.00179008
H       13.01163405       9.22004264       0.35874190       0.00757408      -0.00199794      -0.00604621
H       13.04710128       9.25971503       2.14262725       0.03401421      -0.01147079      -0.00641885
H       11.51439989       9.06068725       1.27078809       0.01966156       0.00496489       0.01633599
H       13.54254447       7.12007772       1.01431798       0.00516349      -0.00940988      -0.00639535
O        2.90387268       8.41924224       9.96792835       0.03706712       0.00401951       0.02454403
C        3.79810314       7.63981625       9.17601518       0.01754473       0.00261345       0.00382392
H        3.27301690       7.04650352       8.42395074       0.00034195       0.02041578       0.00245026
H        4.41310806       6.98004218       9.80063637       0.01489930      -0.01364569      -0.01164317
H        4.44094849       8.33741406       8.64359526       0.02113673       0.00069395       0.00523815
H        2.18901101       7.85203020      10.26624646       0.02479926       0.01237449       0.01091412
O       10.68357009       4.91405123       8.03276000       0.01025519       0.00278780       0.01756430
C       11.33853994       6.12063424       7.63718727       0.00039186       0.00297315       0.00350233
H       12.27748725       5.91272428       7.11922955       0.00260973       0.00565320       0.00633340
H       11.52423931       6.78525092       8.48414443      -0.00681858       0.01534334      -0.00453606
H       10.66747410       6.62260422       6.94236068      -0.00376917      -0.01212801      -0.00320436
H       11.10967711       4.55163656       8.81747224       0.03854489      -0.00619357      -0.00181216
O        6.68306896       5.45408880       5.91113002       0.00719792      -0.01734644      -0.01830494
C        5.67355142       5.29896363       4.92545342       0.00324625      -0.00171403      -0.01686332
H        5.63614120       6.14164404       4.23045603       0.00986935       0.00302175      -0.01121438
H        4.69883078       5.23816786       5.40955378       0.00329614       0.00243712      -0.01601100
H        5.82848097       4.38089406       4.34765959      -0.00461540       0.00100946      -0.02285543
H        7.18580272       6.24787046       5.69362019       0.00682088      -0.01444781      -0.00801750
O        2.11126123       0.86736015       4.63183167       0.03279120      -0.02420202      -0.02307940
C        0.99432765       1.65193489       4.20785989       0.01579130      -0.02034181       0.03443541
H        0.63716513       2.32444109       4.99012601       0.05566487      -0.02475184       0.05631867
H        0.17656767       0.97266459       3.97475045       0.00155130      -0.01443152       0.06537202
H        1.23928836       2.25172274       3.32483981      -0.02617715      -0.01742311       0.02430478
H        2.92002826       1.39308037       4.52809717       0.03371242      -0.02880618      -0.05387020
O       11.83967679       1.64740066       8.06035340      -0.00039482       0.03610659       0.03266498
C       10.43763061       1.41273993       8.11456274       0.00423503       0.00412437       0.02023431
H       10.14757308       0.57507571       7.47401097       0.02846887       0.00469288       0.00927979
H        9.86320159       2.29885933       7.82061903      -0.01278310      -0.00511527       0.02643834
H       10.19482698       1.16289169       9.14538344       0.00306443      -0.01291052       0.01550043
H       12.03317796       1.89223924       7.14312266       0.00378489       0.02767689       0.03128422
O        8.36157062       7.25986407       4.44932150       0.02586205       0.00720251       0.01918355
C        8.16419602       8.40536543       3.61992266      -0.00794791      -0.00578436       0.00920707
H        7.13061564       8.48554984       3.27095256      -0.01113281      -0.03656443       0.01242776
H        8.83412999       8.37674220       2.75320990      -0.00981729       0.00519071       0.00791255
H        8.40578354       9.27445124       4.22943320      -0.02931551       0.00544032       0.00190806
H        8.30573566       6.47582440       3.89327698       0.06161322       0.00082123       0.02455711
O        5.38998904       2.86233789       7.17678544      -0.00650609      -0.00671910      -0.00333023
C        4.45155519       3.71009983       7.84112864       0.00579324       0.00690595      -0.00293754
H        3.44076022       3.58191204       7.45012993       0.00460875       0.02358917      -0.00505306
H        4.74062244       4.76181167       7.77352133       0.02327207       0.00204149      -0.00067465
H        4.44817003       3.41935218       8.88938653      -0.00063623       0.00473649      -0.00383720
H        5.55863744       3.22133320       6.30064347      -0.00101702      -0.00854458      -0.00298867
O        6.20844379       9.23437903      11.00571152      -0.01747686      -0.00215864      -0.01732793
C        7.34857241      10.05064613      11.34000456      -0.02704835       0.00698744      -0.00950192
H        7.04644658      10.94940212      11.87716437      -0.03709531       0.00302403      -0.00847556
H        7.91297183      10.31453505      10.44563546      -0.02450711       0.01454714      -0.00529644
H        7.97735005       9.44965005      11.99185504      -0.02507827       0.01068062      -0.00798345
H        5.57551990       9.76216294      10.50587034      -0.02078572      -0.00767493      -0.01946488
O        9.98291049       9.50360474       6.17417723      -0.00967860      -0.01050204      -0.02685189
C       10.52623559       9.72639227       7.47342959      -0.01446137       0.00242417      -0.02719004
H       11.58720000       9.44665129       7.52207819      -0.01872292      -0.01142348      -0.01699877
H        9.97419879       9.18308126       8.24358584      -0.02602395       0.02248318      -0.02157551
H       10.44177950      10.79042622       7.68035141      -0.00050137       0.00702721      -0.04567421
H        9.81740530       8.56244767       6.06357444      -0.02200682      -0.00968975      -0.01615894
O        9.93332494       4.04676641       1.34835621       0.00368110      -0.01319289      -0.00289357
C       10.23959009       5.27015798       1.98200604      -0.00516650      -0.00904414      -0.00878471
H        9.92269789       6.14366792       1.39253833      -0.01700827      -0.01361254      -0.00928906
H       11.30465600       5.37807306       2.20235751      -0.00510877       0.00222695      -0.01414227
H        9.70477189       5.28476777       2.93216769      -0.00041007      -0.01229296      -0.00578937
H       10.36767120       4.04157094       0.48020399      -0.00378929      -0.00947863      -0.00693318
O       10.66821943       4.11165794      11.84229472       0.00070743       0.00119883       0.00099379
C        9.43469698       3.44428885      11.49121524       0.00860813      -0.00708519      -0.01203599
H        9.00429850       3.84319080      10.57318875       0.02086477      -0.01602976      -0.02132881
H        8.71190913       3.52572369      12.30757402      -0.00373344      -0.00294717      -0.02353820
H        9.68144054       2.39591536      11.34152349       0.01546787      -0.00684461       0.00076650
H       10.52188852       5.05172963      11.70645466      -0.00488041      -0.00003275       0.00108990
O       11.12459000       7.84677889      12.02853838      -0.00373721       0.02336413       0.00610757
C       10.09292288       7.32588244      11.21386354       0.00324704       0.00869881       0.00692821
H        9.24231948       6.94393756      11.79304674       0.00805615       0.00010274       0.00824232
H       10.44739888       6.53588667      10.53478376       0.01337025       0.01132876       0.00944196
H        9.72833378       8.13803296      10.58586993      -0.00688209       0.00232893       0.00474253
H       11.35509828       7.23166789      12.73656717       0.01232625       0.02179998      -0.00035630
