199
Lattice="12.446961591440715 0.0 0.0 0.0 12.446961591440715 0.0 0.0 0.0 12.446961591440715" Properties=species:S:1:pos:R:3:forces:R:3 energy=-455988.53125 stress="-0.00011695906869135797 -0.00033892787178047 0.0013658785028383136 -0.00033892787178047 0.0032609200570732355 1.156056623585755e-05 0.0013658785028383136 1.156056623585755e-05 1.644583790039178e-05" pbc="T T T"
Pr      12.99906680      11.96515060       0.04766455       0.00003945       0.01300782       0.00312020
P        6.27292351      12.22829557       7.08475848      -0.00402911       0.00047729      -0.00824778
F        5.97575615      11.34749997       8.39252787      -0.01533807       0.00722134      -0.00744727
F        7.44871908      13.02717278       7.91110984      -0.00364995      -0.00286233      -0.00631368
F        7.43398130      11.11151514       6.64655743      -0.01089534      -0.00522566      -0.00276258
F        5.18746870      11.41626903       6.24005940      -0.00850308       0.00662959      -0.01021487
F        5.20382660      13.33301519       7.50263407      -0.00086829       0.00965890      -0.01388274
F        6.66533203      13.08962961       5.76586543       0.00317276      -0.00291871      -0.00903764
P        4.92836643       8.50531252       0.16502755       0.00138728      -0.00689334       0.00297780
F        4.80858768      10.08944594      -0.00188791      -0.00076957      -0.00701120       0.00144549
F        4.44636771       8.57813377       1.68361078       0.00243941      -0.00584921       0.00340474
F        0.86938285       9.87765491       3.57966749       0.00921536      -0.00697947      -0.01081990
F        5.43828149       8.39058471      -1.38944797      -0.00013322      -0.00766528       0.00240713
F        6.47849537       8.60803046       0.63178377       0.00149694      -0.00474712       0.00144123
F        3.43638458       8.25090739      -0.35400373       0.00067955      -0.00853831       0.00485227
P       -0.20922933      11.77579627       6.83107152       0.00254400       0.00876176      -0.00009938
F        1.33333267      11.90291429       6.89927875       0.00336844       0.00085535       0.00438742
F        1.25146001      12.98533150      10.80630909       0.00257866       0.01329243       0.00427774
F       -1.35439038      12.77953180       7.10119429       0.00153285       0.00941429      -0.01074371
F       -0.68670501      10.36996353       6.41875243       0.00141896       0.00567096       0.00754125
F       -0.21535481      11.38569547       8.37473203      -0.00361856       0.01862810       0.00351257
F       -0.16656545      12.27694403       5.32735286       0.00996394      -0.00078140      -0.00185129
O       10.14715168       1.49896739       9.46202068      -0.01129907      -0.00595575      -0.00879702
H        9.64978780       0.87039200       8.92365260      -0.01298726      -0.01681522      -0.00192709
H        9.49575594       2.13193851       9.82462143      -0.01175337      -0.01148372      -0.00706313
O        9.59953423       7.88062400       3.97960646       0.00873722      -0.01553299       0.00444397
H        8.93529797       8.05016940       4.67400007       0.00854229      -0.01710913       0.00643782
H       10.33953287       7.45904112       4.44512535       0.00915748      -0.01505711       0.00183931
O        0.88318896       1.97366533       8.23204736      -0.00192492       0.00086905      -0.00514767
H        1.11265320       1.46007452       9.02062034       0.00333732       0.00451098      -0.00409710
H        0.41845914       2.74992281       8.58555977      -0.00235684       0.00093679      -0.00551322
O        9.03847725      12.30478292       4.61298714       0.00995122      -0.00747347       0.00100744
H        9.69994929      11.67213637       4.25515870       0.00807225      -0.01013535       0.00853883
H        8.75776970      11.95136290       5.46508025       0.00229330      -0.00415492       0.00361442
O        3.10537722       9.40399318       7.17183999       0.01591069       0.00771151       0.02184775
H        2.54629867       9.76587049       6.47818448       0.01263493       0.02011016       0.03008999
H        2.78411444       8.47136367       7.31338128       0.00548664       0.01134770       0.02169078
O        3.17483214      10.49741370       9.68199253       0.00232473       0.00753483       0.01807370
H        3.16919748      10.20493996       8.73987605       0.01245599       0.00264838       0.01939820
H        3.90320508      10.01268204      10.08849997      -0.00309440       0.00791863       0.02953500
O       10.82409332       6.09618370       6.11505045       0.01130970      -0.00221391       0.01763373
H       11.75957091       5.86935774       5.95707605       0.01349290       0.00247326       0.01768237
H       10.47268345       5.34335801       6.64033718       0.01224570      -0.00638358       0.01167198
O        3.02966971       1.08896741       3.42444429      -0.00260129      -0.00011134       0.00732224
H        2.71350921       1.33687781       4.32707066      -0.00425102       0.00387201       0.00582150
H        3.74770890       0.41726873       3.46997014      -0.00454758      -0.00247590       0.01018512
O        5.11111477       6.76340861       0.29696331       0.00252368      -0.00643038       0.00364025
H        4.28614301       6.13809818       0.19455007       0.00292271      -0.00663938       0.00462966
H        5.77674341       6.38098638       1.00761213       0.00409433      -0.00738568       0.00332116
O        5.00585440      11.96407956       2.58881785      -0.00635379      -0.00518171       0.01396078
H        5.63843486      11.30367785       2.95270309      -0.00513843      -0.00563659       0.01226993
H        4.71054227      11.59382167       1.74898448      -0.00704449      -0.00375390       0.01426578
O        7.37558690       1.97302206       3.11882119      -0.00364655      -0.00115249      -0.00009103
H        6.49971595       2.32072719       2.85930654      -0.00233021       0.00200416       0.00255435
H        7.20130246       1.16304444       3.61472577      -0.00647248      -0.00214837      -0.00047260
O        6.84798694      10.27766464       3.65985862      -0.00240116      -0.00719850       0.00416547
H        7.39545548      10.90376494       4.15005725       0.00000234      -0.00797151       0.00183828
H        6.32618425       9.78842735       4.32144568      -0.00107682      -0.00561561       0.00718706
O        5.19364130       3.26392926       5.48238495      -0.01283640      -0.00178713       0.00548052
H        5.23653027       3.01306953       4.54644196      -0.00796148      -0.00795480       0.00487398
H        5.46982672       2.48526209       5.97992395      -0.02220779       0.00235597       0.01157326
O        8.40475927       3.55721934      10.14998859      -0.00284167      -0.00167313      -0.00047663
H        8.07736452       3.57710321       9.24045167      -0.00720424       0.00090323       0.00012019
H        8.94169155       4.37436161      10.20490184       0.00166912      -0.00532679      -0.00177455
O        1.60899148      10.00051630       1.03834965      -0.00283514       0.00710979      -0.01109660
H        1.52190652       9.10506333       0.65005898      -0.00950532       0.01053667      -0.01760843
H        1.42139426       9.88658743       1.99794180       0.00289891       0.00089967      -0.01044610
O        8.39779220       8.34857434      10.99044494       0.00170174      -0.00110416      -0.00211369
H        7.89242351       8.13522298      10.18658614       0.00114825      -0.00301719      -0.00065329
H        7.73963092       8.28515833      11.69604530       0.00173470      -0.00102107      -0.00061443
O        0.79385647      10.13665129      10.83081776      -0.00781403       0.01687983      -0.00003576
H        1.69824631      10.18036941      10.40661015      -0.00476731       0.01049193       0.00418839
H        0.18485463      10.30853859      10.10181299      -0.00304805       0.02584587       0.00011967
O        3.82518905       2.55624774      -0.29393723       0.00890985      -0.00016115      -0.00687592
H        4.74081960       2.69937634      -0.00171393       0.01444495       0.00465978      -0.02623766
H        3.91852788       1.96448879      -1.09018107      -0.00436027      -0.00196247      -0.00846599
O       11.95556873       3.27276941       4.20344842       0.00192875       0.01533446      -0.00520030
H       11.07119120       3.06166920       4.57994578       0.00245091       0.00881707      -0.00602795
H       12.25336922       4.11053695       4.59578476      -0.00187958       0.01401529      -0.00021443
O        9.43067421       2.52284763       4.97874839       0.00343513      -0.00378352      -0.01035911
H        9.44114733       1.53627001       4.94388958       0.00830600      -0.00421631      -0.00471423
H        8.67402740       2.71383685       4.39577855       0.00066289      -0.01138311      -0.01001751
O        4.12627274       5.64942224       3.61882071       0.00132387       0.00265156      -0.00745021
H        3.69275417       6.52334524       3.53964780       0.00781376       0.00659819      -0.00635596
H        4.47635802       5.66801645       4.53067754      -0.00059449      -0.00114767      -0.00773276
O        9.33833870       1.30102456       1.37268306      -0.01455873       0.01627144      -0.02085735
H        8.51640063       1.45092675       1.88802733      -0.01149379       0.01083993      -0.00640605
H        9.06803579       1.05579673       0.48250642      -0.02323347       0.02374365      -0.01303211
O       10.96115036      12.25965175      11.31797581       0.00172380       0.00460039      -0.00319269
H       10.73226508      12.89874093      10.59107627       0.00041301       0.00176443      -0.00568487
H       10.13936249      11.76527520      11.53404301       0.00192954       0.00450944      -0.00224698
O        1.67034780       5.03714435       2.27568684      -0.02078284       0.02460784      -0.00359082
H        1.11505939       4.25484072       2.38015668      -0.01005971       0.04748371       0.00755911
H        2.28615887       5.02647298       3.02997498       0.00723518       0.02552645      -0.00555506
O        3.20480265       4.46699983       6.89047639      -0.00948790       0.01193568      -0.00613425
H        3.68135306       3.94172336       6.21186337      -0.01484393       0.00681319      -0.00708898
H        3.42790292       3.95265506       7.71258736      -0.01112468       0.01069178      -0.00702243
O        6.91564784      13.10081473      10.79166875       0.00257033      -0.00164003      -0.00460076
H        7.19914618      13.12781619       9.86972411       0.00012523      -0.00821377      -0.00848578
H        7.35465006      12.30927896      11.15487058      -0.00148555      -0.00110144      -0.00372725
O       12.25315394       7.47428503       3.45236032       0.00767031      -0.00700568      -0.01301448
H       12.94439954       6.81985680       3.29495993       0.00584939      -0.00949460      -0.01653383
H       12.71067912       8.34183638       3.55503756       0.00986755      -0.00863754      -0.01194386
O        2.71963870       0.35230805       0.77293209      -0.00141594       0.01297817       0.00691018
H        3.09862951       1.17975744       0.38605030       0.00849169       0.00668915       0.00289005
H        2.79211286       0.49928279       1.73191190      -0.00329430       0.01816465       0.00661082
O        5.22679026       8.72605387       5.42850558       0.00350014      -0.00063233       0.01402234
H        5.32747897       7.80570606       5.74254755       0.00088199      -0.00298344       0.00788220
H        4.71073774       9.17058399       6.12684784       0.00248355      -0.00295738       0.01502193
O       12.12074430       4.39625966       9.47272401       0.00546014      -0.01841975      -0.00038463
H       12.80407061       5.05341228       9.70303489       0.00705343      -0.02053907       0.00441876
H       11.29434268       4.88869755       9.57107979       0.00717840      -0.01530540      -0.00917086
O        3.20233442       5.14175512      12.42193249       0.00361255      -0.00754577       0.00399464
H        2.64635580       5.04491034      13.22451170      -0.00690500       0.00267968      -0.00218770
H        3.46186457       4.21038834      12.19749359      -0.00083083      -0.01057371       0.00903349
O        2.23762144       6.97940844       7.68707748       0.00030434       0.01415071       0.01798194
H        2.65967566       6.15466493       7.39800616      -0.00478476       0.01668237       0.00555266
H        2.00493803       6.83100029       8.62560267       0.00061606      -0.00000026       0.01638377
O        4.25723957      13.25467125      10.27486112      -0.00171481       0.00241980      -0.01025760
H        5.19070605      12.99688667      10.44808970      -0.00184849       0.00370613      -0.00707177
H        3.76213156      12.44894978      10.05811269       0.00044048       0.00081269      -0.00593173
O        4.84775684       3.03227116       2.64190702      -0.00019076      -0.00365515       0.00419185
H        4.10416223       2.42043181       2.83137420      -0.00032201      -0.00286995       0.00386650
H        4.51636864       3.93277320       2.78295093      -0.00057203      -0.00259193       0.00025899
O        2.76125898       7.96857461       4.25496162       0.00321534      -0.00130759       0.00863868
H        2.24512280       8.72916823       3.93262765       0.00434293      -0.00164568       0.00716996
H        3.61017992       8.34549640       4.56125212       0.00197645      -0.00088786       0.01313201
O        5.35067597       6.09135559       6.22131853      -0.00216717      -0.00338274      -0.00913279
H        4.68191117       5.55746814       6.69246085      -0.00402242      -0.00192378      -0.01140611
H        6.06072878       5.47634542       5.96921593       0.00024094      -0.00353470      -0.00514814
O        9.32115484      10.83809568       8.94825239       0.02737428      -0.02101116      -0.01028632
H        9.80863411      10.06637122       8.62743445      -0.01418833       0.02692723      -0.00035919
H        8.52119569      10.85005826       8.41259924      -0.02041089       0.00011306      -0.02532033
O        0.53765826      12.25344380       2.51033986       0.00263359      -0.00009203       0.00428477
H        0.63628684      11.41019249       3.01948738       0.00507642      -0.00429145      -0.00350456
H        1.18174646      12.85372983       2.92225265       0.00147244      -0.00236760       0.01081927
O        8.52907402      11.06437786      -0.61659869       0.00564904      -0.00120872      -0.00530207
H        8.54694708      10.24949338      -1.15741194       0.00260914      -0.00452465      -0.00035759
H        8.40772479      10.76396399       0.29084179       0.01419291       0.00459480      -0.00215894
O        9.63837762       6.04858761       9.88498949       0.00561142      -0.00395727      -0.00233391
H        8.83343480       6.21837703       9.33391116       0.00441192      -0.00456781      -0.00073513
H        9.50675998       6.67353404      10.61759860       0.00659841      -0.00470287      -0.00162406
O        1.02902858       5.34434757       5.36948103      -0.00190413       0.01504934       0.00450094
H        1.39802181       6.23889767       5.35810009       0.00419906       0.01259649      -0.01943523
H        1.63337783       4.84489586       5.95685284       0.00289164       0.02211949       0.00634527
O        1.60985342       6.33571244      10.28526827       0.00449978      -0.03314990       0.00356877
H        2.27177006       5.83492064      10.78761199       0.01250076      -0.02924159      -0.00245312
H        1.24629598       6.91309438      10.98796466       0.00587824      -0.03429405       0.00625651
O        7.36933647       6.85532161       8.75067952      -0.00051299      -0.00822931       0.00205147
H        6.58209312       6.35590022       9.06643346       0.00175359      -0.00951590       0.00365663
H        7.22569244       7.06991845       7.81799823      -0.00192267      -0.01133875       0.00052603
O        9.70922142       3.88573829       7.38547311      -0.00230540      -0.01335418      -0.00361191
H        9.51700127       3.30193919       6.62317085      -0.00219378      -0.00891630      -0.00746495
H       10.32736059       3.38519398       7.93508823      -0.01553724      -0.02508365       0.00080523
O        5.30429547       5.63388191      10.00022587       0.00679840      -0.01474383       0.00785726
H        5.69685636       5.19863711      10.78945276       0.00437192      -0.01186803       0.00967215
H        4.94972672       6.47028942      10.32469285       0.00131648      -0.01374973       0.00589547
O        7.69293974       5.64313070       4.94090683       0.00710705      -0.02244382       0.01027516
H        7.76265724       6.52748300       5.33647365       0.01476577      -0.01924797       0.00917552
H        8.55607886       5.25354684       5.11517861      -0.00428753      -0.03330833       0.01926358
O       10.78127528       3.51963586       1.72264957      -0.00721106       0.01148473      -0.00360209
H       10.18205380       2.73499965       1.61485476      -0.00973577       0.01322076      -0.00757749
H       11.19472831       3.41152266       2.60625121      -0.00905177       0.00862930      -0.00365471
O        4.33355380       3.22382401       8.86599761      -0.00688685       0.01539705      -0.00930020
H        4.54385480       3.87339367       9.54735791       0.00497499       0.00453474      -0.02116051
H        4.26080585       2.34012544       9.26910228      -0.00384548       0.00434518      -0.00848280
O        0.19440992       2.01724457       0.38166380      -0.00295644       0.01160836       0.00313285
H        0.35349771       2.39293824      -0.49334445      -0.00178110       0.00690326       0.00111562
H       -0.49169015       2.58543799       0.80552229      -0.00471795       0.01253749      -0.00121228
O        1.80282194       2.15859273       5.51115292      -0.00283368       0.00458809       0.00066864
H        0.92916391       2.35699696       5.13675619       0.00086161       0.01401288      -0.00200176
H        1.66775382       2.06668787       6.47082210      -0.00637040       0.00533099       0.00070512
O        6.60299919       5.57597730       1.88322415       0.00257242      -0.00651263       0.00050074
H        7.58894950       5.71114456       1.94264720       0.00177135       0.00100308       0.00386094
H        6.25630040       5.58946705       2.78595520      -0.00245877      -0.00821379      -0.00068933
O        9.21004598       5.86877303       1.95680149      -0.00483394       0.01175365       0.00013953
H        9.76008428       5.05420972       1.94546049      -0.00539812       0.01171561      -0.00190725
H        9.34686404       6.33818586       2.80117907      -0.00052073       0.01271575      -0.00015205
O       11.17111768      10.59664800       0.96637641      -0.00223933       0.00974953       0.00467330
H       11.05112421       9.63714120       0.80119214       0.00020842       0.01075941      -0.00107268
H       10.92492848      10.67248426       1.92162419       0.00224023       0.00150005       0.00651382
O        0.89453099       7.39322848       0.27145890      -0.00528231       0.01177457      -0.02348998
H        1.20519079       6.71111925       0.87924811      -0.00207677       0.02431439      -0.00999328
H       -0.06710962       7.48117124       0.46280675      -0.00575131       0.00950237      -0.02473530
O       10.88796995       7.90576657       1.12396655       0.00157088       0.00376599      -0.00493951
H       10.14967566       7.27210974       1.10937239      -0.00177903       0.00722061       0.00001148
H       11.27482448       7.78391160       2.02346203       0.00971536      -0.00226186      -0.00877702
O       10.24254111       8.14686864       7.86122765      -0.00462158       0.00360493      -0.00077717
H       10.14594315       7.59315926       8.65132865      -0.00313819       0.00861514       0.00150956
H       10.64890069       7.52173367       7.21927540      -0.00159493      -0.00195557       0.00267264
O        6.28192828       3.96929207      -0.48877415       0.00425225      -0.01257818       0.00854892
H        7.06733132       3.64633989      -0.96937530       0.00453667      -0.00708397       0.00783490
H        6.56911630       4.28265094       0.38098200       0.00265363      -0.01018863       0.01035502
O       10.62756820      10.37599541       3.57648874       0.00836034      -0.01261827       0.00671165
H       11.55494307      10.22840401       3.84207072       0.01006231      -0.01256755       0.00062117
H       10.19110289       9.49623803       3.66309435       0.00960431      -0.01336037       0.00485460
O        8.02679750       8.17734582       6.28120570       0.00419685      -0.01727831      -0.00422838
H        7.46134305       8.96061844       6.30343666      -0.00827797      -0.01969063      -0.01101831
H        8.76784299       8.30680457       6.92090638      -0.00353265      -0.00731802      -0.00276595
