199
Lattice="13.47648467164801 0.0 0.0 0.0 13.47648467164801 0.0 0.0 0.0 13.47648467164801" Properties=species:S:1:pos:R:3:forces:R:3 energy=-304310.5625 stress="-0.003276922507211566 -5.9544887335505337e-05 0.0005280388868413866 -5.9544887335505337e-05 -0.0025693385396152735 3.7746226553281303e-06 0.0005280388868413866 3.7746226553281303e-06 -0.0029202522709965706" pbc="T T T"
N        9.26834388      11.19177516       0.28015744       0.00482863       0.00122172       0.00755936
C        8.57563171      12.22035275       0.76870087      -0.00105639       0.01558951       0.00596323
C        9.57554452      10.16662059       1.07819584      -0.01278476       0.02595247      -0.00126956
C        8.14466614      12.26388445       2.08111118       0.00523624      -0.00016469      -0.00720946
C        9.19726050      10.15347237       2.41155281      -0.00393382       0.00369970      -0.01398470
C        8.46795436      11.21333584       2.92740776      -0.01198183       0.01613788      -0.00597137
H        9.84885623      11.39537012      -1.01008563      -0.00169331       0.01095279       0.00058132
H        8.37665518      13.02812990       0.07313165       0.00598901       0.01667088      -0.00028683
H       10.12178621       9.34927057       0.61572898      -0.00142294       0.00701845      -0.00539437
H        7.57175037      13.10786561       2.43379595      -0.00384469       0.01382001      -0.00097418
H        9.45206318       9.30949768       3.03799441      -0.01313381       0.00582249      -0.00697893
H        8.11892716      11.19156670       3.95428532      -0.01141553       0.00470538      -0.00719662
P       13.05860685      12.21021440       2.12564133       0.01039368      -0.00314659      -0.00256723
F       13.71208944      13.45176113       1.34664605       0.01344954      -0.00271389       0.00163222
F       10.26944545      11.67010194      -1.90070471      -0.00179511       0.00729516      -0.00334114
F       13.39692739      11.20810533       0.91357309       0.00687857       0.00011685      -0.00605817
F       12.70421078      13.13748462       3.39742151       0.01389147      -0.00711181       0.00080724
F       11.61553785      12.50043598       1.52151933       0.01125665       0.00325277      -0.00081508
F       14.48965619      11.86360319       2.80735296       0.00976295      -0.01004307      -0.00494733
S       11.20502937       3.50666638       2.25244501       0.00912734      -0.00843930      -0.00033695
O       10.87800275       4.91792679       1.88602272       0.00660075      -0.00752473       0.00542864
C       12.59699357       3.62957203       3.38208401       0.00029457      -0.00988876       0.01026523
C       12.06467294       2.78091398       0.86698795       0.01962698       0.00324835       0.00062758
H       12.21407328       4.00873450       4.32841195      -0.00878687      -0.01718230       0.00894053
H       13.29384928       4.34113790       2.94515953       0.00137752      -0.00499339       0.02070372
H       13.06557951       2.65574166       3.51684260       0.00206117      -0.00900580       0.00871627
H       12.39523873       1.78114235       1.14333682       0.02348213       0.00376141      -0.00314561
H       12.90387912       3.42314269       0.59399662       0.01689860       0.00937106       0.00788936
H       11.34752688       2.71761191       0.04606027       0.02292651       0.00362398      -0.00211419
S        9.50383445       1.93518009       5.70751361       0.00255084      -0.00021327       0.00476372
O        8.78822041       1.40700499       6.91136338       0.00385898       0.00464618       0.00710988
C        8.86202330       1.02059271       4.30094502      -0.00629726       0.00250807       0.00755620
C       11.14013751       1.17762266       5.68681780      -0.00158387      -0.00862882       0.00052939
H        7.83786143       1.35373355       4.13965696      -0.00505623       0.00720608       0.01068244
H        8.88774720      -0.03766984       4.55743749      -0.01045398       0.00263885       0.00747269
H        9.47014675       1.21969912       3.41829202      -0.00822432      -0.00009390       0.00579771
H       11.61479335       1.37417773       4.72932135      -0.00341948      -0.01228387      -0.00096053
H       11.03225119       0.10334493       5.83339756      -0.00673175      -0.00762677       0.00215233
H       11.72053469       1.61837331       6.49418709       0.00299039      -0.01089178      -0.00173728
S        4.80782493       3.40553851      12.79493235       0.00574213      -0.00402987      -0.00167572
O        5.39463543       4.46677649      11.92483953       0.00964022      -0.00471866      -0.00003517
C        5.68994041       1.88821642      12.37187877       0.00220916      -0.00598216       0.00026816
C        3.23177453       2.91911394      12.05728028       0.00602806       0.00113785      -0.00444755
H        6.73628663       2.04974920      12.62628738       0.00225405      -0.00834775       0.00073890
H        5.58315020       1.70736309      11.30343029       0.00221879      -0.00819548       0.00075775
H        5.28880951       1.04925704      12.93847491      -0.00001406      -0.00382885       0.00147162
H        2.90221756       1.97921569      12.50274497       0.00351620       0.00108390      -0.00675078
H        3.38579501       2.82103637      10.98126161       0.00714521       0.00300355      -0.00417632
H        2.53320896       3.72079020      12.29128707       0.00760037       0.00210842      -0.00381950
S        3.00597561       1.30300185       5.74113826      -0.01103771       0.00444233       0.01840925
O        2.33926692       0.47019328       6.78852269      -0.01001066       0.00637102       0.02042973
C        2.43545268       0.68637200       4.15485917      -0.00607042      -0.00334731       0.01978511
C        4.72801254       0.78881592       5.53801522      -0.00977772       0.00872606       0.02371778
H        1.37004644       0.89084625       4.07506669      -0.00583196      -0.00450850       0.01552223
H        2.59370150      -0.38947378       4.12269703      -0.00548154      -0.00331828       0.02503302
H        2.99211858       1.19375813       3.36905692      -0.00401734      -0.00700776       0.01905003
H        5.13295334       1.40487576       4.73335004      -0.00971859       0.00643244       0.02216908
H        4.78667903      -0.27164368       5.29265594      -0.00627068       0.00820203       0.02775341
H        5.24446137       0.98945603       6.47420348      -0.01257631       0.01398427       0.02379189
S        7.53266830       5.29265224       3.78706607       0.00668406      -0.00196159       0.00274920
O        6.30311575       6.08150898       3.44643400       0.00225329      -0.00387257       0.01604140
C        8.91090595       6.41069197       3.51857332       0.00186485       0.00095493      -0.00614312
C        7.78131280       4.14706676       2.43041986      -0.00134610       0.00236893      -0.00204462
H        8.75431972       7.22459877       4.22506635       0.00639073      -0.00058091      -0.00380297
H        8.89914167       6.77003378       2.48939861      -0.00726425       0.00316425      -0.00508708
H        9.84660563       5.88982415       3.70480664       0.00375271       0.00169668      -0.01555982
H        8.63925142       3.51783702       2.65382630       0.00345266       0.00601240      -0.01169510
H        7.93724302       4.69109079       1.50062829      -0.01262271       0.00529501      -0.00173023
H        6.87046889       3.54863718       2.39607018       0.00136682      -0.00179692       0.00411565
S       11.14606448       1.31113557      10.77344489      -0.00699371      -0.00291491       0.00227213
O       10.40943574       2.31682757      11.60297197      -0.00217098      -0.00506353       0.00879294
C       12.75771571       1.04303794      11.54117692      -0.00839341      -0.01423313       0.00038689
C       11.75817997       2.21659517       9.33806231      -0.00338206       0.00256413       0.00757486
H       12.59037701       0.50301915      12.47054330      -0.01079827      -0.01816887      -0.00245446
H       13.23421058       2.00639848      11.72872351      -0.00435905      -0.01754326       0.00546377
H       13.36540396       0.43259393      10.87374476      -0.01116356      -0.01307195      -0.00285704
H       12.48145216       1.60345394       8.79848080      -0.00289532       0.00431687       0.00682322
H       12.21508886       3.14486045       9.68249922      -0.00336877       0.00045665       0.01238769
H       10.89195353       2.42396068       8.70950016      -0.00159028       0.00587371       0.00654432
S       11.58945770       6.56337429       6.46567520      -0.00017786       0.00110656      -0.00164509
O       12.65536873       7.24258240       7.27254465      -0.00370622       0.00383264       0.00018966
C        9.99210689       7.14712171       7.04830507      -0.00220460      -0.00111207      -0.00560948
C       11.43450883       4.89792506       7.12063196       0.00087055       0.00149083      -0.00098982
H        9.88755391       8.19291724       6.77049957      -0.00236298      -0.00150177      -0.00645068
H        9.92269084       7.02373652       8.12829900      -0.00472263      -0.00088743      -0.00589466
H        9.21494011       6.55879202       6.56160291      -0.00010850      -0.00202718      -0.00747660
H       10.59204318       4.39955980       6.64002316       0.00155100       0.00071757      -0.00111061
H       11.27155656       4.96472610       8.19647900       0.00022034       0.00190392      -0.00129947
H       12.35833423       4.37055888       6.89098412       0.00119796       0.00216001      -0.00015010
S        3.12411901       7.07275279      -0.12326130       0.00528142       0.00280511      -0.00838006
O        2.58929461       5.68748075       0.08933588       0.00307739       0.00424266      -0.00579277
C        4.88828576       7.04357966       0.20956013       0.00438023      -0.00038059      -0.00629386
C        2.65920200       8.01251500       1.34713122       0.00509021       0.00676256      -0.01171058
H        5.34357104       6.46784837      -0.59408457       0.00418024      -0.00264254      -0.00455174
H        5.06212283       6.54597285       1.16563729       0.00148536       0.00042304      -0.00563383
H        5.24109500       8.07550043       0.22675602       0.00697745      -0.00147398      -0.00708787
H        3.20577988       8.95592757       1.35875370       0.00626723       0.00580120      -0.01382089
H        2.90652152       7.41286916       2.22575917       0.00323023       0.00891469      -0.00998161
H        1.58799492       8.19234819       1.29066144       0.00558303       0.00813487      -0.01327219
S        5.46552540      11.06685187      10.05513760       0.01886725       0.00254178      -0.01427472
O        4.18509752      11.62704341      10.60861681       0.02135408       0.00820005      -0.01448166
C        5.78462613       9.53111590      10.92385189       0.00424223      -0.00254512      -0.01988041
C        6.80826605      12.02279999      10.78114592       0.02260774      -0.01212746      -0.00416136
H        4.95983426       8.87124339      10.66471819       0.00274330       0.00313605      -0.02741772
H        5.82835088       9.71482055      11.99802727      -0.00048942      -0.00609778      -0.01965749
H        6.71869974       9.12551697      10.54233322       0.00446670      -0.00469757      -0.01596088
H        7.75907067      11.58751462      10.47347890       0.02026236      -0.01873543      -0.00179302
H        6.70660491      12.03315438      11.86527688       0.01655613      -0.01752698      -0.00518303
H        6.71825212      13.03343103      10.38700368       0.03352699      -0.00958205       0.00067151
S        4.55248744      11.88701788       0.20479146       0.00164960       0.00943458      -0.00571835
O        5.11807149      10.56601829       0.64314449       0.00397700       0.00672865      -0.01818949
C        4.48223162      12.92320270       1.67925705      -0.01586711      -0.00958794       0.00578833
C        2.78920683      11.62861216       0.03269050       0.00422746       0.00599673      -0.02461939
H        5.49107221      13.26869329       1.88897955      -0.01806799      -0.01788763       0.02538929
H        4.09707485      12.34095365       2.51537999      -0.03176251      -0.01722698      -0.00800028
H        3.84828513      13.78731392       1.48308818      -0.00876009      -0.00445416       0.00674353
H        2.29206040      12.56943300      -0.19658298       0.00281599       0.00708193      -0.01504209
H        2.40441459      11.21914466       0.96374806      -0.00164995      -0.00641289      -0.03311917
H        2.66416803      10.93634497      -0.79593399       0.01355227       0.01755580      -0.03516714
S        2.94586432       9.76382629       7.46117986      -0.02108240      -0.00738049       0.00283015
O        3.70019208       8.89813943       8.42150642      -0.01092601      -0.00654650      -0.00498414
C        3.89838213      11.25267937       7.15445360      -0.01879236      -0.01335311      -0.01420672
C        1.62405056      10.55564372       8.38107988      -0.00356066       0.00179279       0.01892459
H        4.88481040      10.94646426       6.80841692      -0.02615485      -0.01655447      -0.03130135
H        3.94677767      11.85691983       8.05733506       0.00110753      -0.01608848      -0.01447967
H        3.36478629      11.81202426       6.38885123      -0.02845866      -0.00797131      -0.00271354
H        1.21882329      11.36468725       7.77078099      -0.01143472      -0.00135821       0.02058450
H        2.04660140      10.94664627       9.30760563       0.01234967       0.00633757       0.00907518
H        0.87485737       9.79070596       8.56702854      -0.00187356       0.00506380       0.03517096
S       10.31067238       6.95886912      11.80147888       0.00773597       0.00301361       0.01172423
O       10.84311250       7.73983800      12.96829702       0.00126314       0.00265574       0.01569152
C        8.86959408       7.84649480      11.19512927       0.00964004       0.00142115       0.00652409
C        9.39026733       5.56698087      12.46469502       0.00727028       0.00116563       0.00587207
H        9.19403738       8.74712123      10.67586695       0.01002817       0.00214154       0.00855445
H        8.25104268       8.09877475      12.05767378       0.00529261       0.00015634       0.00350383
H        8.33879039       7.19232779      10.50331138       0.01389783       0.00111702       0.00392440
H        8.88429237       5.07346625      11.63633212       0.01581957      -0.00116142       0.00237502
H        8.67859539       5.95505879      13.19414963      -0.00031541      -0.00086740      -0.00109509
H       10.09586967       4.90013379      12.94928377       0.00521383       0.00443994       0.01265473
S       13.20199582       9.56067861       3.31952145       0.00153452      -0.00574380      -0.00595438
O       12.32599881      10.83430826       3.00557565       0.00576314      -0.00379029      -0.00771654
C       12.25305838       8.20544959       2.66410888      -0.00654957      -0.00246617       0.00033552
C       12.92360598       9.40008875       5.06441739       0.00621207       0.00025178      -0.00486195
H       12.18212965       8.32564128       1.58282639      -0.00783910      -0.00647221       0.00028899
H       11.26927152       8.15498361       3.12238681      -0.00573492       0.00523023       0.00263426
H       12.81482981       7.29777325       2.89120321      -0.01142566      -0.00460461       0.00291026
H       13.39484485       8.48809562       5.43005833       0.00386794      -0.00036663      -0.00357853
H       11.85288851       9.38281047       5.26750339       0.00687593       0.00466924      -0.00180082
H       13.39150970      10.26496806       5.53017326       0.01091649      -0.00047591      -0.00913335
S        8.41967446       3.98910997       8.54718705       0.00187677       0.00275481       0.00432742
O        8.63982304       5.24870961       9.33285767       0.00517285       0.00326610       0.00278056
C        7.07042692       4.31750150       7.39719689       0.00006592       0.00167358       0.00699046
C        7.51860523       2.85099942       9.59877727       0.00432926       0.00594306       0.00859779
H        7.38361539       5.14532964       6.76618649      -0.00057635      -0.00087168       0.00366262
H        6.16839791       4.55716118       7.95927917       0.00128248       0.00403157       0.00746447
H        6.91941522       3.42660283       6.78865691      -0.00145243      -0.00007959       0.01041496
H        7.24814605       1.98907984       8.98972926       0.00199607       0.00559855       0.01064824
H        6.64346041       3.37023528       9.99238140       0.00600050       0.00689423       0.01072498
H        8.20054153       2.55679038      10.39621529       0.00608408       0.00673239       0.00709862
S        3.08417210       4.76830523       8.25523905      -0.00799012      -0.00193071      -0.00123167
O        4.14298695       3.87274740       8.81143247      -0.00587428      -0.00359356      -0.00852531
C        2.60407818       5.94159150       9.53203411       0.00755946       0.00170231       0.00059581
C        1.55959874       3.80773013       8.27062213      -0.01089716       0.00406069       0.01511721
H        3.39381043       6.68406931       9.61230802       0.01311736      -0.00411476      -0.00414290
H        2.46142532       5.41131686      10.47308235       0.00956145       0.00331359       0.00166905
H        1.68825050       6.43777052       9.20855731       0.00968361       0.00798106       0.00541181
H        0.74435458       4.45170559       7.94499132      -0.01133652       0.00735299       0.02373459
H        1.38671735       3.43810424       9.28145242      -0.00139360       0.00525378       0.01675600
H        1.69507986       2.96838588       7.59056353      -0.02153467       0.00338933       0.01440659
S       10.39186086      10.45872466       8.11972067      -0.01563323      -0.00279272       0.00137460
O        9.07047429       9.94291783       8.58757227      -0.01447845      -0.00111198       0.00567073
C       11.62225283       9.93446351       9.32880842      -0.01351535       0.00144133       0.00056541
C       10.44164043      12.21135467       8.51139217      -0.01415320      -0.00183344      -0.00453791
H       11.83447644       8.88135764       9.14793144      -0.01213213       0.00143810       0.00300183
H       11.21824802      10.11883214      10.32310864      -0.01239680       0.00372042       0.00041634
H       12.52539153      10.52237534       9.18220000      -0.01506133       0.00235073      -0.00223868
H       11.43427916      12.59313475       8.26693149      -0.01424776      -0.00338268      -0.00696775
H       10.23645552      12.32087996       9.57427010      -0.01255162       0.00219608      -0.00504124
H        9.69105202      12.71917492       7.90712241      -0.01414721      -0.00319584      -0.00542940
S        6.31083765       8.77002370       4.82266888       0.00942475       0.01930070      -0.01097643
O        6.44683685      10.13825388       5.41944590       0.00708281       0.02471709      -0.02405447
C        5.98788130       9.03072546       3.07106762      -0.01148482      -0.00030804      -0.00889683
C        4.65326435       8.15398972       5.17567169       0.01882982       0.01388611       0.01605138
H        6.92811475       9.14619613       2.54357243      -0.01915178       0.01256995      -0.01826371
H        5.41327491       9.95075963       2.98518094      -0.02870417      -0.01217347      -0.01102721
H        5.45514038       8.18149473       2.66396520       0.00154559      -0.01406859       0.00471863
H        4.52002112       7.27371440       4.55548841       0.01830651       0.00343232       0.03204141
H        3.93101731       8.92878669       4.91572145       0.01054478       0.00452425       0.01301863
H        4.57755552       7.89787707       6.23092620       0.03291681       0.03032653       0.02036579
S        4.07433337       4.20475751       2.94683697       0.00344390      -0.01060116      -0.00678957
O        4.73300889       2.85033754       3.00901676       0.00042093      -0.01121891       0.00356796
C        3.83687478       4.69943006       4.66461056      -0.00625552      -0.00132228      -0.01140130
C        2.33515361       3.90813998       2.61370752       0.00513005      -0.00972386      -0.01694395
H        4.80795666       4.98745907       5.05771271      -0.00699680      -0.00695036      -0.00610575
H        3.42744643       3.85156751       5.21239422      -0.01690014       0.00508785      -0.01020677
H        3.15611598       5.54817442       4.71987607       0.00082744       0.00448887      -0.02146047
H        1.85233581       4.88051642       2.52739995       0.00546509      -0.01045446      -0.02467435
H        1.90402714       3.30698748       3.41193388       0.00067518      -0.00705494      -0.01776630
H        2.26608021       3.41033723       1.64956809       0.01168738      -0.01397592      -0.01488823
