195
Lattice="13.593784724628438 0.0 0.0 0.0 13.593784724628438 0.0 0.0 0.0 13.593784724628438" Properties=species:S:1:pos:R:3:forces:R:3 energy=-112172.6640625 stress="-0.001484102220274508 0.0001651456259423867 -0.00013916417810833082 0.0001651456259423867 -0.0013828977243974805 -0.00022860000899527222 -0.00013916417810833082 -0.00022860000899527222 -0.0017889428418129683" pbc="T T T"
N       11.50168159      10.51490214       0.19693852      -0.00229394       0.02579063       0.00284752
C       11.30070946       9.19784156       0.29303924      -0.01140426      -0.02000329       0.00721780
C       10.45055001      11.30230518      -0.06837806      -0.01254538      -0.02146336      -0.00309073
C       10.04518302       8.62432598       0.16383954       0.01834193       0.02378456      -0.00037219
C        9.16605331      10.81010640      -0.20451616       0.02247986       0.03332584      -0.01294267
C        8.95137994       9.44874725      -0.05965378      -0.00195509      -0.02762421      -0.00672882
H       12.65432941      11.43204090       0.76236507      -0.02722400      -0.00050901      -0.03188539
H       12.17324942       8.58624015       0.49347366       0.00923103       0.00711935       0.01629831
H       10.66178447      12.36433486      -0.13730245       0.00395396       0.01430699      -0.00575034
H        9.92393070       7.55483088       0.26019476       0.00816860      -0.00308173       0.01221518
H        8.35194810      11.49720888      -0.37874897       0.00287637      -0.00598250      -0.00938885
H        7.95232873       9.03908041      -0.12178905       0.01827142       0.00266851      -0.00535666
Cl      13.41922487      13.21330098      -0.18776092      -0.00294411       0.01476246      -0.01756459
O       12.18404801      14.06035659      -0.43046424      -0.00608301       0.00474840      -0.04891127
O       13.23035036      12.21187880       1.13778511      -0.02790745       0.01034859      -0.02187252
C        8.90555296      10.05098236       3.34104459      -0.00390738       0.01550311      -0.00359537
C        7.58788458       9.60188983       3.46177476       0.01224667      -0.02265722       0.00429768
C        9.11632235      11.37462733       2.96925302       0.01341820      -0.02310866       0.00879592
C       10.05182900       9.12651218       3.61702171      -0.00176281      -0.00266492       0.00420302
C        6.51908740      10.45342571       3.23056350      -0.01610871       0.02678095      -0.01072852
C        8.04891844      12.23386585       2.73652070      -0.01781810       0.01830867      -0.00466882
C        6.74662063      11.77968150       2.87360724       0.01219605      -0.02289684       0.00316186
H        7.40548834       8.57012389       3.74535195      -0.00183712       0.00565967      -0.00457056
H       10.13090356      11.73881269       2.86208755      -0.00245042       0.00058573       0.00628894
H       11.00731925       9.63523335       3.48620576      -0.00161918      -0.00377968      -0.00805681
H       10.01080598       8.75633324       4.64149007       0.00430042       0.01017486       0.00774550
H       10.03552272       8.25739382       2.95470058      -0.00860452      -0.00771910       0.01330175
H        5.50426329      10.08581347       3.31097544       0.00053069      -0.00170646      -0.00457291
H        8.24084322      13.26232845       2.45188486       0.00058224      -0.00583386       0.00328468
H        5.91101258      12.44206612       2.68916824      -0.00610963       0.00459744      -0.00645562
C        1.64397344       7.81955906       4.72993131      -0.00710372       0.00344668      -0.00741911
C        0.80587733       8.75349274       4.11785065      -0.00412494      -0.02689621      -0.00049609
C        2.90204678       8.24645821       5.16079307      -0.00691099      -0.02624625       0.00639969
C        1.23331244       6.38610579       4.88918573      -0.00422479      -0.00764495      -0.00411066
C        1.21953956      10.06501975       3.91556620       0.00221583       0.01448280      -0.00646473
C        3.32368501       9.55307290       4.95438204      -0.00644212       0.01735465      -0.00300725
C        2.48811354      10.46494824       4.31653592      -0.00498404      -0.02517080       0.00906206
H       -0.18060911       8.44535684       3.78732944       0.00084192      -0.00565091      -0.00860082
H        3.55940727       7.54170095       5.65869718      -0.00966068      -0.00318533       0.00010358
H        1.58308822       5.97722974       5.83832430      -0.01398598      -0.00466747      -0.00120300
H        0.15171968       6.26599821       4.84264478      -0.00423747      -0.00660804      -0.01519044
H        1.67065132       5.77078606       4.09905351       0.00327089      -0.00782727       0.00049561
H        0.55907744      10.77482689       3.43197283       0.00067105      -0.00934897      -0.00241185
H        4.30478202       9.86168983       5.29546875      -0.00796014      -0.00764133       0.00741196
H        2.82292928      11.47768264       4.12836326      -0.00296210       0.00103566       0.00462768
C       10.98809709       8.45493300       8.82650614       0.00171884      -0.00776233       0.00534968
C       11.98169712       8.50689219       7.85370511       0.00910249       0.00285881       0.00303120
C        9.88918220       7.62313267       8.60209578       0.01410367      -0.00554562       0.00743431
C       11.07243812       9.32465526      10.04371272       0.00693958      -0.00642866       0.00563511
C       11.86787135       7.78479485       6.67389162      -0.00001565      -0.00332027       0.00125977
C        9.76610191       6.90327683       7.42175203       0.00654905      -0.01155979       0.00482709
C       10.75221779       6.99153008       6.44665829       0.01452160       0.00018635       0.00448175
H       12.84151754       9.14612283       8.01123587       0.00144472       0.00177375       0.00208860
H        9.10636793       7.55969302       9.34518910       0.01124664      -0.01377858       0.00784791
H       10.73287789       8.80445017      10.93945027       0.00755788      -0.00948733       0.00491783
H       12.09204783       9.66561065      10.21675715       0.00525483      -0.00518744       0.00565924
H       10.44507700      10.21242855       9.91865089       0.00431618      -0.00780033       0.00810589
H       12.64330470       7.86793481       5.92530878       0.00511502       0.00454476       0.00064570
H        8.89913177       6.27298785       7.26614092       0.01493667      -0.01125381       0.00703625
H       10.65085899       6.45086442       5.51408179       0.00886941      -0.00450217       0.00328337
C        2.40164858      12.06217957       8.51844931       0.00781208       0.01173505      -0.01110975
C        2.72845772      12.64572643       9.74220278      -0.01539423       0.00132523       0.00649330
C        3.26836992      12.25367127       7.44178967      -0.01664589       0.00713192       0.00458431
C        1.14612152      11.25798418       8.35055783       0.00131428       0.00566739      -0.00102763
C        3.88036214      13.41041543       9.87936424       0.01335914       0.01775284      -0.00809887
C        4.42374415      13.01346597       7.57523904       0.01115355       0.02485835      -0.00386224
C        4.73254947      13.60199178       8.79668988      -0.01880264       0.00864284       0.01053521
H        2.08386838      12.48579472      10.60019214       0.00153857       0.00545240      -0.00457549
H        3.03331061      11.78482876       6.49520484       0.00084981       0.01717462      -0.00243679
H        1.25718053      10.51976411       7.55421612       0.00305787       0.01046486      -0.00678448
H        0.88194491      10.74123088       9.27402430       0.00698847       0.00057673      -0.00494504
H        0.30005900      11.89894345       8.08644067      -0.00087179       0.00416687       0.00330749
H        4.12206430      13.84060935      10.84212196      -0.00583639       0.00803385       0.00313632
H        5.08769373      13.13488831       6.72669679      -0.00708927       0.02076105       0.00354692
H        5.63721887      14.18712246       8.91100322      -0.00166561       0.01920559       0.00309781
C        9.82950951       3.98919666       1.89485103       0.00569075       0.00014994       0.00466992
C       10.18928863       2.76577884       2.46077027      -0.01067518       0.00105043       0.00739926
C       10.78833442       4.66938839       1.14535493      -0.00916890       0.00288537       0.01066819
C        8.45117651       4.55381719       2.07834494       0.00048056       0.00119697       0.00734935
C       11.46280173       2.24068644       2.28377000       0.01057664      -0.00297260       0.00081182
C       12.06284236       4.14969494       0.96168367       0.01129460      -0.00440402       0.00626316
C       12.40486565       2.93047411       1.53126859      -0.01060456       0.00019754       0.00903320
H        9.45176100       2.21000260       3.02950011       0.00038223       0.00007921       0.00304532
H       10.52188890       5.60792116       0.67443448       0.00295488      -0.00011829       0.00998792
H        8.12258185       5.08515462       1.18362825       0.00067111      -0.00012206       0.00645724
H        7.72308168       3.77021274       2.28793561       0.00065789       0.00291555       0.00948227
H        8.41718644       5.26199338       2.91205925       0.00293331       0.00317958       0.00558874
H       11.71502443       1.27660100       2.70741515      -0.00251802      -0.00128871       0.00456424
H       12.77863612       4.68822776       0.35244318      -0.00024650      -0.00040581       0.01062038
H       13.38757307       2.50682250       1.37010548       0.00277741      -0.00285163       0.00597619
C        6.60442865       2.78833398      11.76514729       0.00276357       0.00253602       0.00455992
C        7.43517978       3.90496295      11.84365553      -0.01041053      -0.00205636       0.00471312
C        7.19517420       1.52444859      11.77788541      -0.01275846      -0.00153874       0.00588198
C        5.11766596       2.94867680      11.64560975      -0.00192988       0.00191647       0.00059674
C        8.81412136       3.76658966      11.93690098       0.00930669      -0.00336103       0.00967819
C        8.57395523       1.38162305      11.88182264       0.00630131       0.00046480       0.01084067
C        9.39069348       2.50321487      11.96849050      -0.01258287      -0.00559400       0.01047919
H        6.98578129       4.89172223      11.84060329       0.00200247      -0.00109223       0.00352421
H        6.56416344       0.64440097      11.70948475      -0.00368274       0.00203480       0.00604274
H        4.58728911       2.15319566      12.17149835      -0.00383520       0.00870460       0.00762896
H        4.78610545       3.90486298      12.05208471       0.00007002       0.00692058      -0.00928745
H        4.79665750       2.91048253      10.60096265      -0.00016657      -0.00751821       0.00057331
H        9.44481685       4.64529226      11.99420835      -0.00146965      -0.00530891       0.00973653
H        9.01860221       0.39284388      11.89328330      -0.00664130      -0.00270498       0.01139885
H       10.46304816       2.39069386      12.06400419      -0.00019637      -0.00562407       0.01451532
C        9.29712191       2.84032834       6.83665608       0.00067592       0.00397492       0.00724334
C       10.42750451       3.60412916       6.55041658      -0.01052590      -0.00757736      -0.01524208
C        9.33619932       1.99337060       7.94402669      -0.01761363       0.01166496       0.00202592
C        8.08877081       2.91385753       5.94838630      -0.00878629       0.00756686       0.00895579
C       11.55475109       3.55138179       7.35936026       0.01528088      -0.01523139      -0.00367080
C       10.47290899       1.90885785       8.73611192       0.01087039       0.00716710       0.01083696
C       11.58143740       2.69760048       8.45500972      -0.00756839      -0.00604870      -0.01542367
H       10.41656059       4.25581219       5.68570830       0.00225478      -0.01512193      -0.01002099
H        8.47441015       1.38023115       8.18006168      -0.00825027       0.02201103       0.01810671
H        7.17855669       2.64005090       6.48240444      -0.00590989       0.00763579       0.01243871
H        7.95689752       3.91407203       5.53370411      -0.00859142       0.00816125       0.01158018
H        8.18086543       2.23238328       5.09781556      -0.01194266       0.00899136       0.00764875
H       12.40349525       4.18934102       7.14355936       0.00723176      -0.02291455      -0.02256756
H       10.48911075       1.23294046       9.58066062      -0.00463278       0.01295947       0.00687280
H       12.45702162       2.64990773       9.08992474       0.00992314      -0.01129505      -0.01065361
C        3.64202122       2.23326533       3.34677787       0.00284748       0.00559391       0.00391380
C        3.69703148       2.98577261       4.51956715       0.00177957      -0.01318957       0.00316602
C        4.07575772       2.82689006       2.15896009      -0.00595457      -0.01361953       0.00149164
C        3.11618128       0.82827762       3.35687411      -0.00194268       0.00016800       0.00449358
C        4.16333859       4.29527175       4.50610768       0.01419992       0.01203405      -0.00028132
C        4.53597879       4.13730534       2.13998535       0.00567614       0.01189087       0.00356986
C        4.57939342       4.87948189       3.31609188       0.00250331      -0.01468235       0.00039992
H        3.37155615       2.53604462       5.45134419       0.00918192       0.00135492       0.00232673
H        4.05583948       2.25012464       1.24016462      -0.00586611       0.00095581       0.00418381
H        3.72280028       0.17038721       2.73297464      -0.00292645      -0.00064753       0.00526974
H        3.09490279       0.42544952       4.36982681      -0.00298260       0.00193572       0.00454906
H        2.09620946       0.78539466       2.96317954      -0.00155568       0.00258495       0.00398804
H        4.19757437       4.86215158       5.42870637       0.01293330      -0.00353526       0.00075810
H        4.87047766       4.57889413       1.20867378      -0.00133545      -0.00435841       0.00093915
H        4.93390446       5.90262108       3.30422473       0.01056070       0.00074117      -0.00053982
C        6.72139945      10.14208909      10.29528781      -0.00914358      -0.00386988      -0.01545907
C        5.40688795       9.99636981       9.84802002      -0.00231352       0.01022992      -0.00810914
C        7.40506512       9.00069928      10.70450009      -0.00062145       0.00802086      -0.01287898
C        7.36928375      11.49320599      10.36101311      -0.00259687      -0.00085947      -0.02300074
C        4.79828926       8.74965773       9.82135087      -0.01551935      -0.00784470      -0.00139400
C        6.79741784       7.75043503      10.68818673      -0.01674882      -0.00702608      -0.00862446
C        5.48810557       7.61842800      10.24649222      -0.00470375       0.01018570       0.00074670
H        4.85657294      10.86979823       9.52169396      -0.00696637      -0.00076647      -0.00919020
H        8.43221370       9.09453964      11.03006658      -0.00698260      -0.00117657      -0.01837327
H        8.44529807      11.41231225      10.51284989      -0.00424711      -0.00228103      -0.01781756
H        7.19087054      12.07209872       9.45534000       0.00253595      -0.00897934      -0.02920079
H        6.95776563      12.07318474      11.19112553      -0.00598271       0.00732123      -0.03050911
H        3.77861922       8.65707990       9.47079880      -0.01041287       0.00387190       0.00489124
H        7.35968425       6.87925159      11.00372794      -0.00900775       0.00186456      -0.00709325
H        5.00896002       6.64712794      10.22312259      -0.01480102       0.00061854       0.00554105
C        3.52165233       9.82382532       0.71806974       0.00262128      -0.00048901      -0.00702652
C        2.65400760      10.91424966       0.75648094       0.00406912      -0.01304416       0.00142095
C        4.82808255      10.03674901       0.27887355       0.00145993      -0.01213869      -0.01515395
C        3.08798312       8.46145946       1.16924892       0.01066722      -0.00626025      -0.00392456
C        3.08504599      12.18525972       0.39290673       0.00210816       0.00158735      -0.00331355
C        5.26167898      11.30299793      -0.08014236      -0.00245743       0.00583580      -0.01987129
C        4.39560312      12.38765344      -0.01885673      -0.00146712      -0.01138869      -0.00929324
H        1.63680878      10.77713542       1.09812702       0.00576906      -0.00559461       0.00409994
H        5.51671766       9.19986423       0.24706074      -0.00077951      -0.00257121      -0.02497324
H        3.70842909       8.10963158       1.99695695       0.00794090       0.00175282       0.00101461
H        2.05739247       8.46980679       1.52102071       0.00844197      -0.01081603      -0.00946461
H        3.17236343       7.73162154       0.36159456       0.01981665      -0.00855595      -0.00031057
H        2.40274363      13.02402994       0.45917573       0.00043701      -0.00806630       0.00203688
H        6.28982315      11.45008659      -0.37736824      -0.00527236      -0.00334661      -0.02822240
H        4.74804784      13.38208989      -0.26742470      -0.00411670      -0.00180528      -0.01294660
C        1.48734357       5.46017081      10.78672394      -0.00147068      -0.00179014       0.00597507
C        1.23536683       6.02593669      12.03730480       0.00233072      -0.01592442      -0.00517169
C        1.48187746       6.29769933       9.67146188       0.00639647      -0.01483367      -0.00482842
C        1.72670633       3.98639850      10.64252861      -0.00446641      -0.00700557      -0.00039641
C        0.97076430       7.38369955      12.16575126       0.00140326       0.00563902       0.00372416
C        1.23141876       7.65804837       9.79808058       0.00415796       0.00552089       0.00811476
C        0.97338619       8.20790582      11.04777551       0.00944420      -0.01423493      -0.00692297
H        1.25761952       5.39441035      12.91878270      -0.00349462      -0.00489637      -0.00067782
H        1.67880899       5.87762243       8.69129275       0.00488880      -0.00473757       0.00349289
H        2.36180407       3.76748078       9.78405421      -0.00533459      -0.00890583       0.00123219
H        2.19798686       3.57005529      11.53250923      -0.00677606      -0.00780479       0.00102940
H        0.78370829       3.45349739      10.49661575      -0.00653014      -0.00323385       0.00028947
H        0.78365357       7.80612356      13.14451651       0.00493157      -0.00607325      -0.00263980
H        1.24470763       8.28700883       8.91718332       0.00989259      -0.00596248      -0.00012290
H        0.78868276       9.26900815      11.16046141       0.00940206      -0.00102699       0.00026084
C       10.77614356      12.43041461       5.64967007      -0.00124913       0.00269602       0.01244619
C       10.55599672      11.20387908       6.27366049       0.01888746       0.01567635       0.00094713
C        9.70544364      13.31242226       5.53573406       0.01396994       0.01409391       0.00173022
C       12.11588984      12.76093369       5.06000833       0.00484586       0.01460058       0.01120006
C        9.29841311      10.85287420       6.74638450      -0.00873148      -0.00005088       0.01202390
C        8.44388857      12.96628462       6.00147118      -0.01055574      -0.00662978       0.01438008
C        8.23191569      11.73304133       6.60293037       0.01555374       0.01163860      -0.00167753
H       11.37558606      10.50354866       6.36966161       0.00536683       0.01116282       0.01002777
H        9.86793833      14.27479439       5.06366050      -0.00009807       0.00491843       0.01197740
H       12.30560728      13.83434309       5.07612049       0.00535829       0.01280650       0.02416366
H       12.92313589      12.25504428       5.59104170       0.00298733       0.00650106       0.00646688
H       12.17220985      12.43894441       4.01467706       0.00451170       0.02568364       0.00790322
H        9.14857947       9.88543099       7.21073431       0.00870994       0.00815064       0.00499659
H        7.61826316      13.65735831       5.88189026       0.00278531       0.00333604       0.00691088
H        7.24413123      11.45287122       6.94925977      -0.00020801      -0.00071631       0.00457924
