185
Lattice="13.378083344204404 0.0 0.0 0.0 13.378083344204404 0.0 0.0 0.0 13.378083344204404" Properties=species:S:1:pos:R:3:forces:R:3 energy=-158555.59375 stress="-0.001843474805355072 -0.0001035112545650918 0.00019969087588833645 -0.0001035112545650918 -0.0010220028925687075 0.0004245569434715435 0.00019969087588833645 0.0004245569434715435 -0.0018164400244131684" pbc="T T T"
Rb      14.27161373      13.62834081       0.44061683       0.01005185      -0.00814241      -0.00608605
Cl      11.56497332      12.48755138       1.90981357      -0.02045324       0.03065777      -0.01624393
O       12.52874843      11.69663171       1.06417066      -0.00495994       0.01463693      -0.00153303
O       10.32788298      12.66265378       1.13449965       0.01505446       0.02530867       0.00496089
O       12.19004930      13.84471033       2.09457326       0.00922734       0.02959180      -0.02306884
C        4.54254289       3.51099273       4.20201907      -0.00576103       0.00165215      -0.00173064
C        3.28764173       4.37637618       4.20613035      -0.00505286       0.00266856      -0.00192853
C        4.28694410       2.00898216       4.19586241      -0.00641719       0.00178140      -0.00312718
C        3.61547455       5.86638799       4.16610670      -0.00525951       0.00270087      -0.00337723
C        5.57955410       1.20260213       4.20706204      -0.00696266       0.00116405      -0.00324279
C        2.39402190       6.77284312       4.18235544      -0.00556204       0.00229526      -0.00169937
H        5.15403691       3.76789600       3.32845658      -0.00493328       0.00165822      -0.00112221
H        5.15229327       3.76322275       5.07704016      -0.00608909       0.00026365      -0.00129637
H        2.69044574       4.15362216       5.09857400      -0.00452402       0.00393623      -0.00129330
H        2.65785645       4.11818632       3.34633864      -0.00576060       0.00217897      -0.00099921
H        3.67184172       1.73778486       5.06045863      -0.00705287       0.00117348      -0.00387961
H        3.69564025       1.74672586       3.30946854      -0.00611858       0.00265521      -0.00364757
H        4.25813244       6.11086617       5.01749895      -0.00379579       0.00363781      -0.00507000
H        4.21395697       6.07238542       3.27258196      -0.00731114       0.00236253      -0.00484666
H        6.20969231       1.45507071       3.35103624      -0.00647113       0.00170054      -0.00244451
H        5.38889706       0.12983527       4.17352552      -0.00714702       0.00126931      -0.00442984
H        6.16045344       1.40579293       5.11013257      -0.00722883      -0.00003388      -0.00286965
H        1.70967648       6.53413362       3.36543130      -0.00818181       0.00035155       0.00129329
H        1.84195017       6.67037131       5.11818967      -0.00243247       0.00441517       0.00035119
H        2.67729901       7.82235122       4.08297141      -0.00635192       0.00211775      -0.00492582
C        9.30761173      12.31651865      11.48787345       0.00469173       0.00114423      -0.00779548
C        8.19204239      11.29778639      11.67770180       0.00705429       0.00000572      -0.00073665
C       10.70478569      11.71239240      11.50389358       0.00590356       0.00374645      -0.00730536
C        6.81249771      11.93873924      11.61082760       0.00603944      -0.00167948       0.00547725
C       11.78849801      12.77878186      11.40860659       0.00336224       0.00550652      -0.01511899
C        5.67005477      10.93966081      11.70536600       0.00764805      -0.00293705       0.01040107
H        9.14890213      12.85385970      10.54405247       0.00200925      -0.00395156      -0.01012743
H        9.24362388      13.06110739      12.28704946       0.00488015       0.00457436      -0.01158988
H        8.31637770      10.80249956      12.64594202       0.01233676       0.00190227      -0.00090304
H        8.26702527      10.51388044      10.91594963       0.00426594      -0.00102738       0.00000322
H       10.84288799      11.15581413      12.43266020       0.00880585       0.00911611      -0.00503322
H       10.80876416      10.99872879      10.67906265       0.00580768      -0.00030448      -0.00381956
H        6.72852302      12.67654221      12.41417158       0.00871293      -0.00225691       0.00607425
H        6.72801601      12.49988748      10.67361937       0.00096495      -0.00134882       0.00632441
H       11.72273565      13.33683598      10.47114539      -0.00140716       0.00245044      -0.01626632
H       12.78503634      12.33287296      11.46788147       0.00459638       0.00719112      -0.01882627
H       11.66927008      13.48343359      12.23617340       0.00613157       0.00794798      -0.01721945
H        5.67509097      10.25841395      10.85465728       0.00252322      -0.00085025       0.00876811
H        5.75456478      10.33364129      12.60807021       0.01405488      -0.00504398       0.00835942
H        4.69463448      11.43251210      11.72354050       0.00749971      -0.00382525       0.01817173
C       11.64291993       7.13283983       7.14106704      -0.00055987      -0.00201006      -0.00388019
C       10.35838611       7.92311688       7.35768774      -0.00054210      -0.00169419      -0.00539410
C       11.39775972       5.83998559       6.37374589      -0.00050014      -0.00404224      -0.00041063
C       10.53685337       9.23987810       8.10276615      -0.00140473      -0.00003883      -0.00828445
C       12.64913564       5.00772607       6.14187833      -0.00028944      -0.00362003      -0.00027491
C        9.22472063       9.99892659       8.23988992      -0.00216863      -0.00139076      -0.00895710
H       12.36822593       7.74920891       6.59735200      -0.00091566      -0.00336258      -0.00574280
H       12.10299306       6.90109993       8.10941447      -0.00018746       0.00045890      -0.00367194
H        9.64228540       7.29906335       7.90613460      -0.00018848      -0.00062658      -0.00380021
H        9.89455080       8.12714031       6.38464129      -0.00084123      -0.00402246      -0.00550774
H       10.66031245       5.24591575       6.92060225       0.00086550      -0.00345424       0.00210793
H       10.93556226       6.08478909       5.41142412      -0.00209203      -0.00700948      -0.00017485
H       10.96423890       9.04527845       9.09313905      -0.00064236       0.00277878      -0.00823814
H       11.26816151       9.86041992       7.57369136      -0.00259262      -0.00025226      -0.01001145
H       13.39106993       5.56691109       5.57054689      -0.00211610      -0.00510328      -0.00396414
H       12.42643995       4.09444874       5.58722293      -0.00073664      -0.00566602       0.00348716
H       13.11099154       4.71939668       7.08752445       0.00209491       0.00003415      -0.00051966
H        8.78134362      10.17745806       7.25956436      -0.00364679      -0.00499689      -0.00878835
H        8.50209224       9.42769005       8.82535104      -0.00062232      -0.00068693      -0.00640765
H        9.35715090      10.96602155       8.72759877      -0.00302396       0.00004365      -0.01193036
C        4.26951176       6.57737957       9.44118057       0.00176747       0.00327450      -0.00205275
C        5.63875736       6.24011876      10.01780926       0.00171077       0.00326192      -0.00202933
C        3.27976303       5.42454512       9.56180707       0.00151901       0.00356919      -0.00192150
C        6.65250822       7.37100584       9.90611960       0.00256988       0.00243378      -0.00222377
C        1.90151408       5.74657739       9.00216132       0.00136864       0.00399113      -0.00098485
C        8.00202264       7.01348427      10.51282277       0.00220159       0.00127517      -0.00224322
H        3.86410490       7.46003210       9.95075491       0.00178985       0.00328109      -0.00229008
H        4.37460570       6.85751055       8.38582938       0.00163357       0.00306556      -0.00200737
H        6.03544056       5.35229528       9.51105658       0.00139735       0.00302970      -0.00160544
H        5.52780926       5.96108550      11.07240204       0.00161866       0.00377229      -0.00203103
H        3.69089295       4.54999479       9.04494175       0.00083673       0.00360671      -0.00229563
H        3.19296774       5.13992252      10.61618887       0.00186753       0.00328749      -0.00211716
H        6.77340286       7.64232966       8.85172034       0.00304677       0.00217646      -0.00215140
H        6.25244913       8.25768662      10.40654159       0.00366704       0.00292444      -0.00257902
H        1.46106796       6.60662574       9.51105180       0.00139298       0.00327016      -0.00002369
H        1.21561617       4.90527277       9.11642113       0.00162427       0.00384623      -0.00148866
H        1.95440222       5.98915582       7.93836080       0.00067704       0.00502810      -0.00067802
H        7.89587682       6.75430978      11.56670319       0.00202751       0.00140011      -0.00230986
H        8.44325358       6.15196798      10.00658768       0.00153289       0.00103027      -0.00215679
H        8.71242977       7.83898124      10.44707559       0.00284782       0.00060165      -0.00219323
C        0.83212235      10.69536045       6.21587822      -0.00576486      -0.00158316       0.00783066
C        0.85890988      10.93158579       7.71995529      -0.00381075      -0.00192750       0.00794658
C        0.92933933      11.97331986       5.39453104      -0.01172432      -0.00089461       0.00805794
C        0.95991804       9.64315080       8.52601412       0.00374031      -0.00109041       0.00817885
C        0.92335542      11.70584853       3.89826723      -0.01712375       0.00055751       0.00759304
C        0.96553548       9.88288195      10.02812335       0.00336203      -0.00070308       0.00814515
H        1.65794507      10.02914966       5.94031865      -0.00431830       0.00139116       0.00593598
H       -0.08444995      10.15831895       5.94403024      -0.00452870      -0.00432259       0.00949295
H       -0.04082434      11.48246700       8.02033991      -0.00526822      -0.00589880       0.01010864
H        1.70734767      11.57986830       7.96849246      -0.00600830       0.00159207       0.00617567
H        0.09879294      12.63912957       5.64968316      -0.01158383      -0.00290629       0.01193863
H        1.84293652      12.50759635       5.67522664      -0.01159573       0.00076871       0.00445060
H        0.12495395       8.98927186       8.26229382       0.00731176      -0.00604627       0.00903173
H        1.86800173       9.10522368       8.23064142       0.00642017       0.00398278       0.00804307
H        1.74284397      11.04743675       3.60906845      -0.01653250       0.00388214       0.00311873
H        1.01448561      12.63729124       3.33588977      -0.02264931       0.00176756       0.00823719
H       -0.00245513      11.22513462       3.58272579      -0.01710367      -0.00174689       0.01096445
H        1.82382053      10.49240912      10.32421145      -0.00320201       0.00919940       0.00659474
H        0.05973683      10.40866481      10.33651899      -0.00183260      -0.01104458       0.00995887
H        1.01207419       8.94868630      10.59022468       0.01530671       0.00019534       0.00835208
C        5.24232916      10.91907895       5.70607674       0.00035673      -0.00345897       0.00015378
C        4.35278907      10.85358975       4.47408039      -0.00320375      -0.00468835       0.00284534
C        4.45040155      11.21555458       6.97104931       0.00557613       0.00184613       0.00205372
C        5.10341187      10.60599279       3.17643855      -0.00728518      -0.00694665       0.00095513
C        5.31311080      11.34807255       8.21404434       0.01077530       0.00290164      -0.00170848
C        4.20197196      10.58807967       1.95152112      -0.01103055      -0.00427889       0.00374079
H        5.78576640       9.97391333       5.82495549      -0.00154216      -0.00433165       0.00104823
H        6.00537339      11.69198003       5.56400313       0.00179112      -0.00574514      -0.00413519
H        3.79251696      11.79250928       4.39251349      -0.00278512      -0.00438222       0.00303580
H        3.60057477      10.06932210       4.61484292      -0.00350752      -0.00375679       0.00612117
H        3.87970942      12.13844402       6.82153208       0.00737345       0.00282320       0.00167312
H        3.70875253      10.42458111       7.12031164       0.00408760       0.00417650       0.00699484
H        5.86822130      11.37722140       3.05286605      -0.00564899      -0.00913501      -0.00137184
H        5.64578112       9.65822990       3.24568110      -0.00970100      -0.00845230      -0.00063706
H        5.87465252      10.43042073       8.40521167       0.00876889       0.00191173      -0.00115171
H        4.70687446      11.55385666       9.09744959       0.01519455       0.00757019       0.00007144
H        6.03628717      12.16012333       8.10744653       0.01291978       0.00023085      -0.00719682
H        3.43147741       9.81833515       2.03126393      -0.01361877      -0.00132753       0.00664315
H        3.69455977      11.55024891       1.82846167      -0.00785673      -0.00230095       0.00546794
H        4.77074591      10.39825936       1.04237059      -0.01515907      -0.00627816       0.00185452
C        5.78895563       2.87334473      12.06450179      -0.00338399      -0.00449532       0.00564602
C        4.94068729       1.62830303      11.84701156      -0.00220366      -0.00460684       0.00110385
C        7.20260900       2.54854234      12.53606237      -0.00392759      -0.00473380       0.00700873
C        3.49863767       1.90656571      11.44221349      -0.00309508      -0.00544941       0.00385544
C        8.07694189       3.78506372      12.67993154      -0.00239162      -0.00552192       0.00440271
C        2.74289733       0.62295550      11.11304891       0.00139371      -0.00410131      -0.01002678
H        5.83900962       3.44216737      11.12924881      -0.00213828      -0.00262453       0.00700444
H        5.30335357       3.53384856      12.79389395      -0.00438397      -0.00616413       0.00628990
H        4.94649322       1.01997143      12.76092417      -0.00033553      -0.00908276      -0.00199661
H        5.41029492       1.00857441      11.07653975      -0.00204371      -0.00012052      -0.00215626
H        7.15311238       2.01458965      13.49082511      -0.00484380      -0.00203121       0.00821850
H        7.66555176       1.85309189      11.82898740      -0.00419480      -0.00682734       0.00920537
H        2.99687660       2.46173567      12.24667344      -0.00526646      -0.01593178       0.00965458
H        3.48128382       2.56963119      10.57286187      -0.00550237       0.00338811       0.01081362
H        8.16739729       4.30980534      11.72740465       0.00022554      -0.00894040       0.00281441
H        9.08213135       3.53088150      13.01877659      -0.00360413      -0.00611514       0.00691728
H        7.64946864       4.48666371      13.40023179      -0.00244121      -0.00250834       0.00126579
H        3.15613560       0.15468112      10.21739131       0.00357643       0.00780700      -0.01515628
H        2.85447224      -0.11635193      11.91368763       0.00367564      -0.01227744      -0.01798089
H        1.67811818       0.79062607      10.92647355       0.00089416      -0.00651799      -0.00846136
C        8.17238813       4.01669617       7.55004553      -0.00205168      -0.00887021       0.00268102
C        7.94457529       4.49865751       6.12617863      -0.00179541      -0.00612861       0.00358158
C        9.06513662       2.78871765       7.65543404      -0.00266217      -0.00931558       0.00182274
C        7.13638756       5.78748670       6.05961936       0.00056472      -0.00446439       0.00632709
C        9.30707994       2.37272086       9.09854554       0.00091577      -0.00812303       0.00155234
C        7.07501808       6.36294906       4.65571534       0.00472338       0.00160837       0.00866148
H        8.61789534       4.83314536       8.13196129      -0.00181071      -0.00987211       0.00373226
H        7.20660905       3.80540583       8.02554941      -0.00205818      -0.00903828       0.00231847
H        7.44507087       3.71707336       5.54276085      -0.00324456      -0.00390017       0.00207579
H        8.91153873       4.66086075       5.63983978      -0.00166413      -0.00692879       0.00387049
H        8.61169159       1.96174950       7.10010788      -0.00450385      -0.00981367       0.00438501
H       10.02157895       2.99540638       7.16292185      -0.00375992      -0.01078880      -0.00080788
H        6.12670904       5.60713340       6.44596769      -0.00068471      -0.00400735       0.00304431
H        7.58766631       6.52610414       6.73050635       0.00007538      -0.00797540       0.01030169
H        9.77447347       3.18156414       9.66560620       0.00265008      -0.00805451      -0.00014799
H        9.95416143       1.49807392       9.16949745       0.00085342      -0.00801326       0.00040719
H        8.36527585       2.13111066       9.59610514       0.00244763      -0.00779743       0.00422872
H        8.07538973       6.61904274       4.30507032       0.00575411       0.00189672       0.01212293
H        6.65320363       5.64590388       3.94906021       0.00537885       0.00526565       0.00464772
H        6.46650816       7.26767434       4.61277707       0.00606805       0.00256395       0.01126337
C        8.47389003      10.04238983       2.31409954       0.00558054       0.00455204      -0.00062567
C        8.64066612      10.46101489       3.77423656       0.00627245       0.00507900      -0.00095791
C        8.22435451       8.54884243       2.15273747       0.01152713       0.00384891      -0.00173691
C        8.65504486      11.97209489       3.98281477      -0.00140914       0.00483629      -0.00016260
C        8.02809843       8.10449130       0.71141535       0.01185997       0.00526755      -0.00230071
C        8.95463322      12.39227317       5.41372464       0.00510268       0.00584546      -0.00232649
H        7.64182356      10.59813611       1.86744668       0.00204530       0.00102335       0.00130903
H        9.35964857      10.33720911       1.74546966       0.00294581       0.00913876      -0.00174889
H        9.57234163      10.03203614       4.16464092       0.00951254       0.01028463      -0.00318344
H        7.83475745      10.02034924       4.37397455       0.01005504       0.00031074       0.00097412
H        9.05855717       7.99508345       2.59643701       0.01456720       0.00672305      -0.00383070
H        7.34127539       8.27078899       2.73340946       0.01339507      -0.00051042      -0.00125189
H        9.38184183      12.42303639       3.31037626      -0.00873893       0.00951719      -0.00532863
H        7.68966138      12.38656015       3.67547258      -0.00631502      -0.00120659       0.00689626
H        7.17377947       8.61109915       0.25523187       0.01032950       0.00381607      -0.00076581
H        7.84432330       7.02983579       0.65033101       0.01471856       0.00498715      -0.00457145
H        8.90269365       8.32988363       0.09885539       0.01059943       0.00892929      -0.00258896
H        8.18046467      12.05639700       6.10663357       0.01189753       0.00067242       0.00244118
H        9.90259031      11.97057551       5.75712802       0.00996524       0.01182663      -0.00862710
H        9.02713937      13.47766127       5.49808907      -0.00108972       0.00629419      -0.00155153
