197
Lattice="13.973180501418991 0.0 0.0 0.0 13.973180501418991 0.0 0.0 0.0 13.973180501418991" Properties=species:S:1:pos:R:3:forces:R:3 energy=-188060.015625 stress="-0.0029000635258853436 -0.00044401844206731766 1.4041213489690563e-05 -0.00044401844206731766 -0.0012932753888890147 -0.0004610040778061375 1.4041213489690563e-05 -0.0004610040778061375 -0.0045719631016254425" pbc="T T T"
Rb      14.49718455      15.23127599      -0.74771298       0.02324607      -0.01100576       0.00420982
O       14.45779588      13.31932244       0.78794064      -0.02793729       0.00466108       0.00368464
O       14.66133985      13.13606407       3.01978511       0.01469541       0.01920038       0.01019239
C       14.28970223      12.74404858       1.91187158      -0.00659359      -0.00999683      -0.03639600
H       13.73447503      11.77257490       1.85958028       0.02852309      -0.01057750      -0.00193301
C        9.74611573      10.21857012       0.00884893       0.00193199       0.00426305       0.00604730
C       11.11143538      10.46330370      -0.08089323       0.01683249       0.00097297       0.00760733
C        8.83688165      11.25139591      -0.18190380       0.01784465      -0.00068172       0.00404539
C       11.57255873      11.74585236      -0.36139498       0.00399499       0.00259901       0.00799177
C        9.29413400      12.53169631      -0.46550254       0.00454263       0.00067744       0.00223441
C       10.65955506      12.77647538      -0.55412366       0.01962976      -0.00202439       0.00557153
H        9.39292387       9.22236676       0.24915989       0.00999835       0.00144275      -0.00003976
H       11.81470736       9.65474993       0.08120188       0.00793669       0.00187432       0.00307735
H        7.77402066      11.06154252      -0.10949069       0.00903800       0.00048434      -0.00475971
H       12.63567080      11.94349573      -0.41599018       0.01186806      -0.00020796       0.00425165
H        8.58282034      13.33645808      -0.60695656       0.01361173      -0.00311124      -0.00744244
H       11.00774239      13.78347985      -0.76017782       0.01159015      -0.00230948      -0.00127775
C        3.71083775      10.75348983       3.77666523      -0.00172522       0.01304053       0.00412399
C        4.74560158       9.83058435       3.74735528      -0.00082247       0.00295835       0.00483328
C        2.39336857      10.32313484       3.66502558      -0.00230706       0.00159739       0.00113722
C        4.47621210       8.47684808       3.59023137       0.00139406       0.01483660       0.00626482
C        2.13011968       8.96721656       3.53047856      -0.00084957       0.01357498       0.00423767
C        3.16689316       8.04341623       3.48254371      -0.00045475       0.00298826       0.00559078
H        3.91929125      11.81096743       3.88621669      -0.00307088       0.00654961       0.00455924
H        5.77104351      10.16489449       3.81333520      -0.00086485       0.01038287       0.00839610
H        1.59088516      11.05144251       3.68208596      -0.00186566       0.00780323       0.00002581
H        5.28618844       7.76440772       3.50246114       0.00073887       0.00866505       0.00704108
H        1.10958318       8.62669791       3.44537319      -0.00122289       0.00591599       0.00456848
H        2.96049388       6.99130751       3.34215296       0.00099739       0.00907949       0.00876976
C       11.58182509       3.67150668       4.13342810       0.00715402      -0.00050610      -0.00727217
C       12.81166348       3.19966343       3.69122626       0.00127392      -0.01134185       0.00381535
C       10.72885166       2.82949746       4.83776796       0.00258182      -0.01635516       0.00586455
C       13.19728905       1.89045691       3.96142773       0.01340877       0.00564026      -0.00210853
C       11.10802158       1.51839901       5.09846623       0.01514454       0.00171332       0.00472523
C       12.34208905       1.04881897       4.66209360       0.00994224      -0.00806555       0.01465142
H       11.30170926       4.70218292       3.94893057      -0.00278366      -0.01121674      -0.01027049
H       13.46975402       3.86425205       3.14668282       0.00338392      -0.00251209      -0.00256709
H        9.77316277       3.19711928       5.19046416       0.00323614      -0.01146391      -0.00575330
H       14.15363429       1.49923408       3.64072715       0.00525518      -0.00066367      -0.01222418
H       10.43345449       0.85524170       5.62587262       0.01125962      -0.00828680       0.00924784
H       12.64452432       0.02557685       4.84493881       0.01818353       0.00275065       0.01867609
C        8.42556477      11.11871940       3.17838203       0.01347926       0.02104826      -0.00907979
C        9.80351741      11.29990189       3.18869553      -0.01314506       0.00456754      -0.00258612
C        7.58327574      12.21273791       3.02047792      -0.00972532      -0.00138850      -0.00766817
C       10.34179934      12.56635018       3.01574681       0.00741912       0.03063213       0.00091537
C        8.12176328      13.48489908       2.85762655       0.00970984       0.02234431      -0.00615005
C        9.49992620      13.65944557       2.84433538      -0.01839823       0.00687042       0.00393286
H        8.01696272      10.12035319       3.28095774       0.00308685       0.00900841      -0.00486428
H       10.46117056      10.44920533       3.30217538       0.00319256       0.02112621       0.00183496
H        6.50816366      12.07929915       3.01107115       0.00367658       0.00779647      -0.00798503
H       11.41635228      12.69985745       3.00359496      -0.00840479       0.02180752       0.01146671
H        7.46784378      14.33962071       2.73344754      -0.00694436       0.00885484       0.00083923
H        9.92276892      14.64576463       2.70632115      -0.00595740       0.02167457       0.01397411
C        7.85383725       4.88137981       3.50422679      -0.00403904      -0.00921387       0.00535268
C        8.37299933       4.08836342       2.48592511      -0.00668743      -0.01422376       0.00319532
C        6.48040625       5.07424054       3.60213347      -0.00345765      -0.00616141       0.00226241
C        7.51744959       3.48601767       1.57111930      -0.00840056      -0.01033195       0.00659205
C        5.62701726       4.48979989       2.67282460      -0.00533538      -0.00297794       0.00633472
C        6.14485168       3.69275886       1.65839792      -0.00785837      -0.00803148       0.00444290
H        8.52105902       5.34693361       4.22103099      -0.00237187      -0.01267989       0.00370378
H        9.44165255       3.93591475       2.41228533      -0.00704996      -0.01600917       0.00433058
H        6.07162583       5.67573047       4.40506407      -0.00146338      -0.00339729       0.00379767
H        7.92652726       2.85735552       0.78891733      -0.01066930      -0.01517149       0.00679763
H        4.56057928       4.65613305       2.74505392      -0.00500214      -0.00084775       0.00484558
H        5.47768753       3.23422958       0.93772671      -0.00939486      -0.00622502       0.00693747
C       12.71708964       5.72327667       6.96387606       0.00026627      -0.00417128       0.00847017
C       12.85616632       7.01197329       6.46395501       0.00365733      -0.00878199       0.00729456
C       11.45362213       5.16685817       7.10317873      -0.00219360      -0.00531153       0.00402756
C       11.73159899       7.74326506       6.10814731       0.00685489      -0.00543131      -0.00234764
C       10.32970389       5.88816159       6.72521424       0.00102720      -0.00150153      -0.00422721
C       10.47059035       7.17546984       6.22053255       0.00438537      -0.00624931      -0.00556752
H       13.58673397       5.13879160       7.22735405      -0.00204276      -0.00545088       0.01750160
H       13.83849846       7.45637737       6.35644389       0.00516455      -0.00789630       0.01279354
H       11.34868678       4.15857448       7.47773470      -0.00571013      -0.00185183       0.00696041
H       11.83448085       8.76078038       5.75097287       0.01011684      -0.00831297      -0.00385372
H        9.34470558       5.44912071       6.83146384      -0.00065437      -0.00078766      -0.00448951
H        9.59594689       7.74182780       5.93108859       0.00649627      -0.00310282      -0.00943284
C        3.83786332       6.95419087       0.02021279      -0.00205469      -0.00365108       0.00479604
C        5.18210960       7.21531348       0.27023513      -0.00183655       0.00120658       0.00724536
C        2.90940396       7.98785466       0.06272816      -0.00148964       0.00121561      -0.00020013
C        5.59193130       8.51037078       0.55768601      -0.00254078      -0.00282641       0.00166211
C        3.32070880       9.28302803       0.36109873      -0.00224537      -0.00230436      -0.00598251
C        4.66234953       9.54205241       0.60303227      -0.00169270       0.00234725      -0.00354034
H        3.51937531       5.94489807      -0.21062087      -0.00178817      -0.00192414       0.00854618
H        5.90203214       6.40529273       0.24928028      -0.00273351      -0.00206633       0.01222898
H        1.86300991       7.78484102      -0.13214400      -0.00140582      -0.00184227      -0.00175347
H        6.63897478       8.71864855       0.74826632      -0.00230837       0.00060137       0.00299156
H        2.59654456      10.08675634       0.41145622      -0.00140242       0.00080001      -0.01151626
H        4.98438041      10.55040641       0.82838463      -0.00174976       0.00056502      -0.00866343
C        7.42130456       9.86028906      11.04747955      -0.00003128       0.01389603      -0.00012026
C        6.28469552       9.11261094      11.31549847      -0.00382025       0.01100505      -0.00120525
C        7.33991739      11.24578458      10.96347672      -0.00451751       0.01133175       0.00019566
C        5.06774675       9.74702163      11.52256725      -0.00099382       0.01131164      -0.00577674
C        6.12704898      11.88267410      11.19620617      -0.00212856       0.01158339      -0.00513439
C        4.99175749      11.13237346      11.48417254      -0.00569636       0.00857727      -0.00704071
H        8.37150370       9.36323173      10.90531823      -0.00150923       0.01396614       0.00307890
H        6.34515330       8.03159724      11.36708172       0.00002258       0.01283528       0.00049156
H        8.22518254      11.82524785      10.73709117      -0.00256763       0.01289573       0.00237096
H        4.18298883       9.16089605      11.72823002      -0.00272587       0.00951362      -0.00547064
H        6.06654332      12.96340424      11.14902675      -0.00506192       0.01012523      -0.00502586
H        4.04362669      11.62328014      11.66407556      -0.00433026       0.00884895      -0.01100352
C        4.47228924       8.77440044       8.40582491       0.00383034       0.00901023      -0.00254381
C        3.35471319       8.29308236       7.74277284       0.00067514       0.00629868      -0.00254623
C        4.78859200      10.12445171       8.35091214      -0.00211352       0.01147084      -0.00897396
C        2.54113126       9.16675094       7.03197066       0.00050710      -0.00270642       0.00186699
C        3.96337333      11.00090607       7.66101857      -0.00459255       0.00059623      -0.00491581
C        2.83446608      10.52452979       7.00547166      -0.00885358       0.00042045      -0.00454849
H        5.12063569       8.09719829       8.94434744       0.00448342       0.01552962      -0.00517348
H        3.13983916       7.23325575       7.75900001       0.00536853       0.00513713       0.00483642
H        5.68009012      10.48673477       8.84174760       0.00012940       0.01074754      -0.00565539
H        1.69103802       8.79037251       6.47750010      -0.00293542      -0.00248498       0.00463613
H        4.20938913      12.05493505       7.62778189      -0.01450687       0.00186613      -0.01011600
H        2.19983256      11.20584401       6.45346495      -0.01030398      -0.00371002      -0.00176131
C       11.18179530       6.21146789      11.84027433      -0.00608328      -0.00401038      -0.00535157
C       11.04858388       4.83024634      11.92028800      -0.01048826      -0.00135853      -0.00590593
C       10.11639159       7.02791790      12.20201107      -0.00956682      -0.00195199       0.00161608
C        9.85304970       4.26634962      12.35476686      -0.00362506      -0.00380757      -0.00362413
C        8.91526153       6.46805764      12.62116083      -0.00220480      -0.00444731       0.00443588
C        8.78253250       5.08610183      12.69693391      -0.00679618      -0.00147375       0.00397281
H       12.11743651       6.65254323      11.51871487      -0.01063365      -0.00255069      -0.00842940
H       11.88360654       4.19282580      11.64940469      -0.01030374      -0.00212675      -0.01323292
H       10.22666233       8.10419503      12.18730602      -0.00809266      -0.00376564      -0.00217953
H        9.74893525       3.18955499      12.41387761      -0.00700239      -0.00217055      -0.00558337
H        8.08843801       7.11141404      12.89865895      -0.00396340      -0.00335421       0.00943975
H        7.85033284       4.65045737      13.03270141      -0.00252809      -0.00339922       0.00495375
C       11.34848494       6.05274510       1.20867613       0.00087249      -0.01694391      -0.00038626
C       10.62019304       6.87183783       2.06160962      -0.00485730      -0.00968334      -0.00544152
C       12.73294630       6.15359111       1.15651469       0.00230656      -0.00596760       0.00615653
C       11.28047807       7.77908752       2.87621970      -0.01427945      -0.00308460      -0.01601799
C       13.39536974       7.06846930       1.96867683      -0.00742252       0.00178049      -0.00415318
C       12.66444925       7.87775422       2.83148117      -0.01314675       0.00995775      -0.01019812
H       10.83137284       5.34086634       0.58219933       0.00740496      -0.02128536       0.00480226
H        9.54116628       6.79158150       2.09816306      -0.00571878      -0.01913850      -0.00990994
H       13.29533686       5.52103173       0.47923109       0.00693116      -0.01136654       0.01166661
H       10.71819189       8.39313588       3.56487377      -0.01970706       0.00394997      -0.02254195
H       14.47532466       7.14805362       1.92581816      -0.00728689       0.01132497      -0.00061756
H       13.16300230       8.58438264       3.48155866      -0.01886438       0.01794761      -0.01908192
C        9.27755195       3.30586121       9.09548037      -0.01396257      -0.01272780      -0.00383556
C        9.25846794       2.31035214       8.12744063      -0.01339312      -0.01029740      -0.00600533
C        8.17336510       4.13198155       9.26967988      -0.01339279      -0.01072276      -0.00524583
C        8.13582329       2.14416972       7.32422933      -0.01060900      -0.00663179      -0.01015045
C        7.04818858       3.96117617       8.47153311      -0.01101030      -0.00730263      -0.00899184
C        7.03140872       2.97143701       7.49431032      -0.01001053      -0.00456697      -0.01149411
H       10.16046200       3.45691280       9.70192703      -0.01589269      -0.01575163      -0.00048530
H       10.12709689       1.67955637       7.98428693      -0.01386803      -0.01178354      -0.00467470
H        8.20199386       4.91039488      10.02210415      -0.01396187      -0.01259744      -0.00337724
H        8.12360695       1.37685117       6.56005583      -0.01015831      -0.00523093      -0.01160219
H        6.18257516       4.59785182       8.60911966      -0.01065478      -0.00597726      -0.01003148
H        6.16011211       2.85152196       6.86324735      -0.00782099      -0.00113443      -0.01480496
C        3.44617497       3.08583798      11.87831495      -0.00488283       0.00041792      -0.00929643
C        2.35526352       3.82417415      11.42460194      -0.00059491      -0.00163201      -0.00864824
C        4.72871610       3.62290496      11.79465008      -0.00143400      -0.00104577      -0.00514922
C        2.54832955       5.09490798      10.88866885      -0.00271138       0.00154441      -0.00647516
C        4.91781303       4.89175345      11.26088042      -0.00400144       0.00162111      -0.00438296
C        3.82881182       5.62829043      10.80735849       0.00074978       0.00010027      -0.00226879
H        3.32268683       2.08327606      12.27860036      -0.00236999      -0.00123383      -0.01083891
H        1.34788230       3.41914610      11.45282718      -0.00244604      -0.00009960      -0.01264435
H        5.58068187       3.04725436      12.13418596      -0.00436602      -0.00012405      -0.00514388
H        1.70017030       5.66858183      10.53625501      -0.00006025       0.00028786      -0.00594597
H        5.91693502       5.30617698      11.20117079      -0.00173929       0.00011472      -0.00230403
H        3.97319769       6.62160887      10.40107439      -0.00130491       0.00226766      -0.00067298
C        2.82771677       3.24205853       4.70866451       0.00641280      -0.01648803      -0.00355861
C        2.14284351       4.31320017       4.14536722       0.00025314      -0.02006819       0.00320898
C        3.06489555       3.21249947       6.07830664       0.01269456      -0.01011233      -0.00206451
C        1.68924680       5.35028792       4.94963897       0.00178146      -0.02178220      -0.00049295
C        2.63057503       4.26110218       6.88166473       0.01728417      -0.01170494      -0.00318836
C        1.94627202       5.32761986       6.31339007       0.01095862      -0.01700586       0.00024037
H        3.16789996       2.42636684       4.08310724       0.00548044      -0.01611923      -0.00253865
H        1.95319176       4.33752245       3.07792266      -0.00933664      -0.02756229       0.00432456
H        3.58133561       2.37069491       6.52115890       0.01465471      -0.00782859      -0.00722355
H        1.12614375       6.16946454       4.52000984      -0.00375129      -0.02581885       0.00354864
H        2.81221636       4.24191305       7.95005258       0.02401753      -0.00537335      -0.00209133
H        1.59494804       6.13852685       6.93667846       0.01042347      -0.01976556      -0.00112605
C       11.65007933       9.46512281       9.96900047       0.00954182       0.01360526       0.01408082
C       12.67147957       9.18970093       9.07198691       0.01100720       0.01640551       0.01023535
C       11.29879784      10.77951709      10.25269028       0.00621754       0.01479383       0.00802290
C       13.33902862      10.23235943       8.44243454       0.00407186       0.01514885       0.00914726
C       11.97078876      11.82277695       9.62638425      -0.00103040       0.01349731       0.00617452
C       12.98889410      11.54834920       8.71842326       0.00144769       0.01618148       0.00422617
H       11.11325448       8.64653596      10.42631145       0.01695288       0.01456378       0.01947575
H       12.92732524       8.16275239       8.84759040       0.01212929       0.01573615       0.01240430
H       10.51081006      10.98891652      10.96527315       0.00465406       0.01248105       0.00926880
H       14.13515060      10.02054018       7.74308293       0.00647315       0.01729434       0.00878420
H       11.69944287      12.84820646       9.84707824      -0.00378812       0.01407158       0.00165438
H       13.51265512      12.35789734       8.22574987      -0.00320680       0.01594566       0.00284687
C        6.87985684       8.36493478       6.16475356      -0.00190358      -0.00454436       0.00744131
C        7.40314270       9.65103313       6.14970252       0.00741101       0.00234140       0.00864942
C        7.21798153       7.48722345       7.18699531       0.00742977       0.00247787       0.01078449
C        8.29064546      10.05264973       7.13839633       0.00384988      -0.00540818      -0.00011323
C        8.08279819       7.89765421       8.19263583       0.00454468      -0.00552724       0.00198451
C        8.62958473       9.17446040       8.15661656       0.01229930       0.00184393       0.00395867
H        6.17415693       8.06031948       5.40615279       0.00128852      -0.00085454       0.01121818
H        7.11267568      10.35424822       5.38397330       0.00552926      -0.00388765       0.00347443
H        6.80132551       6.48735368       7.19916762       0.00468531      -0.00188512       0.00865339
H        8.70964415      11.05097660       7.12017290       0.01184269      -0.00302839      -0.00153861
H        8.35424229       7.21586766       8.99010630       0.01280542      -0.00209074       0.00239916
H        9.33473606       9.48763184       8.91094575       0.01238091      -0.00385422      -0.00221974
