199
Lattice="12.58116910739519 0.0 0.0 0.0 12.58116910739519 0.0 0.0 0.0 12.58116910739519" Properties=species:S:1:pos:R:3:forces:R:3 energy=-230525.1875 stress="0.0011722622439265251 0.0002251686601084657 4.3656633351929486e-05 0.0002251686601084657 0.0014404187677428126 -0.00015965184866217896 4.3656633351929486e-05 -0.00015965184866217896 0.0012548519298434258" pbc="T T T"
Rb      12.55054708      10.08880209       2.13573357       0.00579148      -0.01032449      -0.01562095
S       12.09056280      13.22820498      -1.79692691      -0.00125879      -0.00529370      -0.00304711
N       11.97811403      12.84795290       0.98849028      -0.02785986      -0.00602001       0.03355658
C       12.02541456      13.00106232      -0.17698297      -0.01678557      -0.01032330       0.03494839
O        1.32432976       8.97517196       6.20454941      -0.00950299       0.00305316       0.00930544
H        2.04342363       9.41128732       6.72195013      -0.00373481      -0.00466503       0.00615004
H        0.96831145       9.67194750       5.60834786      -0.00100417       0.00075714       0.00206933
O        3.04163284      10.28658041       7.82240522       0.00619378       0.00543877       0.00658293
H        3.08804442      11.16100699       7.40568084      -0.01218839       0.00204004      -0.00095810
H        2.51365309      10.36266775       8.63657602       0.01155268       0.00519013       0.01083993
O       11.66583849       5.46444370       5.80628240      -0.00664222      -0.00838904       0.00316677
H       11.03763912       5.86433887       6.43381526      -0.00753082      -0.01326365       0.00519037
H       11.50715119       5.89234051       4.93354864      -0.01714240      -0.01626481       0.00162163
O        3.60678808       1.00619643       3.34237725       0.00033908       0.00078242      -0.02148296
H        2.65182715       1.09436024       3.13772011      -0.00017637       0.00780190      -0.01628195
H        3.99485983       0.37159734       2.70461859      -0.00479391      -0.00090997      -0.02370565
O        6.18140203       7.70086515       0.80775395      -0.01689264      -0.00927390       0.00981213
H        5.51585900       8.19549624       1.32569177      -0.01784120      -0.01089036       0.01203266
H        6.19627236       6.81469294       1.21466156      -0.01852191      -0.01226013       0.00223993
O        4.82233662      11.73613939       1.62152029       0.01108647       0.00048704      -0.00146945
H        4.41660402      11.70084687       0.72580226       0.00569451       0.00357216       0.00112369
H        5.79637751      11.78004470       1.47632162       0.01183651      -0.00151765      -0.00286466
O        6.95618527       2.15515665       3.43235473       0.01270287       0.00009865       0.02813450
H        7.81673465       2.57870858       3.56188450       0.00659071       0.01272040       0.02445505
H        6.43038181       2.42403438       4.21370377       0.00852513       0.00432664       0.02391841
O        6.95503239       9.98088621       4.60967407       0.00099494      -0.00675288      -0.00910505
H        7.21424349      10.92956947       4.51150561       0.00810464      -0.00886295      -0.01756938
H        7.25260794       9.60008287       3.74582225      -0.01643937      -0.01381505      -0.01073100
O        5.59938168       2.71686634       5.76606413       0.00363408      -0.00623818       0.01789584
H        6.01622880       2.06042317       6.36612134       0.01808471      -0.00550350       0.00835079
H        4.63281331       2.56463829       5.82747467       0.00631760      -0.02064807       0.02225638
O        9.25864601       5.08316489      11.95239169       0.00960729       0.00642373      -0.01283943
H        8.39204659       4.62897291      11.92897223       0.01357397      -0.00401177      -0.00305185
H        9.76370713       4.75992395      11.17795333       0.01932694      -0.01028952      -0.00010783
O        2.22089346       9.28022893       0.50271202       0.00668466      -0.02773048      -0.00493854
H        2.94320035       9.20014328       1.16148473      -0.00377444      -0.01699530       0.00779627
H        2.54803887       9.97029737      -0.09718119       0.01145162      -0.02648875      -0.00191480
O        7.28335988       9.29047291      11.40695963      -0.00645871      -0.00177869       0.01577866
H        7.00668528       8.83545164      12.22068849      -0.00211544      -0.00929075       0.01281844
H        8.04278332       8.75134727      11.09184662       0.00112766       0.01297523       0.01066793
O        1.05296376      10.13635850       9.90854558       0.00012935       0.00410852      -0.00331450
H        1.14562730      10.65426488      10.71567360       0.02038009       0.01027396      -0.00939047
H        0.54642568      10.71044878       9.29109962       0.00291835       0.00467478      -0.00610673
O       11.70735335       2.65427899       5.27786451      -0.01048464       0.00612631      -0.00619653
H       12.11684042       2.39619749       4.43591522       0.00981042       0.01743342       0.00121399
H       11.84771225       3.61011835       5.40247900      -0.00727443       0.00452141       0.01260853
O        8.95167599       3.37053427       5.22306688       0.00523473       0.01059557      -0.01209629
H        8.81166111       3.41743470       6.19524643       0.00390132       0.01285392      -0.01195040
H        9.83841208       2.98734766       5.09836668       0.00880383       0.01610245      -0.00870812
O        4.66274837       6.46633652       4.49495013      -0.01319143       0.01617771      -0.01720983
H        5.11983560       6.27955571       3.65527287      -0.00549009       0.00283305      -0.01103565
H        4.61307496       7.43397844       4.58440643       0.00151620       0.01777774      -0.02046280
O        9.94242150       2.20002657       2.55695904       0.00587339       0.00971299      -0.02222405
H       10.31186037       1.42019610       2.12233875       0.02847700       0.00812465       0.00155065
H       10.36951491       2.93264685       2.10360690       0.02070072       0.00732255      -0.01081086
O       10.22334378      10.58102214      10.36511601      -0.01648106       0.00813153       0.01420778
H       10.01846499      10.28773028       9.45571743       0.00920326       0.00158100       0.01100658
H       10.93066745      11.24667656      10.27900758      -0.02092461       0.01695911       0.03059795
O        0.42353206       4.30581128       2.33431528       0.01761499       0.00745657       0.00602266
H        0.76203065       4.78504831       1.56433934       0.01120296       0.00251237       0.00026152
H        1.10350408       4.48545709       3.03691275       0.02500772       0.00642616       0.00113190
O        3.45145082       4.85961913       7.71108179      -0.00991388       0.01030119      -0.00750321
H        2.77851123       5.46572256       7.33257073      -0.00597490       0.01479045      -0.00513855
H        4.33490252       5.08982383       7.32787659      -0.01165040      -0.00150462      -0.01405254
O        6.31041919      12.38249128       9.53086493       0.00346117       0.01872334       0.01015936
H        7.03320371      12.41754340      10.18331935       0.00066543       0.01762369       0.01315403
H        5.87267473      11.51661192       9.65334982       0.00270949       0.01809317       0.00856715
O        2.61727755       1.57212883      -1.21716997       0.01498143      -0.01510507       0.00003839
H        2.55098608       2.31301164      -0.59542878       0.01903825      -0.02297952       0.01027972
H        1.70254915       1.40930617      -1.51320132       0.01314672      -0.01074085       0.00392057
O        4.44549110       9.28957678       5.08629642       0.01198708      -0.00949273       0.00036073
H        5.36956604       9.60426161       4.89383001       0.01659758      -0.01907428       0.00551426
H        4.51199676       9.00137788       6.01615219      -0.00020889       0.00204843       0.00463043
O       10.57021732       4.49725494       9.59591646       0.02132404      -0.00848190      -0.01485279
H       11.52837699       4.46035254       9.73865630       0.03136753       0.01245634      -0.02951129
H       10.45481130       5.26790306       9.01230019      -0.00498810      -0.02030998      -0.00764101
O        2.93740008       4.21554660      12.73362082       0.00227806      -0.00771572       0.00744289
H        2.61194046       5.06150313      13.11230819       0.00696863      -0.00516039       0.00667099
H        3.28085254       4.48244856      11.86042494      -0.00910505      -0.01154980       0.00192533
O        1.27405499       6.31293293       7.08025813      -0.00191443       0.00646305       0.00115491
H        0.53462907       5.93078044       6.54544757      -0.00170853       0.00522585       0.00422209
H        1.24868649       7.26412767       6.86743506       0.00762798       0.00482272      -0.00608026
O        3.51423702      11.49752557      11.80102754      -0.02613071      -0.00914982       0.01424831
H        3.29315262      12.41409082      11.55100153      -0.03335531      -0.01001135       0.01570045
H        4.05494385      11.08816383      11.09432178      -0.01829940      -0.00079311       0.01442799
O        4.15151180       3.54764588       2.50391368      -0.00089881      -0.01171425      -0.00879505
H        4.13631175       2.59638518       2.75988955      -0.00587156      -0.01291700      -0.01051624
H        3.77016633       3.62596136       1.60252399       0.00593467      -0.00603855      -0.01217797
O       -0.72190114       7.88459342       9.85390421       0.00837791       0.00640553       0.01561364
H       -0.16208551       8.67715517       9.95394472       0.02151003      -0.00276881       0.01489369
H       -0.12297155       7.11291128       9.95758679      -0.00212964      -0.00245825       0.00914076
O        4.32593502       9.19465568       2.25637101       0.00596375       0.00573954       0.00092244
H        4.55517944      10.15304748       2.13528404       0.01077309       0.00491359      -0.00307116
H        4.12062080       9.08306987       3.19593763       0.00298874       0.01026166       0.00073366
O        5.89424216       5.25696774       6.63254099      -0.01617679       0.00664778      -0.01139946
H        5.60420332       5.74522437       5.83235751      -0.02332287      -0.00298921      -0.01490041
H        5.95108114       4.31420190       6.34259109      -0.00270085       0.00444551       0.00055648
O        7.02296161      13.61078320       7.34461997       0.01513177       0.00463843       0.01818149
H        6.69988963      13.08956160       8.13311655       0.02181812      -0.00009605       0.02104856
H        7.52116800      13.00125984       6.79419576       0.01900428       0.01360428       0.01415806
O        0.51194646      11.15409775       4.77591741      -0.00310642      -0.00714970      -0.00991051
H        1.26350058      11.70571891       5.06653568      -0.00532548      -0.00599450      -0.00670189
H       -0.30620773      11.60781013       5.03411187      -0.00651661      -0.00836489      -0.01712716
O        7.54027098      11.58063893       1.26807115       0.00280304       0.00413708       0.01161601
H        7.83344662      10.65840035       1.39642584      -0.00247497       0.00062043      -0.00011889
H        7.90571448      11.87491058       0.40740413       0.00275906       0.01208632       0.01371876
O        8.17547635       9.16287234       2.40139330      -0.00319396      -0.00733921      -0.01803780
H        8.04772736       8.34120479       1.90448120      -0.01166575      -0.01302934      -0.00426841
H        9.08045280       9.11180140       2.78446178      -0.00024915      -0.00616793      -0.02290623
O        9.27963776       7.59267708      10.79332473      -0.01301758      -0.00816194      -0.03503701
H        9.19962015       6.72328480      11.23467321      -0.00015862      -0.00687515      -0.02836092
H       10.23223100       7.74100284      10.64168590      -0.01285722       0.00954244      -0.01492494
O        2.33835399       4.55710163       4.16997972       0.01476139      -0.00549227      -0.00895151
H        2.64190830       5.43506466       4.44244218       0.02085672      -0.00717849      -0.01068573
H        3.06917965       4.22482488       3.58406876       0.00829909      -0.00851762      -0.01750186
O        0.71857574       5.58509245       9.72319576       0.00818726       0.00913943      -0.02001079
H        0.96479775       5.79732860       8.79780644      -0.00572641       0.02708627      -0.02035139
H        1.56294484       5.49910436      10.19048022       0.01669061       0.00699283      -0.03294097
O        5.56626884       8.65498034       7.58576323       0.01123920       0.03254440       0.00338775
H        6.01982219       9.50352923       7.58043216       0.04442830       0.01399327      -0.01329989
H        6.27456245       7.99293411       7.74889055      -0.01508373       0.00837504       0.01630544
O        8.40177199       3.42814090       7.90016025       0.01945424       0.01305441      -0.01186880
H        9.13146669       3.44610085       8.53391637       0.01690726      -0.00502256      -0.00954824
H        7.98258911       2.55151079       7.95700534       0.00678062       0.01647151      -0.02121268
O        6.11603332       6.45800565      10.60590195      -0.01483329       0.01433784       0.00873661
H        6.37787701       5.67242548      11.14306436      -0.00911424       0.00757508      -0.00740832
H        6.11263665       7.18415681      11.24662320       0.02066277       0.00927750       0.01579227
O        0.63744739       0.94054517       6.79145250      -0.02251338       0.00162561       0.01500970
H        1.51305974       1.36002021       6.71735479      -0.02287963      -0.00174844      -0.00511199
H        0.03330432       1.56950309       6.34628136      -0.02830181      -0.01147637       0.00524810
O        8.26970111       5.54001677       3.89723971      -0.00714828       0.00688070      -0.00519042
H        8.58697102       4.75180220       4.42179041      -0.00066876       0.00794933      -0.00701593
H        8.23546457       6.29556180       4.51162782       0.00819324       0.01043970      -0.00802057
O        5.09017873       2.88260194      10.42570297       0.01387304      -0.00074714       0.01988577
H        4.52921599       3.66237965      10.26863428       0.00219539      -0.01587056      -0.00285288
H        4.46058108       2.16089048      10.55466273       0.03014985      -0.01542287       0.00971767
O        0.86668245       1.62551309       3.00209454       0.00364903       0.00222687      -0.00879734
H        0.35831788       1.05388655       2.39018953      -0.01210824       0.00407955       0.00319717
H        0.78188781       2.50528954       2.58999694       0.00422634       0.00306108      -0.01001627
O        2.85593152       2.62275232       6.22480275      -0.00640371      -0.00819676      -0.00139432
H        3.02080535       3.30351384       6.91109926      -0.01428587      -0.00661135      -0.00132427
H        2.51556550       3.15953935       5.48612840       0.00573047      -0.00846555      -0.00694771
O        6.13907362       5.33003885       2.25282584      -0.01407204      -0.01401797       0.01453893
H        5.54977380       4.56208244       2.42593960      -0.00603097      -0.02343537       0.00640823
H        6.90457116       5.26267917       2.86728884      -0.01737558      -0.00514044       0.02042256
O       11.62856208       6.42721262       3.29302550       0.00116459      -0.00304862       0.01036729
H       10.87866929       6.68373211       2.71696031       0.00725846      -0.00337349       0.00064381
H       11.99356346       5.61493282       2.87859922       0.01139492       0.00088412       0.01117612
O       10.62378858       9.33102492       0.31594208      -0.01625237      -0.00983361      -0.00510978
H       10.44544638       9.65356714      -0.58209211      -0.01901688      -0.00333187      -0.00228471
H       10.10523497       8.52396715       0.39134310      -0.02629656      -0.00284092      -0.00121686
O        1.90201156       6.53253527       1.19081569       0.00968720      -0.00651991      -0.02287531
H        1.96748604       6.86759045       2.10561917      -0.00117575      -0.01103461      -0.02104129
H        1.94703586       7.33870774       0.64926382       0.01745529      -0.00457361      -0.02073563
O        9.39339455       6.64338895       1.67097852       0.01986226      -0.00226859       0.00069125
H        9.41957008       6.03557198       0.90754603       0.01878266      -0.00337929       0.00179143
H        8.97138273       6.14472339       2.40500167      -0.00207550       0.00714203      -0.00553211
O       10.27336549       6.87477203       7.86709507       0.00485036      -0.02394565       0.02201529
H        9.34462944       6.87940112       8.17782738       0.00706573      -0.00809297       0.02525613
H       10.81441505       7.34178585       8.54122298       0.00892190      -0.00872105       0.00884463
O        6.69047204       4.22802172      -0.54419658      -0.00163417       0.00590949       0.02244204
H        6.41229942       4.29138361       0.38002423      -0.00628031       0.02905074       0.01836977
H        6.12827874       3.55526467      -1.00703608      -0.01265968       0.01152340       0.03060262
O       10.46798317       9.07691097       3.93170805      -0.01931318       0.01788701      -0.01605815
H       10.41355057       9.95129063       4.38223288      -0.03191048       0.02202622      -0.02353177
H       10.03923044       8.47033335       4.55805219       0.00055283       0.01429611      -0.00714102
O        8.47483359       7.85744321       5.54468181      -0.00956315      -0.00857757       0.00917703
H        7.90714754       8.64137870       5.39205070       0.00058004      -0.00301999      -0.00133435
H        8.37014498       7.62532033       6.47607927      -0.04178478      -0.01932079       0.00315307
O        7.98089651      12.35523315       3.88140780       0.00233612      -0.01462319      -0.00279258
H        7.56011263      13.26162223       3.82814619       0.01305899      -0.01011711       0.00758518
H        7.99370100      12.11284058       2.93037616      -0.00014623      -0.00952850      -0.00479830
O        3.12524569      11.83604241       5.51793710      -0.01712762       0.00278304      -0.00644173
H        3.56553095      11.01615334       5.23048254       0.00230137       0.00989950       0.00471358
H        3.42413837      12.53372797       4.90315511      -0.01356599       0.00515136      -0.00159597
O        3.61621151       5.30428870      10.27927313       0.00632916      -0.01163490       0.00265972
H        4.39887164       5.88571236      10.38214209       0.00084044      -0.00806354       0.01898921
H        3.53598299       5.15318249       9.29719068       0.00883359       0.00480028       0.00282610
O       12.43467789      11.23726159       7.79016418       0.01449460      -0.01045231      -0.00340840
H       12.69052412      12.15142874       7.46786316       0.01048231      -0.00974359      -0.00236154
H       12.93273997      10.63436223       7.22033630       0.00894643      -0.01217478      -0.00593537
O       10.27186059      11.50715566       5.15428703      -0.00799963       0.01278849      -0.00897798
H        9.94125137      11.16410981       6.00101300      -0.00345689       0.00758949      -0.00919506
H        9.51602775      11.96035202       4.71726436      -0.01398562       0.00760854      -0.00803027
O        8.48794118      12.40100905      11.36583362      -0.01915658      -0.00634731       0.01651271
H        9.11023131      13.13771977      11.35607861      -0.02474746      -0.00104626       0.01563387
H        9.01754956      11.64786278      11.01348850      -0.01715655      -0.00317465       0.01210148
O        7.50796346       6.78938680       8.17147089      -0.01076733      -0.01292856       0.00121665
H        7.06952047       6.05324906       7.68322215      -0.02140833      -0.00088759      -0.00724280
H        7.20194128       6.70296867       9.09854079       0.00127159      -0.02604678       0.00343145
O       10.01635895      10.06125591       7.61641310       0.00213352       0.01204783       0.00126719
H       10.91991168      10.45686672       7.64353293       0.00427933       0.00740273       0.00320463
H       10.13652314       9.12650939       7.39840585      -0.00277190       0.01490246      -0.01200286
O        1.44093534       7.72686293       3.63172777      -0.01715250       0.01279610      -0.01234880
H        1.61823168       8.02981916       4.53714878      -0.00461024      -0.00368923      -0.01039779
H        0.52901746       7.36874496       3.63422318      -0.01170765      -0.00341892       0.00048875
O        5.08913168      10.00658301      10.11160022       0.00233935       0.02354154       0.00652872
H        5.90029781       9.61973424      10.53200024      -0.00591466       0.01507186       0.01234534
H        4.86056338       9.45445759       9.34879131       0.01288944       0.03386213      -0.00392972
