196
Lattice="14.130345475812803 0.0 0.0 0.0 14.130345475812803 0.0 0.0 0.0 14.130345475812803" Properties=species:S:1:pos:R:3:forces:R:3 energy=-369404.5 stress="-0.000117362396849785 -0.00037538785545621067 -0.00047662500583101064 -0.00037538785545621067 0.00012998640886507928 -0.00012136952500441112 -0.00047662500583101064 -0.00012136952500441112 -0.00011185156472492963" pbc="T T T"
Sm      14.76441701      15.07007817      -0.63667652      -0.00026301       0.00551158       0.00202990
O       13.83771059      13.18956807      13.37277260       0.00853992      -0.00004902       0.00526481
O       11.01767664      12.23724022      13.39445312       0.01769546      -0.02346023       0.00380814
O       12.04413825      11.89027519      11.33849756       0.00560886       0.00997876      -0.00753891
C       11.55618249      12.07719192      12.37826275       0.00946830      -0.00627044       0.00233936
H       13.92977187      12.36029062      13.84759458       0.00749932       0.00452219       0.01291204
O        4.84009149      10.94446981       0.12643748      -0.00859475       0.02094972      -0.00559419
O        5.37461055      13.07627051       0.52169708      -0.00614226       0.01981592      -0.00214085
O        3.21267198      12.43004654       0.27222035      -0.00677782       0.02236909      -0.00249192
C        4.52586748      12.25096287       0.32805540      -0.00685656       0.02103114      -0.00299571
H        4.01563030      10.45731482       0.00171808      -0.00938082       0.02216017      -0.00512893
O        2.15007728      14.76110594      14.49002910      -0.00367567       0.02109261       0.01263657
O        1.51286445      14.08770070      11.20714804       0.00074878      -0.01535034       0.00615803
O        1.78802266      11.78228816      11.11446937      -0.04512337      -0.01964664      -0.00853641
C        1.62832119      12.92066453      11.18962292      -0.02639042       0.01242354       0.00103240
H        2.93448636      13.41444579      14.52182905      -0.00606638       0.02265304       0.00315820
C       11.53250562       3.32443946       3.45481022       0.00875178      -0.00691283      -0.00307851
C       10.43550351       2.91657899       4.43604383       0.00708139      -0.00278968      -0.00327950
C       12.16387764       2.11922433       2.76291783       0.00705919      -0.00993657       0.00073735
C        9.78828929       4.08459281       5.17353608       0.00975813      -0.00069386      -0.00445902
C       13.36370721       2.44943761       1.87108098       0.01136754      -0.01595274       0.00432492
C        8.74852351       3.64068808       6.19558092       0.00860545       0.00197718      -0.00444299
H       11.12265937       4.01388455       2.70716020       0.01091990      -0.00768918      -0.00500780
H       12.30811394       3.88214238       3.99255513       0.00937289      -0.00740720      -0.00344427
H       10.85697368       2.22168574       5.17174311       0.00499207      -0.00325112      -0.00248221
H        9.66333087       2.35145725       3.90160265       0.00588828      -0.00124261      -0.00315478
H       12.49565088       1.41331916       3.52953502       0.00237276      -0.00955614       0.00312147
H       11.40068387       1.59197479       2.18177725       0.00721818      -0.00880504      -0.00053866
H       10.56747231       4.66921253       5.67483817       0.01093900      -0.00210461      -0.00465186
H        9.32217558       4.76106774       4.44958241       0.01138586      -0.00017332      -0.00501254
H       13.06840278       2.98345566       0.95771884       0.01609957      -0.02088041      -0.00055633
H       13.89175081       1.51655965       1.61632786       0.01317288      -0.01703172       0.01259815
H       14.08562363       3.07700339       2.40032037       0.00918202      -0.01291148       0.00385213
H        7.96375102       3.04261633       5.72655364       0.00774229       0.00302906      -0.00425801
H        9.20240167       3.02887219       6.97897190       0.00736129       0.00172456      -0.00393596
H        8.26996522       4.49494282       6.67807265       0.00998905       0.00316213      -0.00509917
C        6.76410646       3.30377846       2.72661785      -0.00020474      -0.00191498      -0.00268674
C        6.82546653       4.75831326       2.27797122       0.00215721      -0.00129455      -0.00049481
C        5.52112027       2.96037246       3.53890888      -0.00018817      -0.00070909      -0.00220381
C        8.12353897       5.10897075       1.55941162       0.00218204      -0.00267366      -0.00121182
C        5.48896579       1.50097165       3.97444431      -0.00292122      -0.00136781      -0.00448582
C        8.15430064       6.53246288       1.02127859       0.00335353      -0.00270015      -0.00122839
H        6.81642975       2.64707956       1.85040979      -0.00230134      -0.00057083      -0.00381532
H        7.65358221       3.07787591       3.32509251      -0.00007144      -0.00460141      -0.00380656
H        6.70324372       5.41421392       3.14694726       0.00419018      -0.00230390       0.00059661
H        5.97495996       4.97236053       1.61809472       0.00193173       0.00128181       0.00068922
H        5.47568222       3.61386883       4.41736652       0.00185115      -0.00199139      -0.00110430
H        4.62939287       3.18664032       2.94526762      -0.00027740       0.00190634      -0.00104919
H        8.96248212       4.95854841       2.24601445       0.00241572      -0.00370857      -0.00178826
H        8.28020103       4.40146116       0.74026816       0.00084600      -0.00277013      -0.00134942
H        5.51912262       0.83424724       3.11067788      -0.00840487       0.00000244      -0.00564760
H        4.58737408       1.27036349       4.54397374      -0.00147948       0.00061427      -0.00139168
H        6.34931899       1.26309199       4.60521634      -0.00126933      -0.00502747      -0.00804344
H        7.31421765       6.71441111       0.34745764       0.00438330      -0.00246080      -0.00241889
H        8.08400715       7.26399891       1.82780609       0.00252610      -0.00262815      -0.00133009
H        9.07093740       6.73763030       0.46604914       0.00425237      -0.00307460       0.00004566
C       12.79286525       2.08139239       9.17453951       0.00993189      -0.00075030       0.00763024
C       12.15102842       1.41440907      10.38521231       0.00806046       0.00003713       0.00717773
C       12.67928566       1.25629078       7.89740621       0.00799239      -0.00019401       0.00730783
C       12.22223363       2.25484629      11.65621944       0.00394266       0.00089923       0.00687917
C       13.35873975       1.91633680       6.70533866       0.00660519      -0.00024965       0.00648642
C       11.52825015       1.60123035      12.84706182       0.00355291      -0.00081821       0.00581414
H       12.32928786       3.06207117       9.01240272       0.01190723       0.00022066       0.00777301
H       13.85258367       2.27955519       9.38071637       0.01023528      -0.00298333       0.00783790
H       12.61451644       0.43590543      10.56166872       0.00848807       0.00065494       0.00907574
H       11.09756637       1.20509156      10.16593719       0.00874519      -0.00125295       0.00514249
H       13.11052358       0.26418759       8.06919844       0.00793669      -0.00053728       0.00581913
H       11.62029687       1.08697943       7.67401794       0.00763988       0.00044602       0.00881978
H       13.28403021       2.45579681      11.90333419       0.00287366       0.00395688       0.00870224
H       11.78356902       3.23831042      11.45921473       0.00169632      -0.00028720       0.00603364
H       12.91207826       2.89007291       6.49029251       0.00690211       0.00005192       0.00730451
H       13.27403357       1.30716458       5.80441141       0.00480423      -0.00010507       0.00651622
H       14.42175138       2.07714120       6.89752497       0.00706214      -0.00105650       0.00482208
H       10.51851197       1.28615802      12.57246435       0.00455895      -0.00258935       0.00414978
H       12.05528371       0.70003026      13.18408041       0.00477932      -0.00010543       0.00622426
H       11.42974474       2.28543385      13.69187998       0.00102980      -0.00138110       0.00601277
C        8.78125157       7.99515616       7.71118125       0.00206512       0.00013429      -0.00043993
C        9.58187691       8.79579850       6.69322533       0.00208730       0.00062398      -0.00015157
C        9.60605158       6.93270644       8.42526690       0.00189680      -0.00027958      -0.00076041
C        8.75204185       9.85328948       5.97811090       0.00170553       0.00009607      -0.00058102
C        8.80834971       6.16462553       9.46768814       0.00167087      -0.00072485      -0.00115594
C        9.54807451      10.64739656       4.95261967       0.00181252       0.00154355       0.00056666
H        8.35029997       8.67778787       8.45357041       0.00206589      -0.00009178      -0.00020954
H        7.92894219       7.51886372       7.21005860       0.00207379       0.00037982      -0.00068323
H       10.01370576       8.11178078       5.95261448       0.00279628       0.00087272       0.00002441
H       10.43092349       9.27522947       7.19470859       0.00153743       0.00115323       0.00014253
H       10.01377297       6.23682828       7.68416825       0.00193706       0.00005990      -0.00099650
H       10.47008321       7.40861445       8.90063603       0.00188136      -0.00057328      -0.00043008
H        7.90341565       9.36720203       5.48935868       0.00270641      -0.00059594      -0.00175641
H        8.32027098      10.53211941       6.72091671       0.00025382      -0.00064701      -0.00076127
H        8.44115401       6.83271856      10.25074390       0.00167031      -0.00104801      -0.00084966
H        9.40944135       5.39122252       9.94608465       0.00154552      -0.00107273      -0.00144360
H        7.93906347       5.67743809       9.01925358       0.00163890      -0.00042687      -0.00142874
H       10.39950259      11.14736874       5.41960893       0.00042175       0.00278156       0.00175695
H        9.93919449       9.99238595       4.17104860       0.00389640       0.00228420       0.00092182
H        8.93755564      11.41040704       4.46807914       0.00125557       0.00062287      -0.00002863
C        4.77230073       6.83402814       5.15318058      -0.00135478      -0.00011551      -0.00266883
C        5.06725341       8.27317138       4.74943816      -0.00208420       0.00032514      -0.00145024
C        3.74197581       6.72483849       6.27046949       0.00156036      -0.00165540      -0.00016567
C        6.04233820       8.39319685       3.58557167      -0.00397187       0.00157091      -0.00296521
C        3.50507726       5.29519690       6.73699534       0.00126929      -0.00264663      -0.00324322
C        6.26715314       9.83011785       3.13768851      -0.00425162       0.00216687      -0.00105603
H        4.42146524       6.27264928       4.27872541      -0.00368135       0.00117964      -0.00258291
H        5.70335384       6.34697791       5.47061175      -0.00066543      -0.00072394      -0.00576963
H        5.47213761       8.81439455       5.61286815      -0.00057335      -0.00056009      -0.00158089
H        4.13106618       8.77898655       4.48922325      -0.00252321       0.00065418       0.00063474
H        4.06991060       7.33678457       7.11633599       0.00470933      -0.00422898       0.00057054
H        2.79829402       7.16420370       5.92994990       0.00112644       0.00032094       0.00367205
H        6.99607706       7.93561544       3.87428719      -0.00360832       0.00108087      -0.00498225
H        5.67264651       7.79925628       2.74291198      -0.00533167       0.00262479      -0.00313723
H        3.17176032       4.66116888       5.91250472      -0.00148320      -0.00007229      -0.00408873
H        2.74796447       5.24878029       7.52178536       0.00332133      -0.00395553      -0.00137831
H        4.42304390       4.85726708       7.13578859       0.00189951      -0.00465842      -0.00687885
H        5.34355770      10.27068385       2.76048786      -0.00466806       0.00325485       0.00110270
H        6.61180966      10.45189083       3.96610952      -0.00294911       0.00049283      -0.00025533
H        7.00361623       9.89776417       2.33601463      -0.00513484       0.00332680      -0.00178076
C        8.14881209      11.91742855       9.75230183      -0.00003320       0.00507858       0.00137204
C        8.53939221      11.36436951      11.11782724       0.00084931       0.00454585       0.00085875
C        9.06329473      13.04147865       9.27728633      -0.00028768       0.00483014       0.00029844
C        7.61330052      10.27320779      11.63939127      -0.00027865       0.00552864       0.00097023
C        8.69656185      13.56650920       7.89554807      -0.00232606       0.00528803       0.00104007
C        8.02403015       9.75169299      13.00920401      -0.00104234       0.00503904       0.00101191
H        8.15904518      11.10671281       9.01365813      -0.00113001       0.00516742       0.00127952
H        7.11640920      12.28181158       9.78565003       0.00004393       0.00528567       0.00257950
H        8.56586469      12.18283864      11.84612221       0.00245624       0.00431773       0.00120652
H        9.55730087      10.96497379      11.05556421       0.00049683       0.00337686      -0.00006487
H        9.02125377      13.85879697      10.00604261       0.00112456       0.00481284       0.00053951
H       10.10032442      12.68992492       9.27688519      -0.00045249       0.00453171      -0.00133038
H        6.59327790      10.66079422      11.69539563       0.00013122       0.00687017       0.00075408
H        7.59000696       9.44761052      10.91883662      -0.00125535       0.00560018       0.00087951
H        8.78918974      12.78310394       7.14051140      -0.00449257       0.00516926       0.00084303
H        9.34119682      14.39312166       7.59179707      -0.00210980       0.00467084      -0.00017588
H        7.66517036      13.92453575       7.87120233      -0.00203227       0.00624505       0.00294887
H        9.03305489       9.33158081      12.98779272      -0.00194627       0.00301134       0.00096462
H        8.01024512      10.55566318      13.74651035       0.00089515       0.00525048       0.00076149
H        7.34336949       8.97436456      13.36020703      -0.00252518       0.00645332       0.00140277
C        1.80153493      10.79052833       3.13229256       0.00063294       0.00212930      -0.00315136
C        1.19453081       9.66004887       2.31041154      -0.00145608       0.00220774      -0.00168860
C        1.06771873      12.11753219       2.97359582       0.00063604       0.00237398      -0.00138402
C        1.91765244       8.32712107       2.47488250      -0.00171641       0.00189886      -0.00289759
C        1.71135030      13.24467357       3.76894081       0.00220311       0.00201273      -0.00224462
C        1.28257250       7.19947078       1.67166532      -0.00310630       0.00226969      -0.00237013
H        1.81350444      10.50491596       4.19099875       0.00298282       0.00211228      -0.00319850
H        2.85018214      10.92645077       2.84300857       0.00004047       0.00191366      -0.00543296
H        1.19979078       9.94640173       1.25096963      -0.00360582       0.00190144      -0.00177288
H        0.14004975       9.53417311       2.58338100      -0.00096920       0.00273448       0.00037305
H        1.05618850      12.39448724       1.91413136      -0.00098836       0.00274879      -0.00122768
H        0.02299595      11.98985589       3.27809804       0.00109649       0.00244223       0.00022635
H        2.96756073       8.44674358       2.18198240      -0.00204927       0.00157972      -0.00409953
H        1.93510774       8.05652773       3.53604730      -0.00060456       0.00165436      -0.00295314
H        1.76879249      12.99441464       4.83091842       0.00311581       0.00238803      -0.00214267
H        1.15194317      14.17676392       3.67306327       0.00291111       0.00245845      -0.00206580
H        2.72473798      13.43741327       3.41289759       0.00187609       0.00137694      -0.00353216
H        0.25613641       7.01869784       1.99853231      -0.00301811       0.00308071      -0.00170743
H        1.24981719       7.44521579       0.60813434      -0.00362248       0.00216427      -0.00239293
H        1.83698804       6.26536633       1.77948334      -0.00377232       0.00186659      -0.00264501
C        6.08548479       3.12349377      12.03970053      -0.00617108      -0.00653917       0.00092202
C        4.65817773       3.63114042      12.19671916      -0.00557736      -0.00566864       0.00344148
C        7.11542271       4.23573348      12.19717344      -0.00540277      -0.00753313       0.00259981
C        3.59465483       2.57220940      11.93404158      -0.00678177      -0.00230676      -0.00496361
C        8.55132896       3.73242085      12.17117866      -0.00562537      -0.00814560       0.00047317
C        2.18185080       3.11731450      12.14475337      -0.00606246      -0.00109160      -0.00410329
H        6.27544017       2.33775294      12.77920322      -0.00614399      -0.00857548      -0.00127128
H        6.20538655       2.65285384      11.05661863      -0.00747979      -0.00405224      -0.00042617
H        4.49682351       4.47611688      11.51592911      -0.00395669      -0.00093666       0.00887804
H        4.53124755       4.03083512      13.20927007      -0.00580692      -0.01237163       0.00605065
H        6.96833338       4.97996153      11.40769145      -0.00550648      -0.00586119       0.00412750
H        6.93015647       4.75812997      13.14056999      -0.00452760      -0.00929895       0.00376520
H        3.69538949       2.21211562      10.90493056      -0.00565952       0.00380937      -0.00693080
H        3.75473178       1.71258270      12.59378392      -0.00921765      -0.00648266      -0.00975314
H        8.71939569       2.99898138      12.96254928      -0.00521400      -0.00928938      -0.00063156
H        9.26746864       4.54477567      12.31182980      -0.00519820      -0.00861871       0.00083805
H        8.78222623       3.24571173      11.22013190      -0.00692018      -0.00692414      -0.00044015
H        1.96715454       3.24283375      13.21792140      -0.00577561      -0.00445137      -0.00354646
H        2.05611882       4.09396770      11.66945714      -0.00426827       0.00091016      -0.00041300
H        1.42262964       2.46356472      11.69093052      -0.00660718       0.00146969      -0.00668135
C        4.31163387       8.73920465      11.06825361      -0.00377727       0.00014545       0.00031969
C        3.94027585       9.26740194       9.68826948      -0.00691307       0.00038084       0.00128719
C        3.43199979       7.59637808      11.55757076      -0.00312388       0.00018638       0.00176074
C        4.85187779      10.40108982       9.23382906      -0.00749642      -0.00042678      -0.00188881
C        3.82701610       7.11857833      12.94856338      -0.00130358       0.00011763       0.00117612
C        4.48293431      10.99069835       7.88057062      -0.01180765      -0.00136280      -0.00111336
H        5.35645555       8.40892941      11.06198297      -0.00382629      -0.00015444      -0.00209088
H        4.26889694       9.56409265      11.78950834      -0.00186438      -0.00013053       0.00070021
H        2.90018195       9.61135126       9.69497598      -0.00667244       0.00130470       0.00417536
H        3.98505903       8.44940408       8.96071661      -0.00989755       0.00024429       0.00126949
H        2.38398025       7.91449995      11.55494095      -0.00311744       0.00036265       0.00317939
H        3.49791804       6.76428811      10.84756592      -0.00445080       0.00028437       0.00158691
H        4.83953799      11.19042269       9.99335782      -0.00484717       0.00014654      -0.00231773
H        5.88286676      10.03736224       9.20534338      -0.00771111      -0.00090708      -0.00473663
H        4.86617901       6.78167070      12.96433453      -0.00190331      -0.00182326      -0.00059496
H        3.20452868       6.29156134      13.29296700      -0.00217290       0.00144055       0.00269852
H        3.73541283       7.92562404      13.68083067       0.00160401       0.00074333       0.00087282
H        4.48827214      10.22607647       7.10190434      -0.01598222      -0.00211877      -0.00037003
H        3.48263890      11.42990456       7.89791511      -0.01125568      -0.00010730       0.00234662
H        5.18515318      11.77223019       7.58283638      -0.01203930      -0.00247750      -0.00470839
