199
Lattice="14.482714582937769 0.0 0.0 0.0 14.482714582937769 0.0 0.0 0.0 14.482714582937769" Properties=species:S:1:pos:R:3:forces:R:3 energy=-393984.46875 stress="0.00014406652189791203 0.000145819089084398 -0.0006948037771508098 0.000145819089084398 0.0002989659260492772 0.0004032269207527861 -0.0006948037771508098 0.0004032269207527861 -0.00025041800108738244" pbc="T T T"
Sm      14.68172329      14.33759173       2.16148402      -0.01328093       0.00058365      -0.00533298
F        6.40050963      15.59595681      14.17374404       0.00939190      -0.00147706       0.00583941
F       13.81907382      14.82285017      14.86051389       0.01561566       0.01137546      -0.01797045
F       15.45698088      14.34239730       4.04338282       0.04134938      -0.00458463      -0.02718034
C        2.25804885      11.22924734       5.92396725       0.00573014      -0.00079614       0.00705869
C        3.30521517      10.39580870       5.52453047       0.00118586      -0.00311237       0.00410369
C        1.02345261      10.64393419       6.20613050       0.00296769       0.00182838       0.00834093
C        2.46756155      12.70762403       6.05371244       0.00906443      -0.00153983       0.01151279
C        3.13302534       9.02241230       5.42604012      -0.00197078      -0.00260402       0.00004862
C        0.84304728       9.26787412       6.10792277      -0.00013937       0.00247655       0.00438084
C        1.89996228       8.45238027       5.72279298      -0.00511638       0.00051208       0.00043542
H        4.26851903      10.83386511       5.28450081       0.00324637      -0.00599016       0.00373339
H        0.19823991      11.27676015       6.51115838       0.00640776       0.00329849       0.01190213
H        1.56217617      13.21058048       6.38665878       0.00805816       0.00079370       0.00521236
H        3.26680317      12.93313995       6.76229105       0.00354910      -0.00594352       0.01937108
H        2.73981935      13.15750441       5.09916063       0.01938935      -0.00042313       0.01485640
H        3.95861847       8.39909899       5.10539591      -0.00531030      -0.00430525      -0.00265043
H       -0.12394060       8.83465350       6.33740062      -0.00200117       0.00489818       0.00555042
H        1.76866292       7.37950792       5.64880274      -0.00796646       0.00100410      -0.00319537
C       13.29486730       4.38153235       2.12677622       0.00725861      -0.00336333       0.00211352
C       14.05687626       4.85338176       3.19673771       0.01770192      -0.00958133      -0.00246416
C       12.94838495       3.02992415       2.10018649      -0.00373603      -0.00076481       0.00438429
C       12.84621775       5.30818690       1.03929388       0.00807869       0.00023745       0.00475445
C       14.50132719       4.00030830       4.19957030       0.01754707      -0.01309291      -0.00552492
C       13.36550137       2.18229279       3.12638448      -0.00473067      -0.00375769       0.00207957
C       14.15736197       2.65502928       4.17561249       0.00632994      -0.01055893      -0.00309402
H       14.29268793       5.91147209       3.24776477       0.02612493      -0.01126279      -0.00373095
H       12.33264592       2.64774158       1.29389585      -0.01177127       0.00452842       0.00781443
H       11.87210413       5.01909529       0.64875170       0.00480804       0.00631049       0.00840719
H       12.78812280       6.33590850       1.39943680       0.01585845       0.00023577       0.00623408
H       13.55024829       5.29303606       0.20270440       0.00469662      -0.00313333       0.00188726
H       15.08937290       4.39310626       5.01953564       0.02643282      -0.01796027      -0.00944084
H       12.90459939       1.18724451       3.20070800      -0.01171276      -0.00042419       0.00406939
H       14.47968528       1.98898128       4.96520485       0.00693599      -0.01293612      -0.00530904
C        9.08623872       1.65605311       4.76567420      -0.00233866      -0.00409209      -0.00669305
C        8.98398639       2.95353392       5.26662379      -0.00158924      -0.00335540      -0.00858019
C       10.26040154       0.94721790       5.01978780      -0.00378054      -0.00534005      -0.00370052
C        7.95746239       1.05123544       3.98499203      -0.00164863      -0.00365811      -0.00816685
C       10.02317980       3.53955943       5.97578116      -0.00179303      -0.00373518      -0.00724816
C       11.30083519       1.52175155       5.74298024      -0.00421737      -0.00559170      -0.00242553
C       11.19179335       2.82442766       6.21334200      -0.00332057      -0.00518055      -0.00443220
H        8.05966436       3.49855772       5.11546112      -0.00020816      -0.00200921      -0.01133900
H       10.35113383      -0.06964461       4.65102303      -0.00464638      -0.00587019      -0.00227023
H        8.02264141      -0.03656502       3.96930200      -0.00028728      -0.00354411      -0.01075050
H        6.99548187       1.32764402       4.41842757      -0.00202575      -0.00592037      -0.00749877
H        7.95564048       1.39507410       2.94834835      -0.00223637      -0.00127456      -0.00739187
H        9.92038645       4.54778856       6.35994345      -0.00116234      -0.00312713      -0.00899485
H       12.20314904       0.95353693       5.94012962      -0.00530250      -0.00673501       0.00000848
H       12.00589299       3.28160814       6.76263795      -0.00347453      -0.00538160      -0.00348662
C        8.73988017       6.91246864       3.58053494       0.00071461       0.00017294       0.00386399
C        9.09441714       8.23646170       3.31926578       0.00358774      -0.00020045       0.00543608
C        7.87143413       6.66554944       4.64599874      -0.00231388       0.00117472       0.00179462
C        9.26703995       5.78992529       2.73471783       0.00147109      -0.00035608       0.00506780
C        8.61245435       9.27886833       4.10382246       0.00301624       0.00017905       0.00424240
C        7.37278448       7.70338397       5.42231597      -0.00253093       0.00163485       0.00085361
C        7.74644110       9.01651243       5.15818912      -0.00020972       0.00119500       0.00208032
H        9.74364389       8.45545428       2.47904472       0.00642114      -0.00105551       0.00721791
H        7.56682500       5.64742327       4.85518327      -0.00406596       0.00147830       0.00095728
H        8.51762218       5.01099171       2.58980005       0.00217938      -0.00104076       0.00578975
H        9.57775392       6.14555205       1.75204828       0.00139654      -0.00112778       0.00468625
H       10.13038844       5.31276719       3.20704797       0.00192663       0.00084012       0.00559020
H        8.90034018      10.29820305       3.87515944       0.00487732      -0.00006682       0.00530584
H        6.68240211       7.48876398       6.22907245      -0.00466593       0.00240376      -0.00062738
H        7.35471523       9.82747936       5.75965263      -0.00054928       0.00165049       0.00120820
C        8.06899528       4.09151963      13.31803039      -0.00084889      -0.00010021       0.00629569
C        8.42412997       2.76618866      13.59140425       0.00083113       0.00080316       0.00834482
C        9.06216345       5.02190632      13.00407791      -0.00202377       0.00068593       0.00458085
C        6.62347200       4.49306775      13.38246629      -0.00146520      -0.00202144       0.00570446
C        9.76486845       2.40235353      13.54251176       0.00120049       0.00241398       0.00831250
C       10.40133121       4.64675562      12.96787300      -0.00164909       0.00230015       0.00459972
C       10.75820207       3.33010458      13.23435970       0.00014392       0.00307780       0.00642192
H        7.59851700       2.01155936      13.84964412       0.00058389      -0.00115520       0.00927681
H        8.78614035       6.04930020      12.78329560      -0.00347641       0.00001420       0.00295161
H        6.43271778       5.40267956      12.81006530      -0.00411994      -0.00730355      -0.00187182
H        5.98982091       3.68384748      13.02059650      -0.00053316      -0.00639156       0.01374584
H        6.32179235       4.68231164      14.41593122       0.00023187       0.00672381       0.00463021
H       10.04417130       1.37278238      13.73884738       0.00241727       0.00290197       0.00943384
H       11.16113784       5.38259591      12.72818580      -0.00258376       0.00281769       0.00280748
H       11.79776582       3.02453227      13.18811651       0.00036438       0.00415031       0.00632018
C       12.66899007       5.96522986       8.82347376       0.00484930      -0.00264204      -0.00183716
C       11.41484705       6.02580852       9.42921308       0.00382704      -0.00202533      -0.00222901
C       12.80372712       6.46898295       7.52908820       0.00435801      -0.00158444      -0.00175925
C       13.83705071       5.35412889       9.54083177       0.00412709      -0.00371392      -0.00219119
C       10.32803598       6.58256041       8.76935938       0.00527002      -0.00192481      -0.00161871
C       11.71618069       7.02234172       6.86303553       0.00588922      -0.00132347      -0.00136600
C       10.47369897       7.09015422       7.48389901       0.00448953      -0.00091818      -0.00191409
H       11.28617801       5.63362326      10.43092378       0.00419371      -0.00270569      -0.00200500
H       13.77194771       6.42580394       7.04159510       0.00513750      -0.00192769      -0.00144967
H       14.77395698       5.83868320       9.26413717       0.00442658      -0.00406368      -0.00174789
H       13.71560141       5.43023539      10.62156958       0.00410907      -0.00450276      -0.00211550
H       13.93502989       4.29155604       9.30172092       0.00353976      -0.00356480      -0.00298299
H        9.36717202       6.62095053       9.26553084       0.00450131      -0.00143596      -0.00206221
H       11.83482648       7.39194447       5.85122233       0.00531114      -0.00039483      -0.00132760
H        9.62932085       7.52451224       6.96356943       0.00543135      -0.00062428      -0.00157536
C        2.99208837       8.89818139       2.17581572      -0.00516996      -0.01053689      -0.00445648
C        4.18997727       9.60362545       2.26728827       0.00622930      -0.00056881      -0.00532715
C        3.04735145       7.50906893       2.06673613      -0.00265135       0.00037895      -0.00478568
C        1.67565860       9.61429297       2.18974875       0.00261402      -0.00034428      -0.00067273
C        5.41007064       8.94403642       2.24959339      -0.00110263      -0.01638751      -0.00975887
C        4.26619436       6.84219886       2.04459420      -0.00921619      -0.01427233      -0.00904275
C        5.45273996       7.55978008       2.13601000       0.00238571      -0.00380918      -0.00935790
H        4.16678410      10.68389347       2.35024236       0.00496884      -0.00859511      -0.00522695
H        2.12377538       6.94283225       2.00657948      -0.00633321      -0.00364860      -0.00409541
H        0.89756047       9.01042342       2.65704639       0.00179698      -0.00068969       0.00107804
H        1.74169974      10.55453736       2.74190717       0.00559296      -0.00167483      -0.00073993
H        1.34525592       9.84584175       1.17277176       0.00063179      -0.00067297      -0.00032958
H        6.32868642       9.51093871       2.32262232       0.00461528      -0.01123127      -0.01051326
H        4.29071130       5.76263132       1.96036109      -0.00766640      -0.00646068      -0.00937387
H        6.40495078       7.04734120       2.12487124      -0.00365362      -0.01426956      -0.01245029
C        6.71645085      13.43392286      10.80987782      -0.00164297       0.00597143       0.00594419
C        5.73598595      14.11061320      11.53843486      -0.00280210       0.00953850       0.00146863
C        6.34969836      12.76609447       9.64099989      -0.00152053       0.00075625       0.00816804
C        8.13875055      13.41302502      11.28776525      -0.00266308       0.00669655       0.00787356
C        4.41731460      14.09876455      11.09832369      -0.00125224       0.00924977       0.00038972
C        5.03360274      12.76500172       9.20157208      -0.00010911      -0.00088502       0.00746789
C        4.05841486      13.43159125       9.93338594      -0.00149223       0.00363540       0.00268165
H        5.99995773      14.64501855      12.45584820      -0.00260976       0.01140437       0.00078988
H        7.11078790      12.25333610       9.05991370      -0.00073105      -0.00263811       0.01162899
H        8.83782054      13.51216554      10.45515786      -0.00143684       0.00907616       0.00907803
H        8.31856069      14.21904178      11.99783074      -0.00480274       0.00561418       0.00976199
H        8.36808217      12.46980979      11.79300366      -0.00235896       0.00593233       0.00629188
H        3.66384813      14.61881436      11.67777315      -0.00202799       0.01265199      -0.00327869
H        4.76654158      12.24620935       8.28941266      -0.00014926      -0.00582165       0.00992350
H        3.02839223      13.42640711       9.59588493      -0.00050029       0.00286613       0.00184472
C        3.82933473      12.80745153       0.25030982      -0.01498607       0.00435084       0.00558789
C        3.51209510      11.61755158      -0.40374720      -0.01419683       0.00597332      -0.00027563
C        5.16843188      13.14943097       0.43420740      -0.01587722       0.00624165       0.00213808
C        2.73458822      13.71906940       0.76516233      -0.01720486      -0.00355798       0.01414988
C        4.51288675      10.75356838      -0.83179720      -0.01308279       0.01152295      -0.00737954
C        6.16654576      12.27778817       0.01366528      -0.01442294       0.01229921      -0.00558624
C        5.84438220      11.07639122      -0.60477302      -0.01361911       0.01343891      -0.01083413
H        2.47269535      11.36297025      -0.58424616      -0.01403257       0.00536982       0.00156222
H        5.46332210      14.12689742       0.80508691      -0.01637983       0.00486717       0.00770599
H        3.00240845      14.77000470       0.60801128      -0.02252866      -0.00118592       0.01914811
H        1.79021971      13.51447383       0.23782426      -0.01676171      -0.00528797       0.01417233
H        2.61163363      13.56380105       1.85496879      -0.01318260      -0.01029462       0.01297420
H        4.25486928       9.82678644      -1.32962486      -0.01260048       0.01323280      -0.01211169
H        7.20123729      12.57028452       0.14016887      -0.01525143       0.01496382      -0.00867199
H        6.62752982      10.39748839      -0.92198245      -0.01237798       0.01843502      -0.01788324
C        5.54672379       8.40793418       9.49469352       0.00032082      -0.00786759       0.00767453
C        4.88787724       7.61885337      10.43898423       0.00063246      -0.00705251       0.00987232
C        4.78830730       9.28352562       8.72183096      -0.00322550      -0.00889292       0.00817809
C        7.03043990       8.30282522       9.29884431      -0.00065747      -0.00767574       0.00495256
C        3.51092214       7.70356616      10.60234607       0.00336592      -0.00802969       0.01205268
C        3.41307776       9.37965761       8.88638419      -0.00080702      -0.00984254       0.00966824
C        2.76951269       8.58824492       9.82695917      -0.00104116      -0.00930273       0.01224611
H        5.46093330       6.93159690      11.05085599       0.00344023      -0.00627554       0.00966778
H        5.28348332       9.90440043       7.98352217      -0.00368188      -0.00931842       0.00652780
H        7.43295960       9.20406036       8.83544878      -0.00166152      -0.00833887       0.00282774
H        7.55124203       8.14608876      10.24430385       0.00125809      -0.00633476       0.00420213
H        7.28240040       7.46224507       8.64699389      -0.00192704      -0.00862649       0.00561497
H        3.01647783       7.08015939      11.33747944       0.00361884      -0.00726358       0.01381822
H        2.84537862      10.06728211       8.27407929      -0.00363259      -0.01103359       0.00988565
H        1.69565248       8.65933452       9.94836209       0.00057843      -0.01011696       0.01389905
C       12.44038091       8.65479293      12.06227884       0.00128245       0.00049330      -0.00007606
C       11.13262666       8.81908190      12.52031754       0.00140598      -0.00044644       0.00014873
C       12.76099560       9.12596866      10.78897047      -0.00051379       0.00268505      -0.00114141
C       13.47131561       7.96073891      12.90384052       0.00243381       0.00035262      -0.00219873
C       10.17250130       9.43652098      11.72672528       0.00043625      -0.00116445       0.00299565
C       11.80431633       9.74045260       9.99263745      -0.00089983       0.00178875       0.00174220
C       10.50584802       9.90056755      10.46007022      -0.00119480       0.00108278       0.00135934
H       10.86582949       8.46204703      13.50966443       0.00249039      -0.00206642       0.00063759
H       13.77216609       9.00428046      10.41752982      -0.00018276       0.00343110      -0.00127247
H       14.47363590       8.33988924      12.70174883       0.00203224       0.00127065      -0.00244800
H       13.26432645       8.07547783      13.96833966       0.00319779      -0.00105872      -0.00178818
H       13.48600128       6.88664098      12.69831969       0.00296814       0.00062448      -0.00353422
H        9.16401664       9.56336775      12.10153980       0.00059722      -0.00195649       0.00296282
H       12.07208517      10.08818165       9.00243220      -0.00229376       0.00352485       0.00086451
H        9.75824163      10.38341513       9.84348512      -0.00178117       0.00052209       0.00337364
C       12.32314577      11.43514091       4.28987200       0.00916001       0.01604702      -0.01498356
C       12.79392934      12.35243843       3.34062218      -0.00359101       0.01631469      -0.02062168
C       12.15885499      10.10888910       3.89456115       0.01549229       0.01366621      -0.01027574
C       11.93692899      11.85313265       5.67806602       0.01438768       0.01680729      -0.01382715
C       13.08310660      11.94546823       2.03468630      -0.00928331       0.01520304      -0.02158305
C       12.45662277       9.69808403       2.60095815       0.00923892       0.01224072      -0.01110387
C       12.91604414      10.61136419       1.66492219      -0.00283715       0.01300342      -0.01694146
H       12.86553770      13.39700844       3.66606592      -0.01376381       0.01832807      -0.02378070
H       11.77192228       9.39445286       4.61195602       0.02566911       0.01283915      -0.00526127
H       12.10093860      11.04115894       6.38782671       0.01763918       0.01726842      -0.01418141
H       12.49586498      12.72655201       6.01355589       0.01519194       0.01730366      -0.01635741
H       10.87304777      12.10396350       5.72459591       0.01429552       0.01611042      -0.00995203
H       13.31732249      12.64956287       1.23271077      -0.01852004       0.01512959      -0.02437855
H       12.31536999       8.65957320       2.32393583       0.01470431       0.01057191      -0.00752650
H       13.12826608      10.30292828       0.64973771      -0.00767368       0.01152051      -0.01742353
C        8.56020208       2.30593266       9.18662716      -0.00410302      -0.00151665       0.00071704
C        8.42019983       1.25794805       8.27712590      -0.00353508       0.00034951      -0.00173646
C        7.42702468       3.04569349       9.52223388      -0.00355475      -0.00277266       0.00254412
C        9.89865599       2.64265787       9.76846602      -0.00358188      -0.00277299       0.00117654
C        7.18746163       0.95800402       7.71705105      -0.00459717       0.00168303      -0.00235099
C        6.19059218       2.74866914       8.96258928      -0.00446938      -0.00124925       0.00168495
C        6.06565711       1.70328615       8.05729049      -0.00382486       0.00061257      -0.00064616
H        9.29437370       0.67928286       8.00055832      -0.00429293       0.00099036      -0.00332625
H        7.51767901       3.84995229      10.24393962      -0.00414991      -0.00436723       0.00436170
H        9.79800728       3.27047034      10.65121459      -0.00342537      -0.00408964       0.00222774
H       10.44504892       1.74219814      10.05379418      -0.00375670      -0.00328435      -0.00028585
H       10.50994929       3.17998848       9.03860595      -0.00358555      -0.00174032       0.00192563
H        7.09873097       0.13354324       7.02036460      -0.00418435       0.00323905      -0.00418580
H        5.31863294       3.32388819       9.24776867      -0.00365053      -0.00165644       0.00319932
H        5.09862989       1.45895346       7.63678878      -0.00414331       0.00137204      -0.00156442
