187
Lattice="13.722797701260122 0.0 0.0 0.0 13.722797701260122 0.0 0.0 0.0 13.722797701260122" Properties=species:S:1:pos:R:3:forces:R:3 energy=-423102.34375 stress="8.552637154934928e-06 0.0007092987361829728 -0.0003787993045989424 0.0007092987361829728 -1.8642735085450113e-05 0.0001216336568177212 -0.0003787993045989424 0.0001216336568177212 -0.00010954088065773249" pbc="T T T"
Sm      16.47408581      11.83501668       1.50865557       0.01434089       0.00171885      -0.00113566
O        0.73502331      11.64313264       5.22847745      -0.00589138       0.00292677      -0.01456362
O        1.77976941      12.20248924       3.33672717      -0.00452883       0.00493872      -0.01287621
C        2.47916173      13.27332796       5.36419096      -0.01143032       0.00853801      -0.01293153
C        1.56059694      12.31241712       4.64823780      -0.00727564       0.00507969      -0.01383828
H        3.39918634      12.73496392       5.61028119      -0.01003346       0.01201655      -0.01057324
H        2.02943595      13.59702696       6.29927514      -0.01430327       0.00776746      -0.01400405
H        2.74907424      14.13263451       4.75125169      -0.01331721       0.00891894      -0.01323125
O        3.87122709      15.89632049       1.64227328      -0.00205082       0.00782156       0.00293516
O        3.83994660      13.66474110       1.44876954       0.00854811       0.00677723       0.01129985
C        1.74717350      14.80940629       1.58218642       0.00376630       0.00094222      -0.02502950
C        3.27028310      14.85346814       1.54836212       0.00349331       0.00489569      -0.00183044
H        1.32894610      15.72303000       1.16852363       0.00874045      -0.00695589      -0.04651245
H        1.41905849      14.71392697       2.61955699      -0.01265204       0.01712496      -0.02936760
H        1.31922460      13.95395421       1.02078072       0.01370417      -0.00861644      -0.01617718
O        6.13308959      13.50759844      10.03677936      -0.01520586       0.02221131       0.02607006
O        7.73697015      14.42883277       8.77452411      -0.02299976      -0.00730467      -0.00414443
C        8.39744034      12.85513175      10.43794740      -0.01621556       0.00653821       0.00611693
C        7.33257836      13.66155745       9.67603730      -0.01794469       0.00687027       0.00976241
H        9.30559822      12.73749202       9.84444241      -0.01544243       0.01217769       0.00643880
H        8.01724654      11.88342752      10.75511346      -0.01364791       0.00345694      -0.00021182
H        8.64937396      13.39696098      11.35348015      -0.02007177       0.00068065       0.01055202
O       13.61158823       7.22677024       7.77042133       0.00388155      -0.00005291      -0.00012288
O       13.90894123       9.36435141       7.83552298       0.00448861       0.00014366      -0.00541954
O       11.97523862       8.52015830       8.65878637       0.00658774       0.00217137       0.00096712
C       12.76565493       6.06280016       7.95682454       0.00469452       0.00058311       0.00662579
C       13.61242598       4.84310176       7.71393398       0.00191036       0.00003284       0.00037342
C       13.05555187       8.38489780       8.13614082       0.00476074       0.00081454      -0.00113043
C       13.46665215      10.67081096       8.24573067       0.00532703       0.00097886      -0.00703733
H       12.34367672       6.07019228       8.95952086       0.01252104       0.00110654       0.00980324
H       11.94148434       6.13598154       7.24676414      -0.00106794       0.00074408       0.01336539
H       12.99608870       3.95241685       7.83597185       0.00219320       0.00059283       0.00561003
H       14.03106461       4.84196807       6.70715481      -0.00621402      -0.00056763      -0.00290677
H       14.43186486       4.79174461       8.43121817       0.00763784      -0.00022589      -0.00627974
H       12.54229756      10.93070624       7.73519765       0.00244284      -0.00167097      -0.00295138
H       14.25704528      11.34735110       7.94252341       0.00294235       0.00081438      -0.01337814
H       13.32296760      10.68662638       9.32476187       0.01050724       0.00418492      -0.00644261
O        6.12046833       7.63835743       5.43801358       0.00866555      -0.00927044      -0.00096925
O        4.38449684       7.17344168       6.61711826       0.01016583      -0.01100966       0.00052889
O        4.55694704       6.25346916       4.54936707      -0.00666362       0.01470071      -0.01253474
C        6.98575818       7.41871300       4.29924909       0.00536124      -0.00464243      -0.00439402
C        7.63252662       8.72571721       3.92396895      -0.00134066      -0.00215310      -0.00695220
C        4.98495178       6.93945812       5.45019846       0.00340170       0.00057584      -0.00437087
C        3.13984881       6.49186460       6.85442426       0.00600835      -0.00432490      -0.00191996
H        7.72223952       6.67580541       4.59503354       0.00980875      -0.00092039      -0.00647016
H        6.39929023       6.99206070       3.49043029       0.00455043      -0.00752904      -0.00228143
H        8.36690844       8.54434673       3.13933383      -0.00326000       0.00041769      -0.00928833
H        6.89333305       9.43388410       3.54902108      -0.00527689      -0.00512178      -0.00490546
H        8.14991936       9.16751390       4.77344148      -0.00030439       0.00001757      -0.00861397
H        2.80483205       5.99013184       5.94980252       0.00751312      -0.00703119      -0.00096706
H        2.41992494       7.23411370       7.18487710       0.00721511      -0.00045258      -0.00778852
H        3.30311249       5.77097344       7.65292942       0.00078894      -0.00098827       0.00195822
O       10.90918296       2.36915975       3.77022388      -0.00410790       0.00060520       0.00497131
O        9.32978666       1.72588642       5.09333055      -0.00146362       0.00246922       0.00939827
O       10.80464910       0.17691455       4.33470064      -0.00542516       0.00085390       0.00561609
C       12.05286929       2.08211623       2.94488412      -0.00548358      -0.00149441       0.00364298
C       12.43137478       3.37025160       2.26016494      -0.00339130      -0.00266743       0.00273658
C       10.38476693       1.30363312       4.40072745      -0.00374261       0.00124478       0.00645384
C        8.70208874       0.71907032       5.92183209       0.00056054       0.00259385       0.01100238
H       12.85396557       1.69701594       3.57949926      -0.00565213      -0.00254630       0.00313282
H       11.78669180       1.30092305       2.23024325      -0.00766671      -0.00159165       0.00454313
H       13.27436005       3.21053914       1.58907534      -0.00187862      -0.00464112       0.00508366
H       11.58957841       3.73705582       1.67446195      -0.00190082      -0.00245127       0.00072871
H       12.71870201       4.12983049       2.98787699      -0.00398964      -0.00199957       0.00233354
H        8.56719096      -0.19812898       5.35055874      -0.00731539       0.00476551       0.00945912
H        7.75573652       1.13725130       6.24249565       0.00468594       0.00494134       0.01974796
H        9.30314596       0.52863728       6.80669532       0.00684929      -0.00303520       0.00536990
O        7.41951487       4.40360390       3.04433503       0.00647864      -0.00089021      -0.00475122
O        8.77624960       5.92518997       2.33975527       0.00350429       0.00037791      -0.00780872
O        8.95173425       3.84354942       1.46719132       0.00687766      -0.00021106      -0.00304252
C        6.85245019       3.06028958       2.99763698       0.00866389      -0.00190820      -0.00259668
C        5.92672401       2.94179676       4.17712364       0.00617352       0.00041640      -0.00434068
C        8.42481400       4.62805774       2.21397735       0.00676695      -0.00152004      -0.00619167
C        9.81944909       6.33665339       1.45207857       0.00246198       0.00087631      -0.00890358
H        6.31869371       2.94991190       2.05369472       0.01134327      -0.00555377      -0.00366443
H        7.67286100       2.34521262       3.02779580       0.00965470      -0.00046378       0.00166045
H        5.45639232       1.95766519       4.16044527       0.00644553       0.00027622      -0.00316432
H        6.47277018       3.05438598       5.11413519       0.00410356       0.00277822      -0.00345622
H        5.14121055       3.69483717       4.13212658       0.00574806      -0.00019912      -0.00811749
H       10.73488401       5.78159888       1.65068590       0.00462925       0.00560376      -0.00586441
H        9.97325941       7.39303208       1.65438490      -0.00216876       0.00235587      -0.01311683
H        9.52061867       6.17948502       0.41576663       0.00381470      -0.00452653      -0.00835228
O        9.24595187       2.75900812      12.47765412      -0.00179774      -0.00793993      -0.00240576
O        7.11460299       3.05919091      12.36066014      -0.00190771      -0.01111233      -0.00647581
O        7.88702109       1.23667910      13.46939366      -0.00122598      -0.00559878       0.00208294
C       10.38371395       2.03354938      12.97549917      -0.00144488      -0.00573418      -0.00012654
C       11.61456727       2.69619044      12.41243906      -0.00184023      -0.00316730       0.00196828
C        8.06177259       2.24938181      12.84136023      -0.00174659      -0.00793499      -0.00206733
C        5.77956706       2.53459671      12.46753562      -0.00183186      -0.01198640      -0.00696275
H       10.35242104       2.06744391      14.06485269      -0.00330462      -0.00580370      -0.00025260
H       10.30195251       0.99110552      12.66219104       0.00111835      -0.00590324      -0.00038271
H       12.50527047       2.16055651      12.74635967      -0.00126352      -0.00150842       0.00311069
H       11.59015525       2.69905261      11.32412183      -0.00018694      -0.00261740       0.00197789
H       11.68815635       3.73248597      12.74143578      -0.00456150      -0.00321284       0.00273875
H        5.67541437       1.67708702      11.80047558      -0.00089624      -0.01164064      -0.00743765
H        5.13183738       3.34797344      12.15009210      -0.00193070      -0.01248980      -0.00773270
H        5.55711302       2.25506169      13.49535269      -0.00208735      -0.01139768      -0.00677580
O        9.40339115       8.03839060       6.68741892      -0.00005303       0.00585335      -0.00011013
O       10.17346752       6.46617655       5.41662416       0.00165625       0.00472640       0.00234646
O        8.91067472       5.89153071       7.20546390       0.00226206       0.00614816       0.00322652
C        8.67319496       8.45921834       7.87003844      -0.00061704       0.00689775      -0.00090681
C        8.75438845       9.95995491       7.92878149       0.00049287       0.00682712      -0.00176461
C        9.44061913       6.72254368       6.51206313       0.00132203       0.00552857       0.00199181
C       10.27095257       5.06754183       5.10014470       0.00105019       0.00454864       0.00289032
H        7.64803305       8.09584075       7.78453308      -0.00083846       0.00763157      -0.00161754
H        9.13951402       7.98760705       8.73549385      -0.00170124       0.00696695      -0.00023267
H        8.21751088      10.32939619       8.80266618       0.00047735       0.00782884      -0.00218423
H        9.79207964      10.28271953       8.00117565       0.00071895       0.00613460      -0.00157433
H        8.30073472      10.41392421       7.04756238       0.00130400       0.00655521      -0.00232764
H       10.80226618       4.53023997       5.88522140      -0.00059240       0.00426237       0.00380033
H       10.82373105       5.01906526       4.16926795       0.00215037       0.00389702       0.00362915
H        9.28445383       4.62658490       4.97966668       0.00077567       0.00538848       0.00156711
O        3.72330175       7.66965950       0.48765694      -0.00501189      -0.00791323      -0.00336584
O        1.71855407       8.43574586       0.21627889      -0.00048816       0.00222880      -0.00733673
O        3.41735606       9.89386735       0.43539513       0.00489143      -0.00609922       0.00706359
C        5.13880004       7.88811808       0.82788122      -0.00505212      -0.01550370       0.00140397
C        5.83514721       6.56583027       0.72166673      -0.01030926      -0.01791501      -0.00238120
C        2.99841809       8.73530274       0.37656296      -0.00016445      -0.00478941      -0.00053654
C        0.84296320       9.56128499       0.05762935       0.00540631       0.00681859      -0.00706649
H        5.53945140       8.63881264       0.14992816      -0.00011212      -0.01446277       0.00543311
H        5.15698134       8.28594311       1.84401658      -0.00592125      -0.01986717       0.00312144
H        6.88616430       6.71427630       0.97006077      -0.00996873      -0.02291396      -0.00085355
H        5.42588753       5.84406627       1.42703299      -0.01420069      -0.01870641      -0.00548153
H        5.77382117       6.16532891      -0.28903575      -0.01066552      -0.01411771      -0.00390124
H        0.86491524      10.19892829       0.96616629       0.00675869       0.00504379      -0.00601722
H       -0.15600077       9.14472511      -0.01180140       0.00371015       0.01184536      -0.01072879
H        1.08729096      10.10071348      -0.85740584       0.01038112       0.00616886      -0.00598933
O        4.44318150      10.84044247      11.63386830       0.00154553       0.00172436       0.01169831
O        5.44897129       8.97807032      11.22261705      -0.00428316       0.00066739       0.00251542
O        6.52780048      10.53092155      12.47467586       0.00046122      -0.00876456       0.00998288
C        4.42323577      12.17766056      12.17889499       0.00570750      -0.00212294       0.02061069
C        2.98682110      12.65093673      12.12608347       0.00889829       0.00593692       0.01467338
C        5.57516169      10.16534847      11.83168792      -0.00059587      -0.00301769       0.00857949
C        6.65559132       8.19478860      11.18426796      -0.00613469      -0.00199170      -0.00263077
H        4.83787169      12.16116055      13.19570563       0.00014395      -0.01174318       0.02323398
H        5.07826668      12.79946892      11.55211561       0.01231346      -0.00045419       0.02852720
H        2.92756006      13.71473729      12.35975642       0.01248479       0.00438459       0.02223327
H        2.56719220      12.49187167      11.13140655       0.01555947       0.01604345       0.01037872
H        2.30627786      12.08142466      12.79695300       0.00071524       0.00451362       0.00470931
H        7.40907588       8.70139830      10.58418417      -0.00430885       0.00104347       0.00220267
H        6.38630545       7.24889414      10.72740121      -0.00824596       0.00253645      -0.01048066
H        7.05356358       8.03926409      12.18445952      -0.00761563      -0.01102259      -0.00353011
O        3.22899456       9.77774100       3.28982878       0.00869222       0.01008677       0.01029938
O        4.72182151      11.27825585       2.83434248       0.00872220       0.00513037       0.01117641
O        4.58399694      10.50840514       4.96758354       0.00472088       0.00415980      -0.00171375
C        2.42098071       8.99330783       4.26924310       0.00605145       0.00760496       0.00526768
C        1.64146754       7.95371769       3.52074123       0.00883989       0.00666320       0.00231408
C        4.21152496      10.49831507       3.83706976       0.00883141       0.00591695       0.01432014
C        5.78968266      12.19234579       3.22978985       0.01050866       0.00206330       0.00926173
H        3.12800283       8.56318012       4.97006028       0.00417334       0.00737770       0.00647435
H        1.77820943       9.70671899       4.78149771       0.00326300       0.00608593       0.00439353
H        1.08161526       7.37128114       4.25400370       0.00673352       0.00555535       0.00055721
H        0.91526383       8.40126485       2.84174962       0.01100364       0.00622490       0.00019306
H        2.29076224       7.26942924       2.97669577       0.01145834       0.00718231       0.00525537
H        5.36932351      12.97172399       3.85912919       0.01310246       0.00451361       0.00839016
H        6.16234325      12.61301140       2.30380130       0.01347334       0.00147345       0.00888681
H        6.54642776      11.63054360       3.76604334       0.00918502       0.00084923       0.00981359
O        3.38031108       8.97623940       8.90229823      -0.00524271       0.00217895       0.00072790
O        2.64878494       7.29584687      10.00307518      -0.00919795      -0.00063633      -0.00567214
O        1.84771316       9.34527509      10.54833546      -0.00225681      -0.00059456       0.00420827
C        3.44763878      10.36803415       8.49695081      -0.00156349       0.00433695       0.00929393
C        4.88196681      10.69208583       8.16860286      -0.00088918       0.00326247       0.01138559
C        2.56122331       8.63088648       9.87670688      -0.00490618      -0.00026244      -0.00005972
C        1.75210015       6.71378333      10.94945169      -0.00876936      -0.00145964      -0.00549437
H        2.80527845      10.45968847       7.61707902      -0.00101352       0.01146523       0.00973654
H        3.05379141      10.98469968       9.30199528      -0.00037831       0.00034988       0.01293975
H        4.94409651      11.69879645       7.75451915       0.00158141       0.00648315       0.01975367
H        5.50030256      10.67874314       9.06364953      -0.00086309      -0.00644097       0.01117763
H        5.27379285       9.98506035       7.43862835      -0.00275508       0.00813890       0.00577509
H        1.91059451       7.12622609      11.94213612      -0.00252126      -0.00809346      -0.00375202
H        1.97997394       5.65170152      10.94941159      -0.01462346      -0.00259653      -0.01276210
H        0.71717427       6.87781635      10.64518872      -0.00898871       0.00616024      -0.00031837
O        9.39469547       6.66502566      11.05989241      -0.00354734      -0.00302660      -0.00357676
O        8.36163982       5.01861169      10.11635507      -0.00389910      -0.00475661      -0.00036392
O       10.62534554       4.96087567      10.21022676      -0.00361311      -0.00242031      -0.00491142
C       10.62292636       7.31112918      11.44935128      -0.00318572      -0.00268924      -0.00515911
C       10.29437135       8.73265225      11.82957952      -0.00359102      -0.00412047      -0.00037079
C        9.55496750       5.47703629      10.43216850      -0.00376159      -0.00315142      -0.00332049
C        8.35358799       3.74957725       9.41441470      -0.00294302      -0.00461572      -0.00001850
H       11.06077936       6.75153866      12.28187642      -0.00024936      -0.00451168      -0.00791365
H       11.31848558       7.28353540      10.61315403      -0.00533602       0.00039447      -0.00713038
H       11.20065110       9.23579831      12.17086904      -0.00324994      -0.00416178      -0.00110143
H        9.91794571       9.28575856      10.96941780      -0.00614234      -0.00192926       0.00214598
H        9.55022707       8.78232411      12.62481622      -0.00184861      -0.00708739       0.00141858
H        8.99859246       3.81004068       8.54356876      -0.01706314       0.00164862      -0.00986773
H        7.32460842       3.58736416       9.11757432      -0.00569975      -0.01495045       0.01607139
H        8.67410241       2.95649459      10.07902616       0.01495685      -0.00139910      -0.00515640
