190
Lattice="13.236515150815281 0.0 0.0 0.0 13.236515150815281 0.0 0.0 0.0 13.236515150815281" Properties=species:S:1:pos:R:3:forces:R:3 energy=-440777.28125 stress="0.0006418605335056782 -0.0006361445121001452 0.0003563219652278349 -0.0006361445121001452 -0.0008528829202987254 -0.0001965257979463786 0.0003563219652278349 -0.0001965257979463786 -0.0013165216660127044" pbc="T T T"
Sm      13.54747663      12.68802736      -0.76655072      -0.03210586      -0.00432897       0.00921971
P        8.86792505      11.71596612       6.87478042      -0.00246418       0.00810492      -0.00237352
F        8.29832788      13.03610858       7.58556087      -0.00003099       0.00990599      -0.00308159
F        8.01104101      10.78009496       7.90153832      -0.00118390       0.00286183      -0.00815475
F        7.59186474      11.71664049       5.86088384       0.00403488       0.00162673      -0.01262733
F       10.12636828      11.67225229       7.87171140      -0.01578230       0.01423605       0.01409537
F        9.41212525      10.35922664       6.14261841      -0.00839378       0.01007795      -0.01328534
F        9.69700264      12.61744883       5.82564691       0.01038212       0.00258687       0.00658959
P        8.26996499      12.13108149      11.34919119      -0.00191045      -0.00632045       0.00278562
F        9.00533898      10.90756040      10.75108920      -0.00423372      -0.00530726       0.00217085
F        9.08328299      12.78241074      12.48923332       0.01585114      -0.00983709      -0.00818574
F       12.17488407      13.77660797      13.42408954      -0.01163728       0.01856931       0.01237941
F        6.92238869      12.89473945      11.13917636      -0.00209564       0.00520700       0.02454108
F        7.51026964      11.15589078      12.34701485       0.00188545      -0.00325333       0.00967927
F        8.92348354      13.04200268      10.24540750      -0.01834273      -0.00840737      -0.00691628
P       12.78245384      11.91732070       4.02220316       0.00157163       0.00421287       0.00888616
F       13.62053181      10.64789451       3.77178233      -0.00012651       0.00234324       0.01093802
F       12.61782164      10.99660069      -1.24177073      -0.03806833      -0.00491811       0.01855639
F       12.35515667      12.67601652       2.73998366       0.01044005      -0.00430611      -0.00044709
F       12.54752299      12.36345984       5.47645565      -0.00070129      -0.00172871       0.00957185
F       14.13484301      12.80307596       4.02856862       0.00075410       0.00556455       0.01321013
F       11.44042199      11.11593607       4.02325558      -0.00064267       0.00878859       0.00447170
O       10.50653657       1.49958091       4.30369314       0.04272832      -0.01405084      -0.01157850
C       10.47713185       2.84136070       3.82041579       0.01027226      -0.02111930       0.00657144
C       11.29245662       3.75311262       4.72609116       0.00093666      -0.00359112      -0.00235456
C       11.00971660       2.77668702       2.40303075       0.00752205      -0.00789488       0.00157380
H        9.44201209       3.20506218       3.80555772       0.00778729      -0.03576072       0.00739355
H       11.25524900       4.79069229       4.39005863      -0.01799488      -0.00568920      -0.00773243
H       10.89837912       3.72050734       5.74287107       0.00175010      -0.00481575      -0.00255190
H       12.33527133       3.42550131       4.74548439       0.00551356       0.01487281      -0.00343459
H       11.05061961       3.76488515       1.94526165      -0.01228768       0.00090478       0.01050971
H       10.38172635       2.12313371       1.79687441       0.01487851      -0.01207113       0.00219624
H       12.01385016       2.34866669       2.39942258       0.01311295       0.01191101      -0.00922490
H        9.95528094       1.42049404       5.08938212       0.01753582      -0.02882347       0.00858893
O        6.65939500      12.37809034       3.21917742      -0.01581943      -0.00277346      -0.00156146
C        7.58583605      11.72307940       2.34291674      -0.01005262      -0.00183147       0.00223997
C        8.91152274      12.46457520       2.31316154      -0.01128453       0.00104904       0.00942466
C        7.77357260      10.26077823       2.72409766      -0.00821341      -0.00113434       0.00535446
H        7.10983912      11.77801595       1.36148839      -0.00389394      -0.00422665      -0.00004274
H        9.62538309      11.97330672       1.64948548      -0.00805275       0.00271446       0.01164733
H        8.77204213      13.49288795       1.97701712      -0.01150949       0.00104554       0.00884097
H        9.34688521      12.49626564       3.31178642      -0.01547494       0.00057078       0.01121992
H        8.43101843       9.75851046       2.01074535      -0.01264510      -0.00231143       0.00217032
H        6.81729743       9.73526593       2.73904963      -0.00825737      -0.00093857       0.01086514
H        8.23426687      10.18485921       3.71181019      -0.00307631      -0.00045606       0.00279230
H        7.02368110      12.31134482       4.11194642      -0.01971760       0.00234411      -0.00302902
O        2.98743644       0.63950037       2.67140427      -0.00181365      -0.00509936      -0.00353962
C        3.39530877       1.89033621       2.08505236       0.00317943      -0.00240025       0.00220244
C        2.18599714       2.61025058       1.51320909       0.00367069      -0.00428194      -0.00087461
C        4.18653761       2.69429926       3.09307512      -0.00531548      -0.00169104       0.00869471
H        4.05854651       1.58448981       1.27346521       0.00890714       0.00203963       0.00603446
H        2.47425526       3.55285345       1.04611046       0.00374524      -0.00838923      -0.00938404
H        1.68399372       2.00286841       0.75304529       0.00042196      -0.01239137       0.00828383
H        1.45738101       2.83302668       2.29698119       0.00456879       0.00285585      -0.00257143
H        4.56158903       3.61855475       2.64638702       0.00458198      -0.00550163       0.00921790
H        5.03631592       2.11003706       3.44420044      -0.01012868      -0.00242931       0.01879656
H        3.56681753       2.96789109       3.94969796      -0.01279944       0.00709715       0.00040624
H        2.30223622       0.78637969       3.33513119       0.00829500      -0.00721040       0.00111306
O        8.11014487       4.08399761       5.87270043       0.00387943       0.00429729      -0.00089341
C        7.02532112       4.49258287       5.03162972       0.00219885      -0.00042146      -0.00213623
C        5.73963209       4.59742427       5.83784177       0.00216132      -0.00166751      -0.00223833
C        7.35995096       5.78031881       4.29990029      -0.00040424      -0.00057065      -0.00377393
H        6.92321086       3.67904942       4.30765476       0.00389807      -0.00110319      -0.00052819
H        4.89559820       4.85122916       5.19368364       0.00211343      -0.00436492      -0.00293922
H        5.53143658       3.65194980       6.34044765       0.00345770      -0.00175655      -0.00172027
H        5.82810195       5.38145540       6.59391273       0.00010880      -0.00077078      -0.00310419
H        6.55196190       6.07673083       3.62921971      -0.00210281      -0.00243448      -0.00261872
H        8.27660887       5.66665736       3.71892715      -0.00147812      -0.00032777      -0.00541971
H        7.50872851       6.59432959       5.01548409       0.00029459       0.00037111      -0.00534171
H        8.42739552       4.86924734       6.33113787      -0.00501695       0.00094698       0.00414120
O       12.80072263       0.76421152      10.61685229      -0.03730237       0.00960577       0.01498242
C       13.01061728       1.68731127       9.47855879      -0.01358676      -0.00267227       0.01069981
C       11.87702748       1.49862024       8.49872607       0.00194639      -0.00822327      -0.00678262
C       13.11002045       3.08793052      10.03401325      -0.00858087       0.00415337      -0.00480390
H       13.96405595       1.36480088       9.05460517      -0.01039624      -0.01148655       0.02852061
H       12.01821319       2.15975341       7.64245258       0.01507095      -0.01153234      -0.00726952
H       11.80513259       0.47220554       8.14223452       0.01101512      -0.01022601      -0.00361604
H       10.93110622       1.76242755       8.97678968      -0.00656857      -0.00990379      -0.02354081
H       13.33576013       3.79820181       9.23947208       0.00094673      -0.00923993      -0.01433545
H       13.91217990       3.15529622      10.76736982      -0.01071508       0.00920261      -0.00226244
H       12.16300530       3.36343101      10.50128488      -0.00769624       0.02013274      -0.01317648
H       11.91312253       0.98317862      10.95209734      -0.03749412       0.02152340       0.00015192
O        9.98578844       2.54813199      11.46614424      -0.00731309      -0.03513715      -0.00401640
C        8.88575931       3.45925999      11.25876599       0.01603824      -0.01680817       0.01096168
C        8.00342322       2.93736079      10.13990230       0.01925328       0.00102255      -0.00076422
C        8.11426130       3.66291398      12.54955489       0.00786683      -0.00840234       0.00253671
H        9.31834652       4.41911708      10.94446874       0.03269291      -0.01889169       0.01663977
H        7.24933217       3.68571133       9.88244321       0.02738714       0.00989190      -0.00244316
H        8.58226023       2.71771581       9.24362793       0.02313429      -0.00212928       0.00459534
H        7.50007043       2.02012236      10.44287095       0.00805891       0.00561869      -0.00820959
H        7.27710041       4.34563725      12.39535135       0.01888192       0.00133868      -0.00022891
H        8.74860955       4.08410160      13.33344792       0.00617601      -0.01811578       0.00897662
H        7.71397832       2.70804598      12.90191957      -0.00665218      -0.00337134      -0.00083153
H       10.00926746       2.30794805      12.39723786       0.02947803       0.00932452       0.03268871
O       10.70662852       8.08870903       7.49415965      -0.00790793       0.01072317      -0.00228630
C        9.78646184       7.02284270       7.33097366      -0.00169277       0.00050735      -0.00104365
C       10.31408508       5.87033795       8.16688842       0.00104481       0.00177461      -0.00303155
C        8.37919414       7.43883859       7.73670847      -0.00179851      -0.00170240       0.00125673
H        9.77238888       6.70853867       6.27203272      -0.00080022       0.00247952      -0.00156111
H        9.68169857       4.98359534       8.08003226       0.00460744       0.00066981      -0.00467707
H       11.32478577       5.60707130       7.85416761       0.00287329       0.00512108      -0.00154319
H       10.34695074       6.16833605       9.21511674      -0.00009081      -0.00005321      -0.00197940
H        7.67967388       6.60224315       7.65169640      -0.00231324      -0.00187637       0.00243943
H        8.02004612       8.25646072       7.11016835      -0.00366873      -0.00155899       0.00315060
H        8.37812014       7.78372575       8.77099986       0.00302130      -0.00292227       0.00148605
H       10.33091153       8.88807171       7.10150040      -0.00188923      -0.00292614      -0.00662835
O        4.42142341       6.57300032       2.22306460       0.00411689      -0.00063264      -0.00419489
C        3.01571478       6.86221128       2.26326549       0.00547850       0.00203879       0.00070561
C        2.41235481       6.77234801       0.87245360       0.00062785       0.00735117       0.00273150
C        2.30366608       5.96345970       3.25974411       0.00623897       0.00234586       0.00142878
H        2.96960677       7.89636628       2.61361194       0.00932050       0.00175035       0.00327072
H        1.37724364       7.11547626       0.86438910       0.00331092       0.01511130       0.00592140
H        2.98663827       7.37149656       0.16702183       0.00290477       0.00376321       0.00159683
H        2.42106344       5.73639848       0.52032635      -0.00810658       0.00739227       0.00201844
H        1.29246663       6.31773830       3.45455435       0.00914888       0.00631591       0.00922010
H        2.84565853       5.93759087       4.20185241       0.01173970      -0.00373093      -0.00187153
H        2.23392702       4.94623085       2.87482252      -0.00129779       0.00408645      -0.00219317
H        4.52274049       5.69632827       1.83906592       0.00088151       0.00048020      -0.01272344
O        6.31309939      10.38355883       9.94203171       0.00998712       0.00795903       0.01131761
C        4.94499034      10.27091980      10.31480052       0.00977409       0.00799161      -0.00320917
C        4.11518281      11.41448513       9.74582803       0.01044974       0.00691122      -0.00590816
C        4.38163983       8.90789981       9.93537719       0.01124713       0.00787759      -0.00465752
H        4.96315135      10.34964174      11.40616403       0.00309975       0.00697267       0.00014627
H        3.06652326      11.32156415      10.04618021       0.01045720       0.00468192      -0.00819170
H        4.49770897      12.37732277      10.08364702       0.00917491       0.00732176      -0.00537797
H        4.14098063      11.40235494       8.65320694       0.01297246       0.00724469      -0.00676309
H        3.36688827       8.77731183      10.31986672       0.00923893       0.00979510      -0.00947678
H        5.01174877       8.11238818      10.33381059       0.00821263       0.00728667      -0.00112001
H        4.34419244       8.79938142       8.84902697       0.01698300       0.00942564      -0.00561334
H        6.40728889      10.48788398       8.98606793       0.01852924       0.00784156       0.00137125
O        2.26924033      12.53261355       0.63268170      -0.01658444      -0.00661963      -0.00488886
C        3.22229606      11.42879006       0.48996844      -0.01405486      -0.00478706      -0.00646999
C        3.73123425      10.97693192       1.84092798      -0.01205236      -0.01166111      -0.00940889
C        2.47990508      10.34723576      -0.25978321      -0.01694836       0.00025424      -0.01021027
H        4.05783099      11.80225109      -0.11447590      -0.01265708      -0.00624421      -0.00568247
H        4.32388237      10.06808504       1.71831669      -0.00655342      -0.00698185      -0.01898750
H        4.36954674      11.72278379       2.31450013      -0.01502649      -0.01283911      -0.00361885
H        2.89138502      10.75698727       2.50417684      -0.00973058      -0.02211076      -0.00985566
H        3.15078709       9.52580249      -0.50738285      -0.02280097      -0.00247017      -0.01695602
H        2.07287392      10.72138190      -1.20882424      -0.01733194       0.00638899      -0.00751087
H        1.64943670       9.95603713       0.33483120      -0.01738219       0.00438235      -0.00844806
H        2.50296541      13.04103080       1.47435383      -0.01385148       0.00061814      -0.01065403
O        3.01747744       3.61087346       9.94270150       0.00996953      -0.00335888      -0.01164919
C        3.48837215       3.77523672      11.28239441       0.00976992      -0.00068923      -0.01209903
C        4.18329416       2.51137220      11.76342784       0.01328996       0.00198257      -0.01089141
C        4.37042045       5.00530869      11.40466823       0.00655803       0.00176179      -0.01101926
H        2.57726912       3.93392689      11.86902123       0.00897041      -0.00293513      -0.01246697
H        4.60370577       2.64963674      12.76079893       0.00768814       0.00195432      -0.00861323
H        3.48670750       1.66806185      11.79492232       0.01750652      -0.00117230      -0.01616883
H        5.00519231       2.24908065      11.09321677       0.01805088       0.00713208      -0.00726293
H        4.68911248       5.16324337      12.43783410       0.00094904       0.00543540      -0.00978471
H        3.83432097       5.89344634      11.07113281       0.00642432      -0.00022869      -0.01584478
H        5.27040507       4.89133077      10.79408397       0.01015268       0.00276463      -0.00606966
H        3.79046216       3.56572154       9.36975156       0.01151893      -0.01008809      -0.01069199
O        2.55545973       9.76619451       5.88404855       0.00219762       0.00504899       0.01562607
C        3.82045296       9.34890191       5.34688856      -0.00334775       0.00269721       0.00692716
C        4.92411256      10.33014396       5.67967036      -0.00072443       0.00339997      -0.00517040
C        4.16895703       7.93925980       5.79364341      -0.00101903       0.00335789       0.00701246
H        3.65796212       9.34609160       4.26598939      -0.01352295      -0.00002696       0.00791728
H        5.86386882      10.03457701       5.21490439      -0.00383717       0.00264264      -0.01072974
H        4.68164551      11.33611609       5.34019895      -0.00400583       0.00197829      -0.00702751
H        5.09641967      10.35791818       6.75979054       0.00673466       0.00754596      -0.00640552
H        4.99861043       7.54520804       5.20499798      -0.00596653       0.00077207       0.00190178
H        3.31123712       7.27935302       5.67665978      -0.00272258       0.00407801       0.01525996
H        4.46910444       7.92794008       6.84454986       0.00676664       0.00585228       0.00488062
H        2.63400708       9.76870763       6.84259067       0.01668980       0.02210732       0.01720680
O        9.58409970       7.47345632      13.59929264      -0.00435695       0.00770783       0.00448027
C        9.34543896       8.23552114      12.39149181      -0.00464668       0.00320520       0.00251940
C       10.55389438       8.14854897      11.48068930      -0.00515467       0.00146527       0.00244489
C        8.05626805       7.78227698      11.73428799      -0.00426245       0.00108236       0.00316831
H        9.22249693       9.25828858      12.74841950      -0.00542398       0.00408936       0.00067410
H       10.38809958       8.67525666      10.54063199      -0.00437558       0.00123176       0.00238642
H       11.43430472       8.57353563      11.96301415      -0.00482786       0.00079986       0.00201263
H       10.76025435       7.10075205      11.23581303      -0.00665614       0.00091346       0.00299649
H        7.77474601       8.46561217      10.93209223      -0.00504225      -0.00001487       0.00254127
H        7.24815480       7.76152028      12.46697385      -0.00418924       0.00030296       0.00307666
H        8.17351889       6.77859981      11.31283057      -0.00263927       0.00071968       0.00406402
H        9.93819863       6.62100777      13.32402332      -0.00899256       0.00330493       0.00547399
O       11.75022424       8.72806361       1.72672595       0.00465310       0.00485998       0.00550759
C       12.24912124       7.72740140       2.60727192      -0.00114267       0.00181085       0.00398082
C       11.62848148       7.82148767       3.99405314      -0.00991765      -0.00406781       0.00019658
C       12.05304599       6.33504157       2.02115935       0.00733447       0.00357014      -0.00279450
H       13.32185293       7.93923937       2.69418414      -0.00159365       0.00334412       0.01237785
H       12.08805551       7.10358561       4.67757416      -0.01245578      -0.00538806       0.00039519
H       11.75385974       8.81418103       4.41504420      -0.01618638      -0.00464965       0.00365052
H       10.55718973       7.61206620       3.94239632      -0.00900508      -0.00672518      -0.00719224
H       12.58520002       5.57873248       2.59904405       0.00801469       0.00366908      -0.00363283
H       12.39642875       6.28821540       0.98589417       0.01245108       0.00973967      -0.00128275
H       10.99150545       6.07721543       2.05071073       0.00823712      -0.00122914      -0.00897271
H       10.93594014       8.37921189       1.32333405       0.00216480       0.00842661       0.00359252
