199
Lattice="12.574603786260587 0.0 0.0 0.0 12.574603786260587 0.0 0.0 0.0 12.574603786260587" Properties=species:S:1:pos:R:3:forces:R:3 energy=-470954.03125 stress="0.002132667228579521 0.0003738168306881562 0.0005425978743005544 0.0003738168306881562 0.0031813625246286392 0.000790928810602054 0.0005425978743005544 0.000790928810602054 0.0008372468291781843" pbc="T T T"
Sm      12.84372860      12.17962659       0.83169446      -0.00292253      -0.00231652      -0.00674162
Cl       9.23494074      13.29398792       5.10877314       0.00096327       0.00101316       0.00178379
O        8.71193099      12.23629452       6.16170466       0.00373486      -0.00057405       0.00142777
O        9.13375669      12.66492862       3.67531879      -0.00185622       0.00208229       0.00119698
Cl       1.56110917      10.68409025       6.05996048       0.01008981       0.00388646      -0.00471698
O        0.26875592      11.38638991       5.44486633       0.00910258       0.00140104      -0.00598532
O        2.46100174      11.77369096       6.72368410       0.01062751       0.00669575      -0.00990933
Cl       5.11697858      12.24753473       9.03597136       0.00810397       0.00500536       0.01245302
O        5.37432637      13.78770035       8.92779742       0.00136918       0.00482941      -0.00078337
O        6.46714437      11.52826551       9.44905112       0.01374745       0.01080728       0.00579616
O       11.08962219       6.51471137       6.00032843      -0.01439461       0.00692375       0.00362810
H       10.13312868       6.46431863       5.84796671      -0.01477046       0.01744222       0.00632191
H       11.21065151       7.10130010       6.77088139      -0.00805055       0.00475232       0.00510839
O        1.93639499       0.43676519       2.24928833      -0.00136760      -0.00186091      -0.00920570
H        2.45026179       1.26914024       2.06772442      -0.00144483      -0.00148418      -0.00997600
H        2.34974392       0.10541211       3.07245035       0.00186317      -0.00247649      -0.01080772
O        4.62781588       7.10750639       1.34327979       0.00415497      -0.00138816      -0.00317185
H        5.04344901       6.56441932       0.63371694       0.00496047      -0.00548215      -0.00014964
H        3.69133435       7.25930974       1.04423599       0.00420476      -0.00178159      -0.00405036
O        4.44794131      11.71080459       0.60692192      -0.00066046      -0.00073717      -0.00684270
H        5.12369585      12.26895112       0.15591719       0.00104564       0.00081274      -0.00214893
H        4.88848245      10.84158101       0.70132154      -0.00000364      -0.00149393      -0.00935129
O        6.04720426       2.55150919       2.50285609      -0.00448838      -0.00489871      -0.00159812
H        6.44837057       2.88994023       3.32576426      -0.00858106      -0.00261730      -0.00337298
H        6.26893515       1.59237718       2.48422217      -0.00468750      -0.00691010       0.00185371
O        7.56045824       8.09744040       3.24160768      -0.00394697      -0.00716811       0.00255014
H        7.82080936       7.98283747       4.18595655      -0.00051407      -0.00735129       0.00249290
H        6.87095661       8.79020144       3.26873174      -0.00193096      -0.00608388       0.00376481
O        5.53427645       1.63149868       6.38971625      -0.01402283      -0.01353996      -0.00427511
H        4.64964263       1.94608561       6.17033209      -0.01658253      -0.02152412      -0.00402606
H        5.53203952       1.54191712       7.39432136      -0.01038136      -0.00599599      -0.00338685
O        8.57462465       4.71187790      10.87575303       0.01412932       0.00418159      -0.00795085
H        8.58674567       4.31699402      11.77461634       0.02847604       0.01782377      -0.00414356
H        9.43413399       4.50975157      10.44381705       0.01945865       0.01770361      -0.00971783
O        8.34060754       7.30709837      11.27741615      -0.00164451       0.02050220       0.01206120
H        8.63972449       7.45394617      12.20700903      -0.00863990       0.02106901       0.01548696
H        8.49450429       6.33860099      11.09444656       0.00512133       0.02478327       0.00647593
O        2.41201025      10.14300749       9.56364945       0.00687328       0.00374401      -0.00541298
H        2.13041896       9.20078871       9.57691203       0.00354544       0.00437396      -0.00388316
H        3.06832727      10.17284957       8.84749304       0.00904814      -0.00072436      -0.00406060
O       11.53387185       3.74263353       5.06536763      -0.00351961       0.00473110       0.00112092
H       11.76382808       4.57691483       5.50402819      -0.00826932       0.00701422      -0.00126224
H       10.59399204       3.89401529       4.86218965      -0.00490870      -0.00233826       0.00302988
O        7.01195610       3.44024229       5.01266774      -0.01818743      -0.00574760       0.00091192
H        7.95604625       3.49609033       5.20126588      -0.01684073      -0.01217803       0.00133185
H        6.63097824       2.76857939       5.62234385      -0.02088397      -0.00704753      -0.00283633
O        4.01043402       6.91699008       3.93867494      -0.00521699      -0.01991796      -0.00509720
H        4.38644287       6.95320748       3.03103604      -0.00227578      -0.00969619      -0.00360142
H        4.72495413       6.60713860       4.53945434      -0.00343749      -0.01135182      -0.00302106
O       10.72597548       0.59257825       1.52488354      -0.00148600      -0.00453526      -0.00016041
H       10.28543405       1.34730447       1.11662158      -0.00305134      -0.00524884      -0.00215709
H       10.22596899       0.39937200       2.35305936      -0.00084630      -0.00283430       0.00051649
O       11.82324015      12.09707540      11.27108981      -0.00331633      -0.00098430      -0.00538802
H       10.85351181      11.91737672      11.28992371      -0.00389647       0.00464660      -0.00534254
H       12.12180963      11.72128027      10.40534738      -0.00234782      -0.00077805      -0.00384241
O        0.08209887       3.70223135       2.54705213      -0.00367440      -0.00115170      -0.00164166
H        0.93185689       4.15361738       2.73483574      -0.00152181      -0.00406688      -0.00166457
H       -0.29375420       3.56320007       3.44760592      -0.00333100      -0.00017509      -0.00143531
O        3.51327609       4.72659432       6.91211556       0.00280314       0.00393865       0.00778508
H        3.47040780       4.35204452       7.80947433       0.00568801      -0.00600082       0.00386479
H        3.15285150       4.00876415       6.35374483       0.00962936       0.00649904       0.00031672
O        6.51378839      13.02524013      11.93434625       0.00658390      -0.00350310       0.00489935
H        6.55263110      12.67628568      11.03181270       0.00734615      -0.00664657       0.00602271
H        6.35408349      13.98731900      11.85402681       0.00188703      -0.00541727       0.00229780
O       11.82811559       7.71456796       3.70124125      -0.00505392       0.00054109       0.00227164
H       11.59912919       7.34912784       4.59207794      -0.00780144       0.00438901       0.00247970
H       11.16358568       8.40304376       3.50896749      -0.00355385       0.00221952      -0.00100342
O        0.37227028       1.91848092       0.42703440      -0.00897895      -0.00070244      -0.00502157
H        0.21763997       2.48650939       1.21270245      -0.00914324      -0.00090516      -0.00498497
H        1.10553774       2.39378381      -0.07786312      -0.01015712      -0.00069841      -0.00596944
O        4.25611685       9.41156619       7.26170706       0.00353618       0.00845723       0.01123469
H        4.77835384      10.11898768       6.85196294       0.00797080       0.00565633       0.01033378
H        4.89707081       8.72302078       7.53158368      -0.00041996       0.00477727       0.01021066
O       10.70461877       4.54350981       9.27740871       0.00404587       0.00044010      -0.01070693
H       10.59504562       3.81669763       8.61010394       0.00459999      -0.00238463      -0.00863866
H       11.61574967       4.49021496       9.57582757       0.00199074      -0.00063126      -0.00566644
O        2.32170533       3.25504040      11.97000904      -0.00829986       0.00101289      -0.00578848
H        3.01884016       3.09410372      12.63006079      -0.01019888      -0.00124096      -0.00375901
H        2.71812573       3.11939165      11.08770540      -0.00516821       0.00463942      -0.00448924
O        2.31015871       7.29714036       6.71444901       0.01059142       0.00559632       0.00249547
H        2.75248631       6.42738522       6.69998933       0.01012450       0.00544979       0.00520643
H        3.00788532       7.96618066       6.62899668       0.01087086       0.00599942       0.00474068
O        2.11389905      11.49691797      12.17220969      -0.00091136       0.00207907      -0.00868377
H        2.22566889      11.03462455      11.32137276       0.00071146       0.00322586      -0.00977954
H        3.06365055      11.59329696      12.55610648      -0.00194304       0.00086531      -0.00791117
O        3.38115741       2.67159690       1.91209217      -0.00272712      -0.00307358      -0.01198905
H        3.07726346       3.45272661       2.41850733      -0.00328849      -0.00580664      -0.00701608
H        4.33014282       2.58153298       2.14939585      -0.00274542      -0.00420555      -0.01149832
O        5.56301905      10.06345463       3.65841186       0.00432402       0.01071254       0.00075537
H        5.66338050      10.49712800       4.53601480       0.00172829       0.00278715       0.00506435
H        4.72445068       9.58798180       3.68494835      -0.00979003       0.03744960      -0.01620451
O        5.80593027       5.84723459       5.69911264       0.00100391       0.00298871       0.00211233
H        6.28482003       5.03875094       5.41805461      -0.00521851      -0.00005846       0.00111308
H        5.12784819       5.50124235       6.30975396       0.00388522       0.00686248       0.00775551
O        6.01188221      11.49965023       5.91003070       0.00229082      -0.01120530       0.01279980
H        6.98249317      11.58077604       6.01041621       0.00262538      -0.01044488       0.01260660
H        5.71466735      12.42358799       6.05106091       0.00079266      -0.01113232       0.00766519
O       -0.19593528      11.26895503       2.88531459       0.00450438      -0.00778085      -0.00603984
H       -1.04420164      10.76271450       2.96055681       0.00237818      -0.00380141      -0.00349087
H        0.13617047      11.36227508       3.82041153       0.00536667      -0.00505549      -0.00660350
O        8.24589767      10.70259171       1.08699919      -0.00457782       0.00154253       0.01042524
H        7.49770152      10.07169116       0.97796451      -0.00217052       0.00142843       0.00573257
H        7.77690413      11.51225701       1.37111793      -0.00512232      -0.00055281       0.01206540
O        9.44912655       7.83255782       1.09661822       0.00169413      -0.00080748       0.00710437
H        9.96368145       7.03866927       1.32307467      -0.00405507       0.00015020       0.00246316
H        8.84401234       7.97595972       1.85020854       0.00054600       0.00056892       0.00869043
O       10.42360268       8.94001691      10.44820026      -0.01864761       0.01549860      -0.00092027
H        9.94806659       9.78294816      10.61593873      -0.01447275       0.01651054       0.00111190
H        9.76743778       8.25577922      10.70204869      -0.01948448       0.01742508       0.00340350
O        2.41977723       4.71619685       3.47870877      -0.00103605      -0.01242983      -0.00530633
H        2.93071490       5.52929545       3.69654561       0.00204557      -0.01317707      -0.00756288
H        2.37639188       4.15576802       4.27776907       0.00185076      -0.01215973      -0.00433577
O        1.54453141       7.53411035       9.23458916      -0.00176358       0.00678866       0.00006527
H        1.74030913       7.45571932       8.25881544       0.00708209       0.00381950       0.00215174
H        0.58407062       7.54375733       9.29627767      -0.00248299       0.01513128      -0.01207239
O        5.63731473       7.37873967       8.44653864      -0.00247642       0.00047056       0.00460946
H        6.40654747       6.77344797       8.32654697      -0.00675475      -0.00316663       0.00134233
H        5.88873086       7.96923002       9.19221802       0.00404276       0.00369600       0.00112940
O       10.31687517       2.58206878       7.50421857       0.00532739      -0.00723745       0.00419718
H       11.10340663       2.48208859       6.94595690       0.00526422      -0.00420019       0.00427394
H       10.25036213       1.74181678       7.99960270       0.00660195      -0.00723707       0.00378865
O        5.69567824       5.88024611      11.76939974       0.01335213      -0.01155736       0.01258212
H        4.98300988       5.98267643      11.09632238       0.01576649      -0.00682729       0.01164000
H        6.44173776       6.42750996      11.48165789       0.01050639      -0.00769208       0.01829239
O        0.39020012       1.34201716       6.68022900       0.00443233       0.00101262      -0.00532733
H        0.93262453       0.97175738       7.38790279       0.00082802       0.00278690      -0.00150117
H        0.22082161       0.55048094       6.13290409       0.00805119      -0.00010797      -0.00493400
O        9.24090115       5.04037123       4.21176700      -0.01334606      -0.00753476       0.00248156
H        8.36273432       5.09200584       3.79078677      -0.01139432      -0.01349893      -0.00330084
H        9.85351661       5.28261616       3.48823563      -0.01081119      -0.00604049       0.00641091
O        3.50245261       3.23311587       9.45030158       0.00685805       0.01442540      -0.00156791
H        4.22389866       2.57771116       9.45205985       0.00695171       0.01389973       0.00133906
H        3.87070439       4.09431694       9.71959796       0.00436077       0.01295891       0.00641406
O        2.37418055       2.73743995       5.38202626       0.01137890      -0.00359765       0.00060080
H        2.78636809       1.97455806       4.92889303       0.00518608      -0.00281801      -0.00665975
H        1.58258985       2.34863121       5.82446187       0.01000073      -0.00162132      -0.00027752
O        7.03124788       5.52557789       2.59760953      -0.00125521      -0.00212349      -0.01048094
H        6.10207925       5.28835931       2.66242006      -0.01055220      -0.00640858      -0.02163597
H        7.07837848       6.50030186       2.74693155      -0.00538269      -0.01311894      -0.00585230
O       10.99290810       5.74651111       2.12404624      -0.00715715      -0.00231096       0.00689243
H       11.40190557       6.46502590       2.67428941      -0.00778164      -0.00145695       0.00628546
H       11.64396433       5.00258361       2.13932996      -0.00391358      -0.00075115       0.00460611
O       11.64404581       9.97785970       0.49936352      -0.00589380      -0.00009745      -0.00428918
H       11.06854386       9.43363884       1.05993069      -0.00000642      -0.00235023      -0.00297796
H       11.45321043       9.65230329      -0.39631549      -0.01404208       0.00349775      -0.00612137
O        2.09858962       7.66014094       0.75599521       0.00412938       0.00468568       0.00280294
H        1.51985499       6.90049359       0.65093007      -0.00254033       0.01016826      -0.00363769
H        1.89145335       8.03818608       1.64700810       0.00483008       0.00048771       0.00451548
O        8.87323771       4.04305284       0.94069058       0.01087219      -0.00659576      -0.00646979
H        8.11741346       4.38689516       1.44634835       0.00183311      -0.01499885      -0.01377765
H        9.59947261       4.62070412       1.21292475       0.00309593      -0.00513736       0.00919131
O       11.35232846       8.62237023       7.91740293      -0.00317864       0.00560530       0.00908192
H       10.85403458       8.67134109       8.76299945      -0.00737401       0.00995227       0.00615338
H       10.86861490       9.14493264       7.23976472       0.00299422       0.00631228       0.00503605
O        5.82052884       3.09002948      -0.26313253      -0.00151544      -0.01301051       0.00098959
H        5.92439450       4.01565867      -0.53868777       0.00416553      -0.01200946       0.00218733
H        6.01163377       3.07722122       0.68868845      -0.00499251      -0.01408879       0.00039014
O       10.15834995       9.85831100       3.16824233      -0.00255358       0.00372651       0.00080873
H        9.37468827      10.10741588       2.64195187      -0.00193369       0.00574464      -0.00245167
H        9.98144760      10.04223492       4.11485061      -0.00162369       0.00543296      -0.00306262
O        8.02492712       7.64241410       5.92864631       0.00500602      -0.00899848       0.00650966
H        7.24520755       7.07183776       6.06159750       0.00065381      -0.00449626       0.00037600
H        7.92512541       8.38612457       6.54830637       0.00335363      -0.00630848       0.00370942
O        6.72121449      12.51489377       2.57620635      -0.00585920      -0.00274444       0.01142165
H        7.52568343      12.50005745       3.14716706      -0.00309858       0.00173199       0.00730021
H        6.17351959      11.74671490       2.80461993       0.00080355      -0.00775643       0.01295997
O        3.37429532      12.86980258       4.56141687       0.00646839       0.00004436      -0.01425813
H        3.12819498      12.42238281       5.42963478       0.00957286       0.00144371      -0.01207311
H        4.26628852      12.58737037       4.33607641       0.00969113       0.01126483      -0.01204157
O        3.83899545       5.93742885       9.79547029       0.00673136       0.01089820       0.02327377
H        2.96800225       6.37195362       9.80612862       0.00526942       0.00731190       0.02505756
H        4.40328957       6.46612907       9.17929480       0.00166108       0.00884102       0.01702666
O       12.53209007      11.08676562       8.88028299       0.00472073      -0.00057068      -0.00130403
H       12.17414110      10.23055903       8.57553572       0.00486029      -0.00120851       0.00231665
H       13.49215568      10.89624097       8.99288990       0.00684574       0.00086234      -0.00300058
O       10.43016854      10.19238023       5.87820939       0.00762670       0.00251202       0.00129064
H        9.75919343      10.89179887       6.06735581       0.00793702       0.00342419       0.00037694
H       11.29236396      10.66149879       5.79939313       0.00791685       0.00176586      -0.00147170
O        9.23461517      11.25896994      11.20402325      -0.03040403       0.02756596       0.00152012
H        8.76422398      11.13212874      12.06812907       0.00108926       0.00840301       0.00266259
H        8.70513773      11.83473752      10.63936539       0.00032654      -0.00893819       0.02613889
O        7.65459343       5.56886851       8.40175003      -0.01279864      -0.01439838      -0.00863244
H        8.55414186       5.81526082       8.16283531      -0.01741163      -0.01497844      -0.03864706
H        7.75022465       5.11140898       9.25584305       0.01138102       0.00429756      -0.00428333
O        7.95825735       9.84417280       7.81734223       0.00273323       0.00431822      -0.00343971
H        8.78818313       9.98816538       8.28213718       0.00214516       0.00083681      -0.00329809
H        7.34953157      10.49781216       8.22190515       0.00382095       0.00456923      -0.00035719
O        1.84739995       8.60689884       3.27135252       0.00403240      -0.00660332       0.00775415
H        2.45614610       8.03724348       3.76816030       0.00003906      -0.01117002       0.00581442
H        0.95064273       8.34479101       3.55573304       0.00131662      -0.00289174       0.00599610
O        6.31261235       9.01065501      10.53259967      -0.00094873       0.00212938      -0.00153440
H        6.39644963       9.92106768      10.17642935       0.01481865      -0.00004575       0.00087823
H        7.20317478       8.62931931      10.64801160      -0.00526573      -0.00832083       0.01194663
O       10.00346509      12.57734948       8.59478665       0.00985348      -0.00708318      -0.00201177
H       10.89495319      12.20821660       8.50706390       0.00904042      -0.00731642      -0.00544984
H        9.54692413      12.39397556       7.75098875       0.00657661      -0.00551770      -0.00167337
O        5.92687096       9.36462343       0.63366823      -0.00011296       0.00013624      -0.00308640
H        5.47394209       8.56963543       0.99911970       0.00194855      -0.00220912      -0.00572653
H        5.96020992       9.20630741      -0.33445596      -0.00069222       0.00453940      -0.00375541
