196
Lattice="13.277746161050892 0.0 0.0 0.0 13.277746161050892 0.0 0.0 0.0 13.277746161050892" Properties=species:S:1:pos:R:3:forces:R:3 energy=-202708.140625 stress="-0.0009641937795095146 0.0006914763653185219 0.00022667991288471967 0.0006914763653185219 -0.0005119488341733813 0.0005333128792699426 0.00022667991288471967 0.0005333128792699426 0.0003397483960725367" pbc="T T T"
Sr       9.90346579      13.88396891      -1.35403691      -0.01508346       0.00482760      -0.02482469
S       10.48543589      15.24434525       7.30958935      -0.01255178       0.02424073       0.06473204
N        8.66049215      13.24127798       6.54326196       0.03992069       0.04969144       0.03229427
C        9.42197493      14.08107302       6.86771411      -0.04899484      -0.02691969       0.03256524
S        6.57157972      10.81085484       9.70272230      -0.00452083      -0.01877004      -0.00577173
N        8.32392085      12.91196618      10.28317883      -0.03144121       0.00062406       0.01291328
C        7.58542181      12.02635153      10.01306939      -0.02228594      -0.01127763       0.00555378
O        6.72232525       5.61220121      11.69596673      -0.00620824      -0.00011390       0.01120520
C        7.27911853       6.27002742      12.84591898      -0.00197351      -0.00249073       0.01062253
C        7.81026835       7.64154517      12.49604931      -0.00123581      -0.00319141       0.00948162
H        6.52590473       6.31857712      13.63509844       0.00037616      -0.00202995       0.01287192
H        8.06938995       5.61064201      13.20096842      -0.00168487      -0.00394888       0.00774873
H        8.19864338       8.13765743      13.38764784      -0.00333335      -0.00082710       0.00897191
H        8.61550688       7.57681253      11.76206186      -0.00009111      -0.00475986       0.01094075
H        7.02478629       8.28008138      12.08126019      -0.00045644      -0.00440466       0.00626772
H        6.13578578       6.22905949      11.24552863      -0.00055814       0.00488716       0.01057491
O        6.25356860       7.74114283       8.03143573       0.00209775       0.00859064       0.00960167
C        6.87354208       6.47957239       8.22139496      -0.00367457       0.00562415       0.00641906
C        8.34647824       6.46325980       7.86618225      -0.00523114      -0.00117220       0.00073712
H        6.75662463       6.13389572       9.25479281      -0.00126727       0.00556482       0.00672358
H        6.32027989       5.78624156       7.58760117      -0.00973687       0.00848907       0.00850701
H        8.76191047       5.46326412       8.01630716      -0.00962680      -0.00340979      -0.00289438
H        8.49508384       6.75031013       6.82374402      -0.00736251       0.00166212       0.00134428
H        8.89399494       7.15945634       8.50915653       0.00037633      -0.00500059      -0.00003512
H        6.74775582       8.41866897       8.51166322       0.00938718       0.00643315       0.00541019
O        1.41620747       4.13214380       9.91859456      -0.00291863       0.00492120       0.00154436
C        2.81438293       3.83240140       9.76565615      -0.00305189       0.00344309       0.00003019
C        3.65936850       5.08386575       9.67882204      -0.00259647       0.00278050      -0.00312726
H        3.14015707       3.19308022      10.59549479      -0.00275350       0.00457190       0.00066683
H        2.88561429       3.24893186       8.84818023      -0.00512010       0.00183928       0.00114781
H        4.71265921       4.82061984       9.58148073      -0.00300731       0.00246533      -0.00514284
H        3.38251913       5.68758800       8.81462024      -0.00408798       0.00163165      -0.00330964
H        3.55135490       5.68623638      10.58661860      -0.00037413       0.00403718      -0.00382227
H        1.33787183       4.79520244      10.61134855      -0.00133558       0.00509501       0.00186238
O        1.31130502       5.00810436       7.24934078      -0.00471820       0.00805830       0.00421965
C        0.63130517       4.31014492       6.20295836      -0.00790008       0.00666451       0.00778712
C        0.79860323       2.80974960       6.31476612       0.00227731       0.00732833       0.00230505
H       -0.42952890       4.58031973       6.20385726      -0.00956440      -0.00028132       0.01691877
H        1.07139005       4.67830330       5.27228580      -0.01747224       0.01205565       0.00552532
H        0.26300834       2.31694189       5.50084415       0.00154854       0.00676031       0.00316849
H        1.84778193       2.51347350       6.27064071       0.00388932       0.01421648      -0.00429441
H        0.36233584       2.44092201       7.24562343       0.00993761       0.00192270       0.00365630
H        0.97021122       4.70686156       8.10618114       0.00132519       0.00723763       0.00646300
O       10.70125418      11.21289050       9.19307652       0.00443649      -0.00014691       0.00409874
C       11.77843654      11.96560701       8.58686198       0.00267250       0.00354702       0.00628382
C       11.92066471      11.65758440       7.11654611       0.00345686       0.00946143       0.00522518
H       11.60092815      13.03824820       8.72188988       0.00044765       0.00345552       0.00961474
H       12.67081550      11.67773183       9.14466754       0.00356290       0.00460149       0.00527142
H       12.73692559      12.24871263       6.69940645       0.00387217       0.01102103       0.00777093
H       12.11583304      10.59849573       6.96281718       0.00372371       0.00999847       0.00142303
H       11.00463062      11.91951276       6.58649496       0.00349781       0.01157738       0.00601716
H        9.87567960      11.49774570       8.77604955       0.00540024      -0.01573908      -0.00773332
O        6.01688924       8.79082864       3.92558026       0.01089042       0.00047843       0.00192036
C        5.95569954       9.60876069       5.13201002       0.00668156       0.00393520      -0.00014763
C        7.32564308       9.86800671       5.69019742       0.00478280       0.00943425       0.00174159
H        5.45804364      10.54776363       4.87729392       0.00507902       0.00174516      -0.00496867
H        5.34244204       9.05985187       5.84632076       0.00615665       0.00538781       0.00043026
H        7.26228083      10.48886931       6.58392031       0.00025320       0.01168372      -0.00015737
H        7.81373779       8.93421125       5.96678487       0.00761928       0.01211563       0.00630658
H        7.95310209      10.40675199       4.97449576       0.00435806       0.00926184       0.00140725
H        6.92984286       8.80826030       3.62093112       0.01422745      -0.01068527       0.01205807
O        5.08784623       6.08070691       3.32449915       0.00505328       0.00604087      -0.00405356
C        4.04015637       5.51040200       4.10584058       0.00370374       0.00449893      -0.00702518
C        4.36852766       5.45212126       5.58081877       0.00041151       0.00368112      -0.00629455
H        3.10321841       6.06084538       3.94627534       0.00365257       0.00391114      -0.00881784
H        3.88825413       4.50236276       3.71128914       0.00560637       0.00472301      -0.00808693
H        3.54384535       5.01092424       6.14355767       0.00059794      -0.00000425      -0.00886992
H        5.26004400       4.85007095       5.74020217       0.00195701       0.00636112      -0.00497892
H        4.52785899       6.45175431       5.98790187      -0.00382235       0.00359249      -0.00450593
H        5.31326891       6.94887240       3.69257419       0.00343452       0.00591751      -0.00281292
O        3.64326580      13.77420018       6.00698630       0.01077133       0.00367010       0.00422451
C        2.98308049      12.52296301       6.05547874       0.00432539       0.00736517       0.00147262
C        1.85017791      12.46522553       5.04528368       0.00804156       0.01298445      -0.00314054
H        3.69428870      11.71048245       5.86935753       0.00074828       0.00337189       0.00473534
H        2.57728223      12.36818793       7.06449898      -0.00059721       0.00980147      -0.00022501
H        1.30291043      11.52311971       5.12923010       0.00272973       0.01581867      -0.00560398
H        1.14857669      13.28110915       5.22141895       0.01184726       0.01687539      -0.00584219
H        2.23527736      12.55919871       4.02851201       0.01253001       0.01125810      -0.00146455
H        4.58109032      13.61371185       5.79193547       0.01015063      -0.00051889       0.00268438
O       10.38310580       8.87680062       6.62048623       0.01565816      -0.01456860       0.00781858
C       10.65337891       8.41603506       5.30472407       0.01066661      -0.00770774       0.00427055
C       11.62652639       7.25773153       5.29330323       0.00543836      -0.01187283      -0.00312075
H        9.71967871       8.13148794       4.79628889       0.00810039      -0.00174063       0.00556706
H       11.05565508       9.28117820       4.77070649       0.01248397      -0.00704369       0.00714740
H       11.87389380       6.95716267       4.27238738       0.00160974      -0.00947586      -0.00468506
H       12.54340113       7.52607064       5.81842867       0.00815339      -0.01807097      -0.00448982
H       11.19792381       6.39582464       5.80804126       0.00239374      -0.01155528      -0.00516734
H       10.18365083       8.10724952       7.16181871       0.03802593      -0.01934195       0.00862052
O       11.87453032       6.01328694       8.53529601      -0.01926386      -0.00195816       0.00771084
C       12.38785170       6.71877994       9.66217235      -0.00498053       0.00544897      -0.00297748
C       11.54387035       7.91472957      10.05052835      -0.00281346       0.00498927       0.00216565
H       12.49582553       6.04308997      10.51739494       0.00909401       0.01045603      -0.00083798
H       13.39259575       7.03377101       9.37398378      -0.01010853       0.00654753      -0.01865710
H       11.96387330       8.41102941      10.92889851       0.00569604       0.00870456      -0.00404289
H       11.48029675       8.64016605       9.23946487      -0.01243943       0.00247036       0.00081015
H       10.52936660       7.59859001      10.30578177       0.00043167       0.00430433       0.01386762
H       11.05442297       5.57923778       8.79346341      -0.00873497      -0.01134468       0.02387556
O        8.46546339       3.84155591       3.45651802       0.01768717      -0.01534849       0.00447878
C        8.10582427       4.43933024       4.70708354       0.00319329      -0.00533545      -0.00460035
C        7.41465942       3.44724643       5.61498014      -0.00188822      -0.00058585      -0.00388330
H        9.00529640       4.83104742       5.19933085      -0.00256753       0.00169437       0.00042543
H        7.45260504       5.27665368       4.45550882       0.00322148      -0.00954437      -0.01765764
H        7.18937965       3.90012381       6.58176205      -0.00803063       0.00394794      -0.00753401
H        6.48630049       3.08574991       5.17103306       0.00113776      -0.00337110      -0.00797780
H        8.06532983       2.59553267       5.81350569      -0.00331961      -0.00009939       0.00397491
H        8.86401246       2.99565308       3.68125781       0.01160687      -0.01486082       0.01680756
O        2.49108202       7.50517040       7.08198971      -0.00646509       0.00685811      -0.01156539
C        2.41742106       8.43619074       8.14578380      -0.00376818      -0.00201380      -0.00329214
C        1.24356123       9.38563419       7.99806371       0.00057751       0.00403839       0.00235395
H        2.37251665       7.92349528       9.11637716      -0.00865658      -0.01102528      -0.00848675
H        3.35729523       8.99529087       8.13438703      -0.00142491      -0.00596309       0.00457599
H        1.24119179      10.13074077       8.79670381      -0.00031848      -0.00548805       0.01111776
H        1.30262964       9.91387083       7.04533833       0.00676699       0.01494752       0.00887877
H        0.29355578       8.84881339       8.02236395      -0.00141832       0.00720543      -0.00826615
H        1.92641697       6.72779101       7.24628959       0.00069316       0.00194528      -0.01067802
O        6.22977985      -0.13084491       5.24132620       0.00775182      -0.00367835       0.00258929
C        6.66238334       0.19345633       3.92807855       0.00539249      -0.00887518       0.00197357
C        5.47048094       0.54791297       3.07187767       0.00348186      -0.00756732       0.00499114
H        7.36107146       1.03870877       3.96808802       0.00814047      -0.01060265      -0.00332896
H        7.19814987      -0.65942354       3.48692399       0.00113857      -0.01149571       0.00126633
H        5.80218361       0.85997366       2.08015150      -0.00019028      -0.01084567       0.00317322
H        4.81192165      -0.31323088       2.95506683       0.00066461      -0.00634268       0.00959860
H        4.90608991       1.36447243       3.52445514       0.00680345      -0.00540687       0.00578624
H        7.03413478      -0.16297950       5.81230508       0.01001906       0.00306583       0.00522321
O       10.56648755      11.52607072      11.78696086      -0.00614078       0.00184945       0.00546896
C        9.47807390      10.73650276      12.32771681       0.00487202      -0.01414433       0.00461397
C        8.56985047      11.57077540      13.21859445       0.00719213      -0.02915418       0.01815104
H        8.90032165      10.31432687      11.50461833       0.00194147      -0.00935534       0.00404176
H        9.91394791       9.91921468      12.89954146       0.01653481      -0.01703250      -0.00863659
H        7.83759674      10.94858898      13.73557698       0.01735996      -0.03830315       0.02170475
H        9.13514032      12.09510467      13.99879099       0.01084822      -0.02834941       0.01421358
H        7.96800633      12.27481391      12.63159231      -0.00143000      -0.02859859       0.02824432
H       10.63817651      11.32391289      10.80609252       0.00033050      -0.00243297       0.00774667
O       12.27755437       7.56393221       1.29355822       0.00687456       0.00069231      -0.00731291
C       11.22779800       8.46139740       1.58505969       0.00444262      -0.00562215       0.00384682
C       11.69174526       9.90518237       1.69480559      -0.00193042      -0.00350308       0.00184494
H       10.50851963       8.35589947       0.76784625      -0.00276542      -0.00877033       0.01079381
H       10.70236874       8.17155382       2.50579004       0.01521592      -0.00990666       0.00841916
H       10.83835921      10.56585205       1.87225432      -0.00331368      -0.00813253       0.01230913
H       12.38466063      10.02495842       2.53177628       0.00583115      -0.00174549      -0.00507016
H       12.19164060      10.22220358       0.77732837      -0.01236423       0.00058708      -0.00241914
H       13.03495275       7.75553737       1.87889784       0.00634681      -0.00216934      -0.00576319
O        5.82925655       3.01311465       0.18967603      -0.00018442      -0.01019531      -0.00527161
C        4.86944937       3.54077669       1.11554414       0.00654003      -0.00217962      -0.00308373
C        3.96883711       4.59115750       0.49785698       0.00352463      -0.00814712      -0.00670102
H        4.26374119       2.72434709       1.52500655       0.00947776       0.00143835       0.00770645
H        5.45478399       3.96855189       1.92845071       0.01204160       0.00358409      -0.01055431
H        3.25612572       4.96263083       1.23596659       0.00720376      -0.00106369      -0.00726549
H        4.54863023       5.43865648       0.13579224       0.00161734      -0.01231408      -0.01836484
H        3.40305078       4.17185663      -0.33987010      -0.00223339      -0.01618313       0.00092021
H        5.33979698       2.68277844      -0.56909370      -0.00527373      -0.00779359      -0.00297945
O       11.01146434       0.67125731       1.12796833      -0.05037933       0.05717236      -0.05468261
C       10.76184975       1.96081842       1.75390811      -0.04273629       0.03104645       0.00152004
C       11.50533073       2.19391031       3.04654402      -0.01288891      -0.03216402      -0.00667644
H       11.07511131       2.67910391       1.00493478      -0.06747525       0.06645812       0.02612717
H        9.68194729       2.07878915       1.88947181      -0.03818011       0.01694837       0.03027378
H       11.32710383       3.22922967       3.34664612       0.00785447      -0.04569703       0.04664567
H       11.15724632       1.55777348       3.86433897      -0.00021762      -0.06693868      -0.02999599
H       12.58101413       2.06123976       2.92250144      -0.01832598      -0.04138174      -0.03623132
H       11.03091194      -0.00551374       1.81421625      -0.01847687       0.03292596      -0.08240181
O       10.55149605       3.01969622      11.90393373      -0.00002041      -0.00467844      -0.03799330
C       11.56305942       4.00889639      12.19736288       0.00375566      -0.01578733      -0.02476195
C       10.92897568       5.29593760      12.66878424       0.01444775      -0.01949486      -0.00070037
H       12.22139758       3.59091078      12.96036781       0.00405817      -0.03504833      -0.03684422
H       12.16369313       4.15506478      11.29610713      -0.00019935      -0.00445529      -0.02529022
H       11.67931601       6.05345022      12.89447531       0.02079752      -0.02837268       0.00717099
H       10.25950701       5.68775353      11.89899624       0.01392281      -0.00009291       0.01030068
H       10.35000690       5.13318433      13.58065416       0.01742493      -0.02754544      -0.00036266
H        9.82304953       3.50715712      11.42049474       0.00464082       0.00990385      -0.02627088
O        1.29257742       8.16055426       2.64241305       0.00371176       0.00126392      -0.00113696
C        1.45335050       8.49980646       4.03166621       0.00382701       0.00735090      -0.00272010
C        2.81482422       9.07925082       4.29887892       0.00285906       0.01115867      -0.00573838
H        0.65732894       9.19016612       4.33856087       0.00271016       0.00710478      -0.00501531
H        1.31427617       7.57257355       4.58354862       0.00621334       0.00954482       0.00137895
H        2.93637931       9.26942008       5.36295979       0.00235281       0.01740235      -0.00681689
H        3.58706797       8.37441168       3.99602326       0.00416896       0.01078473      -0.00164754
H        2.96507939      10.01687194       3.75577116       0.00130023       0.00835185      -0.01088395
H        1.65553142       8.88424905       2.12182448       0.00309440      -0.00072828      -0.00452109
O        8.51463074       3.95664448      10.55717283      -0.00824025       0.01441264      -0.02105531
C        7.96902544       2.64182379      10.42230451      -0.01122066       0.01364118      -0.00658189
C        6.59128053       2.60478669       9.80948763      -0.00722194       0.01057984      -0.01481228
H        8.67322872       2.08341705       9.79987904      -0.01036212       0.00653663       0.00051585
H        7.89263790       2.18075802      11.42716831      -0.01527764       0.02563059      -0.00139764
H        6.28014413       1.56762269       9.67998856      -0.00719388       0.01001737      -0.00912154
H        5.87765197       3.11308196      10.46010649      -0.01033448       0.01709517      -0.02372114
H        6.59021209       3.09108455       8.83464899       0.00304225       0.00305319      -0.01847532
H        7.83581633       4.54432944      10.95956837       0.00045779       0.01262545      -0.00645167
O        5.52223576      10.58527337       1.75380952       0.01962996      -0.00818191      -0.00456226
C        4.74691944      10.10426246       0.66266643       0.00243028       0.00283730       0.00321168
C        4.60980851       8.59649715       0.68239913      -0.00968730       0.00395781      -0.00209421
H        3.75452343      10.57822177       0.66586226       0.00636977       0.01088044       0.01752943
H        5.24892873      10.43359761      -0.25144086      -0.00613353       0.00275902      -0.00137806
H        4.15573314       8.23078836      -0.24118184      -0.02450764       0.01186457       0.00223698
H        5.59283836       8.14046700       0.78950616      -0.01230121      -0.00457029      -0.01688769
H        4.00216592       8.24769946       1.51979985      -0.00145325       0.00507688       0.00417513
H        5.44155092       9.95965355       2.49234984       0.02038649      -0.00734339      -0.00379420
