198
Lattice="13.195441813043432 0.0 0.0 0.0 13.195441813043432 0.0 0.0 0.0 13.195441813043432" Properties=species:S:1:pos:R:3:forces:R:3 energy=-199812.0625 stress="-0.00031995688914321363 0.0003545695508364588 0.0002801183582050726 0.0003545695508364588 -0.0012694266624748707 0.0003704397822730243 0.0002801183582050726 0.0003704397822730243 -0.00016736773250158876" pbc="T T T"
Sr      11.59026549      13.47568095      -0.72841699      -0.00810960       0.00208533      -0.00515932
S       11.96045600       7.28719244       2.05740596       0.01530915      -0.00306028       0.04168945
S       10.00805788       6.71146204       2.31121879      -0.00275493       0.00219887       0.00735306
O       12.06949371       8.71425008       2.39852676      -0.00644913      -0.00295687       0.04053056
O       12.27294236       7.08933380       0.60389365      -0.00143921       0.03156173       0.01517653
O       12.84094348       6.45941884       2.88233819      -0.02009296       0.01137710      -0.00796294
O        3.31050977       8.74234916       5.09089711      -0.00838536      -0.00978804      -0.00186950
C        2.72163452       9.98214518       5.51625211      -0.00812113      -0.00890273      -0.00533210
C        3.79039347      11.03947307       5.75186117      -0.00826615      -0.00861681      -0.00688198
C        1.65866414      10.44849841       4.53490745      -0.00767243      -0.01060043      -0.00663847
H        2.25885585       9.73524572       6.47222084      -0.00885800      -0.00707017      -0.00515479
H        3.33639900      11.99017549       6.03765097      -0.00827903      -0.00814269      -0.00836550
H        4.46022586      10.72217305       6.54818545      -0.00848215      -0.00749779      -0.00654654
H        4.37101541      11.21529687       4.84225207      -0.00802418      -0.00990635      -0.00693363
H        1.15304363      11.33569856       4.92533001      -0.00885569      -0.01083946      -0.00756400
H        0.91586929       9.67512898       4.34016147      -0.00666751      -0.01122460      -0.00702805
H        2.12067193      10.72298268       3.58181837      -0.00726216      -0.01028226      -0.00626411
H        3.65109841       8.85553035       4.19625872      -0.00234050      -0.01132610       0.00012165
O       11.01210535      11.19286176      -0.46206374      -0.01981144       0.00653139      -0.00819725
C       10.49978812      11.46628894       0.86344215      -0.01445104       0.00303951      -0.00549138
C        9.45566452      10.46286540       1.28575386      -0.01198798       0.00148702      -0.00362964
C       11.65159843      11.59075905       1.84727987      -0.00993606      -0.00327871      -0.01047993
H        9.95830775      12.44623820       0.79695607      -0.01318111       0.00289771      -0.00004418
H        8.99509335      10.78717443       2.21909770      -0.00850521      -0.00033435      -0.00134072
H        8.68119124      10.39252815       0.52059956      -0.01523162       0.00121014      -0.00045231
H        9.90023066       9.48140265       1.45641879      -0.01101750       0.00140002      -0.00564989
H       11.27458563      11.83426567       2.84070013      -0.00416788      -0.00603250      -0.00765005
H       12.37191729      12.37556085       1.57134444      -0.00880879      -0.00462762      -0.01121840
H       12.16937219      10.63396740       1.91461240      -0.01205146      -0.00503457      -0.01425002
H       11.06931599      10.14200467      -0.64397135      -0.00804840       0.00314713      -0.00408152
O       12.43522137       1.80016748       1.12716929       0.01300246      -0.00834447      -0.00805539
C       11.78415150       2.29977513       2.37984444       0.00620583      -0.00749937      -0.01272333
C       12.26170012       1.50421002       3.57422209       0.00418489      -0.00288063      -0.00890613
C       12.08813739       3.76111429       2.49987669      -0.00364476      -0.00595111      -0.01339042
H       10.71710198       2.13228518       2.21790414       0.00791189      -0.01426094      -0.01719004
H       11.84734191       1.95207814       4.47967573      -0.00855924      -0.00846165      -0.01232673
H       11.95939350       0.46107893       3.53870587       0.01592816      -0.00584012      -0.01240488
H       13.34850975       1.55788949       3.65721131       0.00239566       0.00884366       0.00114376
H       11.60018565       4.20251195       3.36591358      -0.01132040      -0.00900432      -0.01643606
H       11.75079574       4.33544362       1.63771046      -0.00230368      -0.00784852      -0.01517098
H       13.16116305       3.92293056       2.63124786      -0.00587830       0.00234637      -0.00707876
H       13.11461333       2.45996878       0.93911134       0.01941299      -0.01342207      -0.00232565
O        6.88598504       1.21582223       1.33147524       0.01321238      -0.01643524      -0.01238500
C        7.88710724       1.70788531       2.22465140       0.00411572      -0.00829345      -0.00647765
C        7.60441727       3.14826627       2.62623388      -0.01101127      -0.01242679      -0.00325982
C        8.04798872       0.80779284       3.43789644       0.00834007      -0.00948668      -0.00810736
H        8.82799440       1.69432199       1.65264779       0.00502858       0.00223799      -0.00410685
H        8.45765433       3.58424287       3.15291989      -0.01535308      -0.00509531      -0.00268055
H        7.40687938       3.76932680       1.75417570      -0.01794242      -0.01316966      -0.00206681
H        6.73198765       3.19679367       3.28022281      -0.01073892      -0.02198646      -0.00251365
H        8.87082177       1.15406171       4.06764987       0.00423765      -0.00457978      -0.00563110
H        8.23990460      -0.22523612       3.14403288       0.01648616      -0.00721943      -0.01010381
H        7.13750490       0.81755774       4.04160954       0.00704113      -0.01725721      -0.01029544
H        6.35826591       0.52710234       1.78485645       0.00455020      -0.00727594      -0.00853854
O        3.22703519       0.46633387       3.59668405       0.00611728       0.00626110       0.00099337
C        3.67637076       1.80755509       3.29570283       0.00339766       0.00676267      -0.00044110
C        3.61343363       2.07461783       1.80578163       0.00195579       0.00525922      -0.00061613
C        2.90733394       2.83286353       4.10248144       0.00224116       0.00608948      -0.00087175
H        4.72277522       1.79943158       3.61177420       0.00355682       0.00869115      -0.00111243
H        4.08970638       3.02749962       1.57565887      -0.00357242       0.00775482      -0.00153115
H        4.13517998       1.29769125       1.25190861       0.00559533       0.00749560      -0.00026113
H        2.57201753       2.12290272       1.46939049       0.00168864      -0.00062122      -0.00044458
H        3.26891959       3.83805268       3.87757292      -0.00113095       0.00677131      -0.00317138
H        3.00695907       2.65469536       5.17285567       0.00445335       0.00799531      -0.00081193
H        1.84742902       2.80922527       3.83854555       0.00187269       0.00295506       0.00117538
H        2.30825486       0.38439588       3.31625901       0.00466043       0.00571766       0.00633855
O        4.63491825       4.39279417       6.84038929      -0.00084728      -0.00793642       0.00665371
C        5.71359848       4.18946050       5.90757006      -0.00188410      -0.00840995       0.00542700
C        6.62092950       5.40023509       5.83134541      -0.00449905      -0.00692958       0.00013601
C        6.43790931       2.94467143       6.37010225       0.00112590      -0.00561744       0.00810516
H        5.28637878       4.01214909       4.91297136      -0.00314328      -0.01229359       0.00680590
H        7.41339973       5.25765212       5.09495448      -0.00605939      -0.00783850      -0.00126873
H        6.06096510       6.28900681       5.53447086      -0.00661618      -0.00884730      -0.00106078
H        7.09203381       5.58714099       6.79693599      -0.00234401      -0.00321688      -0.00170921
H        7.28327634       2.73321370       5.71585296      -0.00078773      -0.00729672       0.00630262
H        5.76948558       2.08239014       6.37297384       0.00211871      -0.00643843       0.01380657
H        6.81619350       3.09425276       7.38349322       0.00413577      -0.00144812       0.00638562
H        4.17518274       5.19916607       6.58396175      -0.00386085      -0.01061034       0.00402427
O       11.94615178       0.22330381      10.00505248       0.00429422      -0.00096241      -0.00007164
C       12.86060704       1.14172679       9.30184902       0.00808695      -0.00261358       0.00263357
C       12.36024156       1.37285496       7.89758757       0.01206444       0.00160675       0.00205633
C       12.99718969       2.41528078      10.11118571       0.00702640      -0.00553229       0.00673170
H       13.81492118       0.61189271       9.27880021       0.00767207      -0.00378980       0.00405955
H       13.02602398       2.05130128       7.36677132       0.01367024       0.00224498       0.00510436
H       12.29390259       0.43178836       7.34965125       0.01345602       0.00336549      -0.00118126
H       11.38079617       1.85844293       7.91198090       0.01256655       0.00249325       0.00074955
H       13.81770227       3.02383955       9.72787523       0.00967191      -0.00597851       0.01210405
H       13.25991324       2.20666523      11.16156485       0.00185658      -0.01021610       0.00699582
H       12.08092395       3.00840695      10.07623763       0.00836162      -0.00375132       0.00440031
H       11.10674600       0.20601366       9.52895988       0.01680928      -0.02725483      -0.02024686
O        9.50719664       1.34016241      11.69772976      -0.01191986       0.00210616       0.01957817
C        9.20860094       2.72822490      11.28319609       0.00067037       0.00074670       0.00908419
C        8.69963890       2.74225329       9.85976846       0.00394616      -0.00450601       0.00816274
C        8.25302029       3.32827302      12.28126776       0.00500545       0.01538225       0.00401095
H       10.17567165       3.23359317      11.33715143       0.00480399      -0.00697866       0.00719141
H        8.50230109       3.77132977       9.55618725       0.01846177      -0.00475216      -0.00091462
H        9.42973651       2.32485633       9.16465368       0.00008658      -0.02057895       0.01425140
H        7.76890810       2.17956630       9.76957736      -0.00304663       0.00738943       0.01006937
H        7.94333298       4.32172711      11.96224271       0.01233336       0.01519994      -0.00275496
H        8.72749305       3.42229464      13.25598879       0.00538436       0.01820645       0.00359741
H        7.36058711       2.70511533      12.38637376       0.00071898       0.02230015       0.00732614
H        8.65896758       0.92094262      11.89985412      -0.01390016       0.01338080       0.03403252
O       12.28496726       4.67550285       7.50768059       0.00514215      -0.00546995       0.01213741
C       11.45878793       5.76701531       7.02844641       0.00477025      -0.00829121       0.00618564
C       10.07689625       5.66322804       7.64700956       0.00458670      -0.00934976       0.00530720
C       12.12088051       7.09970906       7.30751063       0.00180712      -0.00639689       0.00315800
H       11.37392790       5.63544998       5.94707260       0.00607662      -0.01076589       0.00660801
H        9.43808061       6.43863997       7.22557976       0.00336109      -0.01246940       0.00148615
H        9.63444240       4.69129171       7.42028488       0.00729093      -0.01137361       0.00872420
H       10.13297974       5.78025054       8.73190772       0.00359356      -0.00490705       0.00473005
H       11.49981869       7.90202313       6.91165201      -0.00132416      -0.00912185       0.00270604
H       13.09853569       7.15451200       6.82730715       0.00070687      -0.00374278       0.00115114
H       12.24290511       7.25205576       8.38551651       0.00369651      -0.00466011       0.00254549
H       12.88765874       5.04957544       8.15654788       0.02175779       0.00195667      -0.00850029
O        3.72901278       6.61922892       2.74788670      -0.02445546       0.00510229       0.01084858
C        3.12051679       6.81498510       1.45824394      -0.01236910       0.00548800       0.00608867
C        2.31327487       5.59308720       1.05038582      -0.01409692       0.00881118       0.00089309
C        2.26991279       8.06828296       1.46366039      -0.00635642       0.00964534      -0.00363129
H        3.97147916       6.93348815       0.77876635      -0.00624573       0.00082663       0.01292074
H        1.86656455       5.73297065       0.06350819      -0.00323170       0.00974628      -0.00370230
H        2.94990672       4.70976403       1.03252050      -0.01863931       0.00561323       0.00818303
H        1.49178579       5.45461742       1.75556659      -0.02164541       0.01446444      -0.00708868
H        1.78135202       8.21619457       0.50011646       0.00121231       0.00906861      -0.00741315
H        2.87832645       8.94000559       1.69692447      -0.00400953       0.00741711      -0.00217885
H        1.47478951       7.97363722       2.20458059      -0.01159139       0.01572672      -0.00889252
H        3.02266099       6.70658488       3.39960723      -0.02908835       0.01023449       0.00525958
O        7.52635301      11.32386044       9.54180982       0.00600764       0.00750577      -0.00185001
C        6.80994076      11.44323508      10.77198679       0.00559703       0.00713973      -0.00200258
C        6.30852787      12.86127469      10.95302159      -0.00121686       0.00519133      -0.00506961
C        5.66211127      10.45291557      10.85174931       0.01146299       0.00115147       0.00118813
H        7.55144346      11.20580776      11.54203103       0.00731030       0.01245161      -0.00212297
H        5.89427981      13.02798521      11.94813522      -0.00218222       0.00517491      -0.00540049
H        7.11717528      13.57279547      10.78432904      -0.00478832       0.00867884      -0.00635662
H        5.52934100      13.07817909      10.21908204      -0.00253856      -0.00038951      -0.00525387
H        5.13161124      10.55099725      11.79856679       0.01069929       0.00129950       0.00060688
H        6.01776599       9.42756567      10.75685644       0.01754443       0.00301073       0.00475465
H        4.95366248      10.65651836      10.04362526       0.01052120      -0.00591714       0.00040130
H        6.89708710      11.44643301       8.82255496       0.00491095      -0.00059266      -0.00219704
O        5.33753608      12.37486086       2.34636534       0.00287724       0.00184494       0.00125206
C        5.05881185      11.43833306       1.29348098       0.00328660       0.00228512       0.00083477
C        5.45020954      10.03952847       1.72783193      -0.00187826       0.00114447       0.00173014
C        3.61253319      11.54253885       0.83954807       0.00485665       0.00636068      -0.00295755
H        5.71476055      11.73397690       0.46693110       0.00650564       0.00051056       0.00275931
H        5.27704485       9.31624783       0.92845497      -0.00031682       0.00234086       0.00037864
H        6.50237954      10.00846097       2.00126763      -0.00313871      -0.00163112       0.00598059
H        4.86963669       9.72592850       2.59704753      -0.00643353       0.00210006      -0.00109865
H        3.38966572      10.81490569       0.05853201       0.00485142       0.00671084      -0.00336665
H        3.39093740      12.53968086       0.45605419       0.00895522       0.00684458      -0.00389666
H        2.93608102      11.33426800       1.67175560       0.00230195       0.00864752      -0.00446773
H        4.50687195      12.63153769       2.79242901       0.00276911       0.00305902       0.00033104
O        3.01033339       3.84363758       9.92964607      -0.00626984       0.00734085      -0.00404471
C        3.64175918       3.58723207      11.18972796      -0.00882435       0.00321177      -0.00341675
C        4.35459275       2.24904486      11.17496395      -0.00965184       0.00270957      -0.00558822
C        4.58957204       4.70353961      11.59329675      -0.00889805       0.00194180       0.00040473
H        2.81283045       3.55222689      11.90393279      -0.01017123       0.00196710      -0.00515488
H        4.81328227       2.03954210      12.14372904      -0.00985214       0.00148447      -0.00574858
H        3.67021244       1.43644812      10.92563726      -0.01001371       0.00337832      -0.00665661
H        5.15188558       2.26431983      10.42656173      -0.00945500       0.00334232      -0.00535536
H        5.01087850       4.50871043      12.58184855      -0.01096661       0.00016254       0.00090887
H        4.07647932       5.66335113      11.61768002      -0.00909720       0.00179031       0.00107734
H        5.41753743       4.76844437      10.88271115      -0.00793540       0.00272169       0.00176927
H        3.68901361       3.87373221       9.24230248      -0.00533429       0.00405424      -0.00318941
O        3.84823404       8.92399326       8.32682462       0.00268078       0.00346610       0.00289941
C        4.81328585       7.92901724       7.94340172       0.00103503       0.00269708       0.00025219
C        6.16684546       8.56087200       7.66499151       0.00094879       0.00196162      -0.00133743
C        4.89260176       6.85068866       9.00292205       0.00211226       0.00204730      -0.00055254
H        4.41853668       7.52248629       7.00943337      -0.00065711       0.00355753       0.00077742
H        6.88447651       7.80912196       7.33460491      -0.00150231       0.00252065      -0.00768031
H        6.08481785       9.30906059       6.87718733      -0.00057713       0.00583892       0.00261313
H        6.56903537       9.03547776       8.56076633       0.00475582      -0.00286660      -0.00058940
H        5.57745255       6.05752874       8.70264961       0.00032784       0.00134277      -0.00270966
H        3.91418238       6.40286493       9.18340442       0.00205976       0.00300279       0.00128181
H        5.25775729       7.27244822       9.94510353       0.00467959       0.00094648      -0.00127473
H        3.88483326       8.99781329       9.28381142      -0.00138474      -0.00297285       0.00338201
O       11.11192962       8.74195980      12.21482746       0.00408417       0.01161972       0.00824110
C        9.85570124       8.15420647      11.82542062       0.00798032       0.00584802      -0.00173730
C        9.40877249       8.82932638      10.54607938       0.01298672       0.00720859      -0.00306857
C        9.98531461       6.64933662      11.65894012       0.01956317       0.00903201      -0.00209654
H        9.12465990       8.33768405      12.62277602       0.00271618       0.00146616      -0.00529867
H        8.39416017       8.52290611      10.28580277       0.01795714      -0.00062768      -0.01107977
H        9.41410570       9.91445660      10.64357295       0.00267773       0.00601664       0.00141341
H       10.06721383       8.55767061       9.71820315       0.02165049       0.01552241       0.00297288
H        9.03513172       6.25977662      11.28361208       0.02631408       0.00209218      -0.01098253
H       10.21640910       6.17336985      12.61134515       0.01516157       0.00829578      -0.00095063
H       10.76681742       6.41663371      10.93230677       0.02793425       0.01554962       0.00433450
H       11.57670227       8.12096353      12.88168412      -0.00091883       0.01826876       0.01615685
O        9.48212119       7.67637542       5.28500315      -0.00720218       0.00080669       0.01038903
C        8.99928900       9.00799205       5.28376504      -0.00130332       0.00322926       0.00654575
C       10.10915497       9.99455968       4.93655442       0.00244021      -0.00260842       0.00288129
C        7.80070055       9.14696177       4.35458070      -0.00082684       0.00493310       0.00649351
H        8.67346798       9.19867843       6.31416622       0.00005952       0.00778047       0.00598234
H        9.72289460      11.01832977       4.91537124       0.00691497      -0.00120453       0.00142943
H       10.90891666       9.94505101       5.67732549       0.00361092      -0.00494422       0.00110166
H       10.54336451       9.74430690       3.96750512       0.00024130      -0.00669216       0.00282639
H        7.39637120      10.16272648       4.37162014       0.00370236       0.00659002       0.00254953
H        7.00813690       8.45539942       4.64348911      -0.00352554       0.00943923       0.00891050
H        8.10263371       8.89990054       3.33547235      -0.00189658       0.00001485       0.00704603
H        9.70797787       7.41845067       4.35322429      -0.00685064      -0.00161549       0.01269205
