196
Lattice="13.667523737426173 0.0 0.0 0.0 13.667523737426173 0.0 0.0 0.0 13.667523737426173" Properties=species:S:1:pos:R:3:forces:R:3 energy=-402113.90625 stress="-0.0020509082823991776 -0.0007501091458834708 0.000557430787011981 -0.0007501091458834708 -0.0017354508163407445 -0.00015912365779513493 0.000557430787011981 -0.00015912365779513493 -0.0028613219037652016" pbc="T T T"
Sr      13.94118695      13.94404668      -0.41898091       0.01414369      -0.00578310       0.01274233
S       11.79653116      13.39044281       1.34311104       0.03104243       0.00088689      -0.02823596
S       13.48463772      12.47258972       2.08356065       0.00346816       0.01109821       0.01804250
O       11.66743066      12.89179116      -0.06909936       0.02123466      -0.01918316       0.00303102
O       12.17420428      14.83067268       1.23043932      -0.00946659      -0.01293373      -0.02688318
O       10.62388752      13.14230349       2.14868592      -0.01304901      -0.01335323      -0.01631671
S        2.75322552       2.95804081      11.99964447      -0.00054491      -0.00526267       0.00946075
O        1.64795129       2.10022636      12.60976408       0.00257510      -0.00735503       0.00890321
C        4.25558467       1.98638100      12.14149897       0.00266796      -0.00137326       0.00139545
C        3.13074879       4.14117911      13.28422434       0.01015516      -0.00268218       0.00405997
H        4.12599573       1.11057921      11.50657827       0.00049412       0.00235838      -0.00220604
H        4.39171448       1.71750732      13.18992210       0.00709987      -0.00836653      -0.00127953
H        5.08791992       2.59489011      11.79128332       0.00297867      -0.00106162       0.00197566
H        4.00292943       4.70910232      12.97443891       0.01227406      -0.00946321      -0.00352337
H        3.33179082       3.58359096      14.19818168       0.01127747       0.00421001       0.00763912
H        2.26267860       4.78983752      13.38693958       0.01614031       0.00420298       0.00440750
S        4.51708926       1.39691385       2.94961855       0.01050302      -0.00486028      -0.00667441
O        4.84802715       2.52727402       2.01482188       0.00793871      -0.00045919      -0.00139856
C        5.64762515       0.06217894       2.54837489       0.01307362      -0.00013581      -0.01531431
C        3.01138840       0.65736901       2.28897520       0.01194698      -0.00734290      -0.00485846
H        6.63276816       0.36401013       2.89933479       0.01303893       0.00137308      -0.01719353
H        5.66208434      -0.06609703       1.46598964       0.01032511       0.00444124      -0.01575524
H        5.31718195      -0.85473586       3.03838302       0.01777199      -0.00246707      -0.01707944
H        2.82948353      -0.31986029       2.73581430       0.01611339      -0.00711800      -0.00283071
H        3.13528815       0.57526946       1.20739933       0.00867367      -0.00867689      -0.00504161
H        2.18667521       1.33151281       2.52002130       0.01031478      -0.01031776      -0.00316595
S        9.25628652       6.05931748       2.02908122      -0.00357413      -0.00400591       0.00028467
O        8.01140141       6.88174357       2.21180143      -0.00642788      -0.00802410      -0.00213829
C        8.71746548       4.33297691       1.99971802       0.00428501      -0.00656587       0.00880595
C       10.06923002       5.97854823       3.62122681      -0.00130907       0.00689349      -0.00102347
H        8.06838009       4.20842638       1.13374035       0.00162343      -0.01282288       0.01191118
H        8.17491436       4.10261822       2.91274368       0.00890437      -0.00734748       0.01142751
H        9.59067181       3.68636821       1.91936862       0.00780460      -0.00146256       0.00698753
H       10.89006312       5.26034154       3.57182816      -0.00082787       0.00755963       0.00216319
H        9.33924960       5.68208860       4.37398142       0.00049777       0.01069464       0.00187416
H       10.44607368       6.97859476       3.81682394      -0.00160574       0.00813380      -0.00796635
S        8.82084246       2.25764956      12.91202589      -0.00817633       0.00742006      -0.00724888
O        7.84751166       3.07871883      12.12949339      -0.01490140      -0.00666380      -0.01446116
C       10.42057600       3.08632796      12.86243668      -0.01326329       0.01743674      -0.00983271
C        9.29733456       0.87635769      11.85765637       0.00189847       0.00460213       0.00258678
H       10.30673011       4.04887758      13.35462806      -0.02285539       0.02159564      -0.02096668
H       10.70642927       3.24919851      11.82377358      -0.01159552       0.01007532      -0.01052722
H       11.12953263       2.45846533      13.40728746      -0.01155867       0.02546202      -0.00212013
H        9.90038190       0.16695054      12.42687429       0.01411787       0.01458801       0.00189890
H        9.83447824       1.24795515      10.98428205      -0.00850066       0.00221139      -0.00446689
H        8.36557558       0.42073285      11.53813798       0.00650647      -0.01065963       0.01278062
S       11.27121905       6.61353116       8.12776730      -0.01476657       0.00011158       0.01257479
O       10.44692336       7.81744263       7.84347277      -0.02015615      -0.00016534       0.02670658
C       12.98810181       7.17660203       8.20873774      -0.01661265       0.00447515       0.00247505
C       11.37898491       5.66557757       6.61863898      -0.02027594       0.01261047       0.00506324
H       13.00033091       7.95022759       8.97455441      -0.00982618      -0.00242473       0.00889800
H       13.28423892       7.62710718       7.26001885      -0.02775041       0.01373665       0.00368755
H       13.64278271       6.34345294       8.47159315      -0.01180246       0.00405940      -0.01229888
H       12.02340011       4.79830321       6.75832433      -0.01348558       0.01656132      -0.00634938
H       11.74887873       6.28910104       5.80615648      -0.02991186       0.02085887       0.00754416
H       10.36806845       5.32202425       6.40962120      -0.01828912       0.00673480       0.00730967
S        3.84626027       9.81160017       2.54895685      -0.00461942      -0.00316620      -0.00187492
O        4.20990161      11.02085549       3.36120067      -0.00290498       0.00066245      -0.00852251
C        2.80067972       8.76955537       3.57061298       0.00116202      -0.00239155       0.00397515
C        5.30550799       8.77005348       2.46238074      -0.00344378      -0.00131795       0.00087838
H        1.86419051       9.30605541       3.70305520      -0.00034995      -0.00625554       0.00632524
H        3.27077210       8.58931407       4.53587957       0.00528871       0.00156968       0.00223631
H        2.62130925       7.84302229       3.02821211       0.00317925      -0.00432969       0.00685282
H        5.09195722       7.91258099       1.82669399       0.00024949      -0.00268824       0.00184698
H        5.62364849       8.44996286       3.45367131      -0.00712364       0.00166130       0.00266448
H        6.07896171       9.34931748       1.96400518      -0.00326663      -0.00021289       0.00287236
S        7.75700984      11.90370232      10.11504193       0.00018835      -0.00519699      -0.00793231
O        7.08305378      12.75991950       9.08103400       0.00294513      -0.01409447      -0.01673222
C        7.52636905      10.18492752       9.64601209       0.01262601      -0.00856793       0.00034809
C        6.67200530      11.85300092      11.55087228      -0.00917917      -0.00317536      -0.01549745
H        8.00866974      10.05734838       8.67940557       0.02355271      -0.01406958       0.00682183
H        6.46423853       9.93443485       9.60926673       0.01424792      -0.01318189      -0.00856923
H        8.03560482       9.55992626      10.37873777       0.00748876      -0.00080214       0.01024778
H        7.02161042      11.08773554      12.24471421      -0.01433137      -0.00206919      -0.01185212
H        5.67169557      11.59106871      11.20421529      -0.00672476      -0.00329828      -0.02204198
H        6.68472146      12.83773087      12.01570259      -0.01246449      -0.00248775      -0.01729745
S        2.76340716      11.25562227      -1.37994332       0.00514466      -0.00493008      -0.00467207
O        1.79630517      12.41824599      -1.50884708       0.01192671      -0.00026035      -0.00444122
C        1.89112634       9.99183572      -0.46420457      -0.00593305       0.00522801      -0.00299332
C        3.94707562      11.74550864      -0.13422284       0.00604230      -0.00954410      -0.00385678
H        1.18629949       9.53489050      -1.15586407      -0.01841827       0.02141450      -0.00085737
H        1.37345140      10.45525642       0.37886987       0.00643778       0.01501225      -0.00096202
H        2.62272672       9.26079654      -0.12691954      -0.01753485      -0.00857582      -0.00775377
H        4.69948835      10.95687385      -0.06101808       0.00473794      -0.01053920       0.00003264
H        3.44604233      11.91515337       0.81705449       0.00104749      -0.00638288      -0.00733840
H        4.40092470      12.66085951      -0.50949820       0.00573730      -0.01021665      -0.00527574
S        3.57171484       9.61205240       8.53963423      -0.00094259       0.00485314      -0.00055456
O        4.31849462       9.01020471       9.70143957      -0.00374502       0.00653028       0.00160122
C        3.91161182      11.37869554       8.57085413      -0.00524567       0.00520396      -0.00238076
C        1.84406306       9.68981294       9.02598601      -0.00262219       0.00333291      -0.00846806
H        4.96673446      11.53047384       8.34845993      -0.00439192       0.00800970       0.00442750
H        3.68653982      11.76362041       9.56476148      -0.01436660       0.00975332      -0.00637408
H        3.29120371      11.83869550       7.80779332      -0.00116274      -0.00021546      -0.00862794
H        1.25516918      10.08189904       8.20233386       0.00220747      -0.00055140      -0.01342386
H        1.72732232      10.30998997       9.91279689      -0.01031145       0.00676223      -0.01207496
H        1.54145219       8.66735426       9.24208334      -0.00369306       0.00415209      -0.00699626
S       11.03317856       7.02369071      11.26173785       0.00713813       0.00380492       0.01705992
O        9.86579753       6.16272669      11.60075627       0.00849235       0.00499690       0.02384150
C       12.50180266       5.99973943      11.52754746       0.00792009       0.00605243       0.01760867
C       11.27741169       8.15216512      12.63377913       0.00884515       0.00899208       0.01119411
H       12.45655152       5.21213389      10.77693954       0.00717272       0.00352508       0.02072522
H       12.46650287       5.56993029      12.52853777       0.00955188       0.00971733       0.01902701
H       13.40289506       6.59509219      11.38513680       0.00759507       0.00528780       0.01398650
H       12.20003230       8.71211278      12.48069844       0.00696090       0.01004398       0.00583166
H       11.27909166       7.62382424      13.58662362       0.01324006       0.01275101       0.01297730
H       10.43734249       8.84304146      12.59883997       0.00710391       0.00677266       0.01241012
S       10.78827895       9.96268078       2.10832414      -0.00079745       0.00226545      -0.00807685
O       11.12352490       8.49857036       2.12103011      -0.00006196       0.00389409      -0.00643411
C       10.35622251      10.37640102       3.80455011       0.01476094       0.00641900      -0.00431764
C        9.11460980      10.10263764       1.44822941      -0.00731134      -0.00124922       0.00798734
H       11.26197827      10.23817329       4.39126900       0.01999331       0.00277975      -0.01377896
H        9.58056744       9.69730998       4.16029673       0.01417962       0.01170078       0.00529377
H       10.04780033      11.41953724       3.83793276       0.01967008       0.00753026      -0.00130988
H        8.74080750      11.09723633       1.68648592      -0.00767685      -0.00114837       0.00591452
H        8.51117375       9.30218547       1.87763704      -0.00372056       0.00133806       0.01736204
H        9.16603438       9.98516148       0.36830549      -0.01876168      -0.00792218       0.00855273
S        6.17206692       7.87202204      12.06760341      -0.00087292       0.00404692       0.00341451
O        6.35216262       9.04278263      13.00019188       0.00126411       0.00104845       0.00666726
C        4.45750696       7.36967942      12.23852868      -0.00221068       0.00809035      -0.00225069
C        6.91869313       6.43838650      12.83968747      -0.00627628      -0.00020939      -0.00046855
H        3.86548861       8.15462412      11.77540492       0.00135246       0.01099944      -0.00143172
H        4.22928598       7.24506595      13.29926037      -0.00669126       0.00366378      -0.00393456
H        4.32091712       6.44007413      11.68757730      -0.00267762       0.01090877      -0.00664218
H        6.63254464       5.54954973      12.27573347      -0.01006710       0.00338616      -0.00377855
H        6.61651968       6.39038137      13.88586856      -0.00700945      -0.00308216      -0.00112578
H        7.99884951       6.55509463      12.76324441      -0.00590332      -0.00443199       0.00087849
S        8.47899859       3.07243990       7.09736229      -0.00312346      -0.00430775      -0.00712065
O        8.37638275       4.51398796       6.69536702      -0.01645157      -0.00633097      -0.01074159
C        7.02555480       2.28385739       6.38163998       0.00170964      -0.01921801       0.00026098
C        7.98264420       2.97103833       8.82337243       0.00195584      -0.00112265      -0.00630659
H        7.21872254       2.17715091       5.31562656      -0.00165799      -0.02044929      -0.00010827
H        6.17753356       2.95206415       6.53000450      -0.00372463      -0.02674286       0.00220986
H        6.86030954       1.30861634       6.83841355       0.01311406      -0.01937604       0.00377592
H        7.81210989       1.92698640       9.09037912       0.01342240      -0.00094768       0.00046626
H        7.08337014       3.56594446       8.96991451      -0.00419761      -0.01034179      -0.00852435
H        8.77670215       3.38994058       9.43691299      -0.00148578       0.01158013      -0.01080447
S        4.70644300       4.70890370       9.07771609       0.00066662      -0.00152829      -0.00091648
O        4.73197749       4.60912330      10.57396916       0.00055476       0.00302833      -0.00095141
C        3.24198509       5.66396479       8.64825932       0.00549203       0.00384864      -0.00397883
C        4.13461984       3.11400586       8.46197719      -0.00678641      -0.00029302       0.00293379
H        3.41964373       6.67330519       9.02101542       0.00941200       0.00378972      -0.00605153
H        2.37501203       5.21424162       9.13494575       0.00309068       0.00903365      -0.00383170
H        3.13849169       5.66164251       7.56275874       0.00725205       0.00126337      -0.00399777
H        4.08909080       3.17360666       7.37502401      -0.01129470      -0.00038388       0.00328867
H        3.16189804       2.87792566       8.89261618      -0.00544105       0.00288283       0.00748870
H        4.87573772       2.37752069       8.76893060      -0.00768365      -0.00239069      -0.00043881
S        0.54220349       3.89455095       4.64277937      -0.02129817       0.00406542      -0.00456011
O       -0.93402575       3.72792852       4.56825698      -0.02197754       0.00766616       0.00357887
C        1.09099293       3.19208968       6.21666069      -0.01378354       0.00181711      -0.00862312
C        0.84996040       5.61974934       5.11522027      -0.01201738       0.00212806      -0.00708064
H        0.93772282       2.11687042       6.16290344      -0.02136707       0.00296402      -0.00794534
H        0.49099933       3.61375181       7.02384165      -0.00422056       0.00501940      -0.00341987
H        2.14738691       3.42514298       6.33203012      -0.01142380      -0.00497730      -0.01647253
H        1.91821587       5.77763243       5.23564492      -0.01166263      -0.00900498       0.00437846
H        0.33509695       5.82223869       6.04951369      -0.02068299       0.01011268      -0.01373880
H        0.44107812       6.24606129       4.32350414       0.00398246       0.00448012      -0.01317981
S       11.08564907      10.77461706       9.08713193       0.01078367      -0.00440231       0.00566518
O       12.48786906      10.24710476       9.10440673       0.01454282       0.00606018      -0.00735575
C       10.55746191      10.89549263       7.36644093      -0.00431933      -0.00428113       0.01135701
C       11.25241768      12.55726614       9.36494902      -0.00035969      -0.00515687       0.00991116
H       10.54509245       9.87809890       6.97960403      -0.02597774      -0.00449681       0.01297811
H       11.24737250      11.53655429       6.82051941      -0.00136770      -0.01676844       0.00062193
H        9.54985286      11.31166794       7.32927760       0.00258230       0.01241371       0.02300178
H       10.33471220      13.07142781       9.08351097      -0.00623204      -0.01256839       0.01763597
H       12.09625325      12.90564974       8.76808502      -0.00785142       0.00485913       0.00578523
H       11.44658650      12.70512544      10.42642527       0.00423322      -0.00545217       0.00895783
S        6.97909547       8.23675388       5.65553908       0.00488782       0.00285751      -0.00124639
O        8.42758974       8.56802431       5.57360303       0.00457048       0.00609577      -0.00144525
C        6.12028274       9.79469759       5.95244691       0.00120041      -0.00073260       0.00454417
C        6.67678239       7.45508185       7.24696492       0.00681885      -0.00192367      -0.00350553
H        6.24038402      10.39205554       5.05034562      -0.00289321       0.00269867       0.00640629
H        6.57472714      10.29874576       6.80616815       0.00071611      -0.00207073       0.00540726
H        5.05639596       9.62166464       6.11647563       0.00230698      -0.00582149       0.00605565
H        5.60027058       7.33747531       7.37675141       0.00683314       0.00187317      -0.00124422
H        7.09513585       8.06142632       8.04720609       0.01139572      -0.00599436      -0.00310932
H        7.16890326       6.48299149       7.21663388       0.00241749      -0.00378835      -0.00744553
S        4.46862238       5.57567052       4.54383739       0.00383297       0.00128615       0.00974345
O        3.95273917       4.48994977       5.45498640      -0.00254688       0.00641179       0.01190978
C        3.65434747       5.32798494       2.94709546       0.01198626      -0.00580077       0.00752455
C        6.09182601       5.07709269       4.00095963       0.00586444      -0.00451398       0.02223247
H        2.60030923       5.57087056       3.05219394       0.01058717      -0.01023412       0.00267541
H        3.79709062       4.28810035       2.65713811       0.01760644      -0.00548017       0.00945895
H        4.12296018       5.98612256       2.21622633       0.01225168      -0.00545224       0.00831673
H        6.50522071       5.84741270       3.34244220       0.00914432      -0.01147108       0.01632217
H        5.99088844       4.12297951       3.48141527       0.00725759      -0.00930500       0.03098078
H        6.71723501       4.99210727       4.89070890       0.00147083       0.00243969       0.02582526
S        1.59935501      11.72145315       5.11360185      -0.00100544      -0.00035948      -0.00715256
O        2.10675077      10.70833821       6.09474419       0.00131708      -0.00114429      -0.00912642
C        2.39845649      13.28495021       5.52949217       0.00245851      -0.00250429      -0.00685668
C       -0.04714376      12.16944734       5.67967678      -0.00061619       0.00130816      -0.00556695
H        3.45747432      13.17029529       5.30596244       0.00258061      -0.00833149      -0.00326891
H        2.25449538      13.49685251       6.58991743      -0.00051685      -0.00127583      -0.00768889
H        1.96966670      14.07651915       4.91703402       0.00745864      -0.00247553      -0.00995231
H       -0.43997736      12.97115360       5.05517457      -0.00066683      -0.00107984      -0.00903244
H       -0.00027871      12.42972483       6.73846624       0.00008742       0.00405184      -0.00653762
H       -0.65498585      11.27858371       5.54352896      -0.00020280       0.00061567      -0.00279322
