186
Lattice="13.429524688046035 0.0 0.0 0.0 13.429524688046035 0.0 0.0 0.0 13.429524688046035" Properties=species:S:1:pos:R:3:forces:R:3 energy=-200458.640625 stress="-1.6720501662348397e-05 0.0002489605831215158 6.293738260865211e-05 0.0002489605831215158 -0.0001785476051736623 0.00015765564603498206 6.293738260865211e-05 0.00015765564603498206 -0.0004724480677396059" pbc="T T T"
Sr      13.45226952      13.60701569      -0.07799004      -0.01297723       0.04500184       0.01683494
O       11.66136515      12.41073479       3.33356839      -0.01864756       0.02507794       0.02087176
O       13.27999823      11.79286663       1.21062599      -0.00980306       0.04520845       0.01694888
O       11.44993051      13.57804351       0.88806120      -0.01685658       0.02902210       0.01353109
O       10.66172470      11.00133266       1.33789691       0.00322783       0.03790140       0.00892717
Cr      11.70139436      12.12885569       1.76836259      -0.02004665       0.01936319      -0.00704032
O        3.52903506       9.78362281       7.93657876      -0.00424434       0.00145200       0.00152215
C        3.64642049       8.47092088       8.44995557      -0.00662416       0.00201881       0.00342482
C        4.17159190      10.74603391       8.75106898      -0.00436789       0.00126380       0.00197080
C        3.05931807       7.51606517       7.44119709      -0.00887926       0.00126442       0.00552753
C        4.04582794      12.09406760       8.08446761      -0.00341326       0.00136080       0.00202419
H        4.70660228       8.24153183       8.63737258      -0.00704968       0.00033654       0.00334616
H        3.12473590       8.39775185       9.41635218      -0.00614926       0.00453567       0.00387698
H        3.71614764      10.75631810       9.75300017      -0.00533795       0.00127385       0.00148794
H        5.22813619      10.46831634       8.87953166      -0.00457132       0.00095138       0.00271775
H        3.15201936       6.48707636       7.78775917      -0.00826863       0.00158314       0.00637297
H        2.00443556       7.73347525       7.26854980      -0.00917667       0.00126179       0.00751919
H        3.58275966       7.60194015       6.48844459      -0.01077032       0.00028765       0.00438738
H        4.57304810      12.85293743       8.66213854      -0.00236644       0.00086839       0.00169344
H        4.47617973      12.06373336       7.08258591      -0.00401363       0.00076434       0.00181337
H        2.99835765      12.38324353       7.99458056      -0.00318485       0.00245322       0.00275861
O        1.05792244      10.17709819       4.38264604      -0.00260502       0.00777217      -0.00658270
C        1.76506132       9.10948469       3.79492016      -0.00328614       0.00679678      -0.00665608
C        1.92937413      11.15194209       4.91951563      -0.00244801       0.00981957      -0.01116908
C        0.78476052       8.15875960       3.15518568      -0.00479025       0.00533783      -0.00216866
C        1.10841434      12.33469295       5.37281035      -0.00327531       0.00959703      -0.01171274
H        2.46608036       9.50156223       3.04258269      -0.00585568       0.00597325      -0.00931957
H        2.37113295       8.59426073       4.55988055      -0.00091413       0.00841409      -0.00761300
H        2.50530076      10.72147026       5.75269102       0.00007463       0.01285002      -0.01143479
H        2.65306153      11.46124781       4.14583423      -0.00484005       0.00916488      -0.01344234
H        1.30754035       7.31019466       2.71020997      -0.00549158       0.00526696      -0.00291593
H        0.08651840       7.77641632       3.90014094      -0.00233957       0.00583688       0.00038065
H        0.21460956       8.67542050       2.38291057      -0.00764152       0.00375137      -0.00096969
H        1.76163819      13.12660997       5.74505561      -0.00367050       0.01090728      -0.01373027
H        0.50089375      12.71140210       4.54917689      -0.00375609       0.00775297      -0.01213017
H        0.42736645      12.04339526       6.17049134      -0.00317119       0.01015078      -0.01147100
O        1.27872364       4.39205330       3.06225425       0.00019313      -0.00292683      -0.00038647
C        1.86588053       4.14495289       4.33312598       0.00037220      -0.00144696      -0.00000498
C        1.80644325       3.54884706       2.06442561       0.00413033       0.00063508      -0.00102472
C        1.29568475       5.11773333       5.33396068      -0.00378536      -0.00435600       0.00040078
C        1.11335716       3.85183828       0.75702071       0.00071532      -0.00294121      -0.00005645
H        1.65814793       3.10749768       4.63427081       0.00367598      -0.00235015      -0.00079367
H        2.95716211       4.25657027       4.25827812      -0.00009060       0.00235087       0.00082885
H        2.89334361       3.69681083       1.98257950       0.00306562       0.00700080      -0.00252871
H        1.64503688       2.49331308       2.35040738       0.01127034      -0.00050592      -0.00088201
H        1.69117166       4.90340423       6.32762627      -0.00274219      -0.00332367       0.00014231
H        1.55817375       6.14184875       5.07101760      -0.00814796      -0.00300835       0.00116017
H        0.20835903       5.03970875       5.36984166      -0.00341457      -0.00889768       0.00065128
H        1.52531754       3.24708353      -0.05983862       0.00506767       0.00216836      -0.00174291
H        0.04020006       3.66946218       0.84429612       0.00158072      -0.00919006       0.00098423
H        1.25410239       4.89909529       0.48393620      -0.00717211      -0.00139868       0.00177787
O        9.48590684      11.43288852      10.73272441       0.00505713       0.00334528       0.00177520
C       10.86068984      11.56810954      11.02521864       0.00417984       0.00129128       0.00806612
C        8.92510390      12.61639047      10.19858955       0.00825733       0.00446063       0.00250210
C       11.37878641      10.25218578      11.55254112       0.00097582      -0.00031120       0.00635587
C        7.45254012      12.38254681       9.96722231       0.00896728       0.00593086      -0.00372075
H       11.40139331      11.87727768      10.11508352       0.00869720       0.00377202       0.01139230
H       10.99053634      12.36286745      11.78726015       0.00169486      -0.00125939       0.01084074
H        9.08314936      13.45271818      10.89714280       0.00571205       0.00333738       0.00453669
H        9.42892168      12.87886845       9.25575410       0.01217180       0.00613067       0.00481018
H       12.45376367      10.31256053      11.74356014       0.00048541      -0.00133121       0.00841137
H       10.88801609      10.00161530      12.49164995      -0.00094196      -0.00111970       0.00495431
H       11.20428546       9.46032060      10.82272699       0.00172884       0.00110103       0.00483382
H        6.98741331      13.27676014       9.54932367       0.01089860       0.00702249      -0.00337720
H        7.30658232      11.55947959       9.26713104       0.01109859       0.00737526      -0.00592883
H        6.95409819      12.12874440      10.90437002       0.00547539       0.00422596      -0.00607422
O       11.59133490       9.26547626       6.16941873       0.00419912       0.00777873      -0.00367984
C       10.67772648       8.32356339       5.64123961      -0.00001130       0.01216063      -0.00471830
C       11.79653379       9.09577717       7.55236165       0.00783744       0.00165778      -0.00481513
C       10.44889743       8.60985809       4.17899195      -0.00196195       0.01743948      -0.00300962
C       12.78477327      10.13489700       8.02279596       0.01124007      -0.00242001      -0.00316647
H       11.07500929       7.30479225       5.79141315      -0.00267223       0.01057160      -0.00918078
H        9.72991242       8.38173012       6.19650977       0.00137150       0.01346906      -0.00242803
H       10.84042266       9.19929656       8.09177602       0.00965786       0.00119505      -0.00183311
H       12.17511577       8.08015344       7.75943166       0.00627211       0.00007570      -0.01025935
H        9.76713273       7.86775018       3.75919209      -0.00511141       0.02083372      -0.00403518
H       10.01385036       9.59788838       4.03795229       0.00057627       0.01908743       0.00048136
H       11.38496031       8.57300035       3.62501689      -0.00318255       0.01640729      -0.00485674
H       12.95547988      10.03857549       9.09566466       0.01402104      -0.00723775      -0.00411779
H       13.73581707      10.02244118       7.50179489       0.00964761      -0.00179159      -0.00615171
H       12.39779605      11.13336385       7.81615854       0.01275787      -0.00066370       0.00230311
O        6.97681191      10.11761998       4.78365954       0.00301936      -0.01056954       0.00082640
C        6.04007751       9.50074631       5.64289541       0.00061202      -0.00322694       0.00339618
C        6.59373524      11.42932506       4.41574511       0.01160869      -0.00805706       0.00073341
C        6.59673987       8.15868616       6.04678859      -0.01021491      -0.00831181       0.00048059
C        7.68676191      12.04068986       3.58013283       0.01278690      -0.01673239      -0.00374058
H        5.87243826      10.13201231       6.52692777       0.00873578      -0.00260872       0.00448534
H        5.06764353       9.40064122       5.13777532      -0.00173485       0.00544132       0.00627741
H        5.64134505      11.39689817       3.86144348       0.00987202      -0.00157798       0.00327635
H        6.41394597      12.02795824       5.32376246       0.01868029      -0.00622818       0.00077015
H        5.92726076       7.64841509       6.73806977      -0.01052287      -0.00108351       0.00532532
H        6.74686095       7.51839093       5.17675433      -0.02273036      -0.01034185       0.00002104
H        7.55723761       8.29891408       6.53985038      -0.00566591      -0.01803467      -0.00585220
H        7.40926424      13.05986149       3.31663056       0.01836995      -0.01563248      -0.00490236
H        8.63141639      12.05464237       4.12409595       0.01468642      -0.02044516      -0.00669724
H        7.84218069      11.47137445       2.66309326       0.00653440      -0.01899610      -0.00300412
O       10.07130383       3.08769175       4.47343160      -0.00062472      -0.00974929      -0.00741193
C       11.22058755       3.37945029       3.69754849       0.00337800      -0.00657105       0.00037166
C        9.93356859       1.69880370       4.74845613       0.00490427      -0.00894794      -0.00309771
C       11.24351236       4.86265881       3.41610539       0.00037121      -0.00814420      -0.00454380
C        8.62258871       1.48775578       5.46957596       0.00363910      -0.01258215      -0.00782415
H       12.12640913       3.06907683       4.24123543       0.00105062      -0.00312465       0.00587341
H       11.19106008       2.79614864       2.76434658       0.00932638      -0.00765800       0.00247991
H        9.97046236       1.12374768       3.81426602       0.01092867      -0.01266775      -0.00037879
H       10.78242857       1.35706105       5.35850861       0.00384271      -0.00305705       0.00159064
H       12.15092270       5.13384906       2.87650412       0.00246723      -0.00661860      -0.00026960
H       10.37641099       5.15958640       2.82486478       0.00233726      -0.01350742      -0.01027945
H       11.22398671       5.42702486       4.34968908      -0.00704212      -0.00679842      -0.00574864
H        8.53481433       0.45173494       5.79693952       0.00471614      -0.01181939      -0.00548410
H        8.55877594       2.13377899       6.34438662      -0.00229125      -0.01075731      -0.00959949
H        7.77875435       1.71557744       4.81797597       0.00505649      -0.01642223      -0.01086704
O        2.84403135       3.20993457      10.56551662      -0.00806838      -0.00570711       0.00991425
C        4.12392231       2.59981759      10.56997795      -0.00838375      -0.00669789       0.00953959
C        2.89627595       4.53866420      10.06830925      -0.00738424      -0.00646293       0.00777479
C        3.97505744       1.17798455      11.05233769      -0.00948657      -0.00633040       0.01006471
C        1.49634415       5.09801418      10.02485546      -0.00683451      -0.00524281       0.00795479
H        4.54730237       2.61973706       9.55493059      -0.00894634      -0.00745443       0.00932309
H        4.80753063       3.16976835      11.21734436      -0.00747263      -0.00672656       0.00853929
H        3.54716938       5.15074565      10.71119544      -0.00633016      -0.00621092       0.00634283
H        3.34768671       4.53078219       9.06486830      -0.00830168      -0.00850060       0.00740367
H        4.94249202       0.67382967      11.06617509      -0.01048307      -0.00811979       0.00714835
H        3.57643831       1.15709916      12.07139099      -0.00625235      -0.00629738       0.01135697
H        3.30172829       0.62226919      10.39756213      -0.01207072      -0.00495300       0.01155429
H        1.50971504       6.12705189       9.66380724      -0.00607891      -0.00612062       0.00553820
H        0.86722607       4.50702084       9.35811502      -0.00819963      -0.00607052       0.01000123
H        1.04944706       5.09003167      11.01940862      -0.00592227      -0.00221881       0.00840317
O        5.81667162       0.97429143       2.00812321       0.00473756      -0.01217517      -0.00243270
C        6.35227471       0.86842429       0.69909063      -0.00047547      -0.00517487      -0.00526596
C        4.41191447       0.83478738       2.03636967       0.00469604      -0.00569522      -0.00044709
C        7.85312131       1.00027045       0.76504915      -0.00003809      -0.01081069      -0.00903194
C        3.94354724       0.99147298       3.46302254       0.00654111      -0.00934596       0.00026715
H        6.06303271      -0.09908301       0.26101008      -0.00658579      -0.00101161      -0.01001333
H        5.91877720       1.65923874       0.06562397      -0.00057648       0.00041750       0.00193942
H        3.95808230       1.60226570       1.38788250       0.00798613      -0.00066894       0.00345057
H        4.11910156      -0.14966432       1.63364820      -0.00223435      -0.00192484      -0.00462593
H        8.27247192       1.00227611      -0.24125405      -0.00164191       0.00019690      -0.00954354
H        8.12822705       1.93468871       1.25456995       0.00446548      -0.01753035       0.00107299
H        8.31021355       0.17933003       1.31354036      -0.00129509      -0.01845372      -0.01985101
H        2.87021271       0.81318281       3.53985691       0.00559714      -0.00420106      -0.00151194
H        4.45305611       0.27335487       4.10605205       0.00195712      -0.01490366      -0.00250670
H        4.15954026       1.99549377       3.82960405       0.01224423      -0.01229030       0.00469072
O        6.12039665       6.20493071       2.68933921      -0.00159615       0.00396073      -0.00366593
C        7.37628753       5.55843380       2.78095934      -0.00288989       0.00219536       0.00164899
C        6.23092726       7.56381655       2.30139815       0.00265467       0.00431776      -0.00190926
C        7.14571973       4.12229305       3.17056040      -0.00597639       0.00188512      -0.00126366
C        4.84665166       8.15847484       2.32378322       0.00388813       0.00741965      -0.00754785
H        7.90451289       5.62567625       1.81818975       0.00181690       0.00275745       0.00434637
H        8.00692958       6.06847539       3.52538117      -0.00587353       0.00045708       0.00531250
H        6.89698419       8.10544484       2.98602524       0.00050941       0.00227886       0.00153834
H        6.67274698       7.63365248       1.29816080       0.00708477       0.00421616       0.00010747
H        8.09771521       3.59918229       3.25646240      -0.00681227       0.00136295       0.00442198
H        6.64890001       4.06808437       4.14074670      -0.01275202       0.00111486      -0.00481860
H        6.51763843       3.61295064       2.43855704      -0.00096714       0.00262570      -0.00604016
H        4.88182208       9.22285452       2.08963335       0.00733265       0.00722492      -0.00783868
H        4.19599967       7.65999068       1.60366975       0.00572088       0.00881107      -0.01010381
H        4.40736705       8.03715099       3.31363512      -0.00045850       0.00899677      -0.00928599
O        9.23210607       4.61816823      12.33614952      -0.00151657       0.00140566       0.00276344
C        9.98391510       3.42541121      12.39367079       0.00411737       0.00499780       0.00235647
C        7.84773204       4.38957354      12.52551991       0.00006944      -0.00433332       0.00756212
C       11.41747745       3.76154368      12.05976813       0.00138092       0.01203659      -0.00262210
C        7.12305752       5.70581667      12.39355217      -0.00675735      -0.00873089       0.00228390
H        9.91230920       2.97033427      13.39179006       0.00908238       0.00583352       0.00314707
H        9.57800511       2.69538720      11.67675783       0.00599833       0.00237355       0.00417176
H        7.48781353       3.66955458      11.77387987       0.00167406      -0.01002651       0.01240197
H        7.67509140       3.94596983      13.51683940       0.00470332       0.00014369       0.01032561
H       12.03147266       2.85330330      12.05283326       0.00654194       0.01568194      -0.00793195
H       11.48404140       4.22541105      11.07574171      -0.00587805       0.01374319      -0.00237483
H       11.82944450       4.45320051      12.79422038       0.00104056       0.01354319      -0.00387649
H        6.08098795       5.60363896      12.69943829      -0.00544442      -0.01213302       0.00551210
H        7.59518569       6.45286072      13.03159627      -0.00918795      -0.00291073      -0.00295502
H        7.16130545       6.06287147      11.36738030      -0.01104483      -0.01414126       0.00017649
O        9.14050733       5.11879733       8.84497884       0.00580612      -0.00352819      -0.00107813
C        9.86065251       4.24941522       7.98873840       0.00355120      -0.00456268      -0.00159171
C        9.11851359       6.43116853       8.31491713       0.00809401      -0.00265068       0.00074288
C        9.90371695       2.87228242       8.60229488       0.00014985      -0.00482526      -0.00200874
C        8.35382235       7.34654965       9.23761721       0.00632247      -0.00414547       0.00075555
H        9.38951223       4.22377554       6.99648272       0.00329071      -0.00331146      -0.00154018
H       10.88152203       4.63775905       7.84442121       0.00446951      -0.00701725      -0.00171100
H       10.14915276       6.78991024       8.18836904       0.00863582      -0.00302795       0.00371864
H        8.66121331       6.41220809       7.31444429       0.01044106      -0.00082801      -0.00027019
H       10.40962302       2.17833167       7.93008835      -0.00165383      -0.00599438      -0.00218348
H       10.43991733       2.88915430       9.54982763       0.00015929      -0.00647378      -0.00194740
H        8.89363902       2.50289961       8.78677792      -0.00076210      -0.00211312      -0.00211475
H        8.37847224       8.37003517       8.85959876       0.00787902      -0.00330304       0.00307454
H        7.31113820       7.03485034       9.31444148       0.00597762      -0.00380380      -0.00283681
H        8.79200991       7.34145510      10.23517700       0.00363298      -0.00699267       0.00187533
