198
Lattice="12.583735861634887 0.0 0.0 0.0 12.583735861634887 0.0 0.0 0.0 12.583735861634887" Properties=species:S:1:pos:R:3:forces:R:3 energy=-446474.25 stress="0.000994125846773386 0.00018742959946393967 0.0006690245063509792 0.00018742959946393967 0.0024401156697422266 -0.00013870144175598398 0.0006690245063509792 -0.00013870144175598398 0.002905872417613864" pbc="T T T"
Tb      12.24961976      11.50123478       1.16813391       0.00319793       0.00307682       0.00212170
P        2.13564603       4.27542467       3.23782365      -0.00122005      -0.00857481      -0.00131333
O        1.88033351       3.87443035       1.72453186       0.00769814       0.00178570      -0.00693008
O        3.67782474       3.81343150       3.40598860       0.00404468      -0.00046230      -0.00239348
O        2.07978655       5.77552648       3.42780465       0.01453241       0.01858246      -0.01559116
O        1.27679939       3.44975322       4.15322489       0.00519854       0.02549267      -0.01140279
H        1.08700549       4.34427219       1.27348943       0.00662671      -0.00041552      -0.00782438
H        4.22117704       4.55532124       3.77036543       0.00694943      -0.00577037      -0.00170247
P       10.71576091       8.96708655       1.29908338       0.00144222       0.00201347       0.00065216
O        9.30549115       8.87991312       2.08706686      -0.00004542       0.00238656      -0.00085506
O       11.77465247       9.40861509       2.33289825       0.00002825       0.00331789       0.00358272
O       10.98951793       7.66412212       0.60673335       0.00218019       0.00298995       0.00237429
O       10.55656993      10.19353841       0.36408867       0.00453305       0.00258785       0.00022554
H        9.21300509       8.02586588       2.60512806      -0.00060954       0.00176658      -0.00131612
H       12.53299425       8.33643146       3.54621815      -0.00571898      -0.00241421       0.00702658
P        4.08283822       6.93556497       9.41340014       0.00132155       0.04907706       0.00592417
O        5.54579568       6.99168315       8.78263813       0.00106090       0.00355984       0.01474252
O        4.34624181       6.65355839      10.99179839      -0.01848030      -0.00799921       0.00195897
O        3.47681644       8.29969414       9.20821123       0.00452572      -0.01878381       0.00244794
O        3.31049946       5.74028320       8.95182190      -0.01074111      -0.01819611      -0.01825501
H        6.12067284       6.20942711       9.08224027      -0.00069962       0.00326812       0.01145547
H        4.58037607       7.42592183      11.52765662      -0.01866669      -0.00295570       0.00659226
N        4.06908658      11.74105670       4.32630490      -0.00623640      -0.00499243       0.00137618
H        3.50456380      12.35401271       4.91560349      -0.00606933      -0.00638302       0.00328290
H        4.92528869      12.24893951       4.13497223      -0.00601783      -0.00460739       0.00297270
H        4.31923852      10.96095595       4.93223050      -0.00617397      -0.00699982      -0.00072043
N       11.09513112       4.87759159       8.14483152      -0.00516430       0.00102432       0.00613084
H       11.66511680       4.29771937       8.75540953      -0.01719021       0.00451943       0.02002761
H       10.17682058       4.44250763       8.12472518      -0.00513666       0.00068463      -0.01435208
H       11.00176370       5.75823481       8.64523405      -0.01609748       0.00309225      -0.00011018
N        0.47903904       8.98247481       8.58215310      -0.00164290       0.00598949       0.01062897
H        1.37728370       8.50166017       8.56288728       0.00263061       0.00849589       0.01395984
H       -0.22511873       8.30039560       8.85678643       0.00105949       0.00526101       0.00993098
H        0.55534174       9.63804971       9.35368061      -0.00309996       0.00620566       0.01137595
N        4.74465186       6.15533220       4.55939665       0.00840699      -0.00783181      -0.00454646
H        3.76421150       6.35889937       4.35190734       0.01577748      -0.00103351      -0.01972308
H        5.30956672       6.90341290       4.16549788       0.02155409      -0.00896840       0.00825587
H        4.87457402       6.18976527       5.56492514      -0.00773218      -0.01212103      -0.00133571
N       -0.61898500       1.49204095       1.27282672       0.00360284       0.00180787       0.00653894
H       -0.08074611       1.92388378       0.52641431       0.00687104       0.00572373       0.01140012
H       -1.46547035       2.06878556       1.35673196       0.00195448      -0.00080186       0.00513617
H       -0.08475350       1.72321032       2.11072153      -0.00079241      -0.00158767       0.01087348
N       11.69475545       1.45310817       8.39110547       0.00129798       0.00014330      -0.00843026
H       11.37174797       0.52043703       8.65510123      -0.00878152       0.00238869      -0.01008916
H       10.89189465       1.96488265       8.04170886       0.00693087       0.01153588      -0.00444023
H       12.01025511       1.95546057       9.21458951       0.00981787      -0.00654603      -0.00844927
N        7.52675480      11.56878137       1.06541451       0.01291907       0.01592445       0.00538868
H        7.66752634      12.55317765       1.25809437       0.01981037       0.01691419      -0.00446913
H        8.40780659      11.18657102       0.72949482       0.00937265       0.00775766       0.00501595
H        7.36405518      11.11608137       1.95665276       0.01472765       0.02484442       0.01039933
N        3.95232563       2.89838751      10.24315485      -0.00457436      -0.00090240      -0.00399884
H        3.93250612       3.88257045       9.97911948      -0.00719567      -0.00519927      -0.00331936
H        4.65839629       2.73192598      10.94954640      -0.00678909       0.00288729       0.00347421
H        4.15601327       2.37102915       9.40522204       0.00495801      -0.00347684      -0.00068140
N        8.56403745      10.12769738      10.60937844      -0.00391671      -0.00775861       0.00961405
H        8.11592556      11.03840213      10.63152789      -0.00941125      -0.01035288       0.01644361
H        9.25945691      10.13069840      11.36113408      -0.00112483      -0.00764812       0.00667188
H        7.84145238       9.48287850      10.91250028       0.00100972      -0.01417262       0.00864875
N        9.18325140       8.29857261       6.45247676      -0.00110564      -0.00218916       0.00404447
H        8.63914587       8.57644119       7.26348327      -0.00609773      -0.01349589       0.00478137
H        9.75608183       9.10458840       6.22400467      -0.00480080       0.00360432       0.01507578
H        9.83184220       7.59803711       6.80026598       0.00139685      -0.00209007      -0.00064959
N       12.45013845       4.95853883       0.35628668      -0.00431657      -0.00970484       0.00383317
H       12.77340449       5.02616689      -0.60376720      -0.03556154      -0.03423725      -0.00741815
H       12.06105209       5.87086634       0.60739333       0.00884153      -0.00192066      -0.00396524
H       11.66719493       4.31389800       0.33296166      -0.00866427      -0.00486287       0.04725777
N        9.41906271       3.00133925      11.07698038      -0.00300643      -0.00015828       0.00623637
H        9.91892970       2.67420009      11.89546269      -0.00639809       0.00731521       0.01136799
H        9.61267521       2.35191194      10.32373922       0.01979614       0.00772991       0.00557470
H        8.43384517       2.92775628      11.29956391      -0.00424838      -0.02038345      -0.00698842
N       10.44267985       7.51635731      10.10270752      -0.00565174      -0.00202617       0.01156868
H       10.70875229       7.56710637      11.08959757      -0.00818507       0.00516629       0.01223408
H        9.76792049       6.76252200      10.03348649       0.00535060      -0.01153674       0.01242159
H        9.93682941       8.37542362       9.90518542      -0.01572720      -0.00903077       0.00646353
N       11.90732209       1.33898657       5.03816762       0.00593259       0.01417080      -0.00643197
H       11.98246528       1.15572241       6.03619776       0.00136241       0.01104012      -0.00739085
H       11.05152157       1.87300423       4.92346853       0.01094363       0.02177471      -0.00876676
H       12.65966407       1.99766876       4.82021414       0.01196751       0.01075944      -0.00280420
N        9.79732358       3.59503048       1.75913480      -0.00142464       0.00121906       0.00300780
H       10.25343196       3.92543159       2.60796685      -0.00242289       0.00433583       0.00274983
H        8.91805348       3.16962712       2.05549672       0.00110031      -0.00319642       0.00510725
H        9.55676950       4.41392538       1.20909812      -0.00850717      -0.00026930       0.00369029
N        1.38829973       7.55733455      11.59488983      -0.01174662      -0.00348926       0.00403373
H        0.40086626       7.35548227      11.69780551      -0.01472567       0.00758135      -0.00812091
H        1.92607314       6.73941191      11.85283312      -0.02488065      -0.00799053       0.01366592
H        1.58908763       7.74024645      10.61893836       0.00260530      -0.00954846       0.00418407
N        4.64318295       9.07302946       6.45519375       0.00061808      -0.00590104      -0.00615521
H        4.36073466       8.39750766       5.75183339      -0.00435015      -0.00765410      -0.00013858
H        4.11723078       8.83766240       7.30313992       0.00448256      -0.00281454       0.00103593
H        5.59251554       8.80879299       6.70020193       0.00187597      -0.00497816      -0.01000858
N       -0.15731750      -0.61171862      11.26121500       0.00535918       0.00257681       0.00147748
H       -0.11228036       0.36543950      10.98979488       0.00611189       0.00165869      -0.00120779
H       -0.86799710      -1.02137330      10.65738583       0.00473978       0.00131714       0.00318392
H        0.74781179      -1.01701480      10.97410510       0.00579549       0.00101092       0.00240597
N        2.28430928       0.54940799       6.82984697       0.00116890       0.00416873      -0.00123268
H        1.38149863       0.66843129       7.28508845      -0.00084753       0.00401768      -0.00463654
H        2.70531368       1.47843452       6.80939771       0.00301547       0.00293027       0.00356001
H        2.84996333      -0.00862573       7.45973444      -0.00313700      -0.00012207      -0.00071730
N       10.37161908      12.03912727       2.87512059       0.00925910       0.00391260       0.00841361
H        9.88865266      11.15545620       3.00683806       0.02692793      -0.00215718       0.02838089
H        9.67606820      12.72918478       2.61406741      -0.00621046      -0.01354198       0.00498581
H       10.75870967      12.33989041       3.76828940       0.01482844       0.02551017      -0.00096393
N        6.79073358       0.94114809       8.41287813       0.00566369      -0.00386362      -0.00080150
H        6.12529950       1.70462134       8.40341787       0.01144876       0.00064152       0.00187527
H        7.60739703       1.29162901       8.89887955       0.00694456      -0.01346699       0.00410685
H        6.38663627       0.18391549       8.96357207      -0.00104471      -0.00470060      -0.00553434
N       13.23122396       7.94001339       4.20933355       0.00045831      -0.00231986       0.00265935
H       13.81337719       7.19362094       3.76369271       0.00354865       0.01009557      -0.00379768
H       12.85869604       7.47998841       5.05519874       0.00870875      -0.01124951       0.00340241
H       13.78383301       8.73215499       4.60936383      -0.00594735       0.00353646       0.00454421
N        0.92216282       6.27074728       6.57878711      -0.01911017      -0.00702998      -0.01695527
H        1.62056054       6.40490850       7.30792307      -0.00545167       0.01162766      -0.03747546
H        1.35341960       5.65425254       5.89450767      -0.03403223      -0.02076900      -0.01398712
H        0.16933388       5.73052069       7.00285528      -0.01018757       0.00035509       0.01083303
N        4.98565843       3.85053390       0.47420479       0.00976724       0.01765047      -0.01033321
H        4.64718287       3.84734172       1.43345060       0.00554612       0.00367923      -0.01194656
H        4.22942326       4.25110945      -0.07002689       0.01686844       0.03423738      -0.00745744
H        5.75957293       4.50221981       0.41315819       0.01717138       0.01036304       0.00452416
N       10.61416796      11.14038247       8.41041096      -0.00678827       0.00187683       0.00025950
H       10.11775855      11.48312416       7.59104741      -0.00660088      -0.00755277      -0.00409258
H        9.94442614      10.60737113       8.96199468      -0.00506160       0.00175822       0.00230727
H       11.33787920      10.50105128       8.09359250      -0.00197186       0.00364062       0.00734766
N        0.85116629      11.82437457       3.34619381       0.00754657       0.00095088      -0.00003123
H        1.85424410      11.99180491       3.37572136       0.00991231      -0.01191720      -0.00237756
H        0.40482162      12.54276060       3.92875650       0.01762870       0.00841592      -0.00173372
H        0.72397515      10.95465998       3.85662884      -0.00344601       0.00443251       0.00272703
N        3.21424716       3.67331179       6.80549145       0.00281701       0.00484240      -0.00943118
H        3.02662873       4.30948742       7.58046048       0.00656260       0.00681683      -0.01664187
H        2.37724011       3.59417942       6.23092434      -0.00027459       0.00517040      -0.01222201
H        3.87583212       4.16661928       6.21606674       0.00437281      -0.00487304      -0.01638141
N        8.67972927       2.96030328       6.82670159       0.00241669       0.00020340      -0.00891620
H        7.71022524       2.94280800       6.51647722       0.00189380      -0.00645426      -0.00632741
H        8.99743447       2.00138305       6.72525986       0.00526008      -0.00022940       0.00318058
H        9.19180053       3.50102941       6.13561330      -0.00057469      -0.00700267      -0.01704418
N        8.76359061       6.67601030       3.64589669       0.00082603       0.00070620      -0.00330514
H        7.77980043       6.47137295       3.51021038       0.00141795      -0.00154668      -0.00331661
H        8.83880198       7.05906900       4.58809858       0.00080606       0.00020531      -0.00289418
H        9.26263204       5.79162944       3.64351522       0.00281689       0.00166066      -0.00414997
N        1.01918029       3.60385990       9.83281150       0.00060785       0.02088653      -0.02414281
H        1.33149195       4.56603751       9.70352497       0.02219214       0.01209815      -0.02260055
H        1.06931582       3.20682801       8.89755401      -0.00843091       0.02019629      -0.02507315
H        1.81519447       3.17379533      10.30868606      -0.01146077       0.00141332      -0.02239566
N        8.34850397      12.19148750       6.05495151       0.00096372      -0.01365932      -0.00341181
H        7.72441955      12.62628598       6.74085632       0.00326920      -0.01397552      -0.00111233
H        8.00313027      11.25440313       5.88110768      -0.01001913      -0.00705351      -0.01742050
H        8.24730918      12.70129470       5.18428946       0.01229773      -0.00094655       0.00303787
N        1.69068476      10.03820408       5.87644950      -0.00655913       0.00445226       0.00736311
H        1.57351936      11.04841102       5.86314786       0.00084631       0.00520837       0.00225141
H        2.67774464       9.90165366       6.07261522      -0.00766745      -0.00198202       0.01048376
H        1.18648689       9.69784591       6.69985248      -0.01034430       0.01154909       0.00839286
N        5.75814161      10.67096860       8.95857610       0.00563809      -0.00261891      -0.00264929
H        5.45134740      10.82600669       8.00315319       0.00987548      -0.00998549      -0.00491592
H        5.16655145       9.91270896       9.29508487       0.00398995      -0.00305221      -0.00014061
H        6.69385806      10.28473347       8.88505730       0.00622972      -0.00085575       0.00635810
N       11.17567279       4.66367265       4.75453983      -0.00370148       0.00820488      -0.00814454
H       12.06777099       4.22281124       4.50453386      -0.00129719       0.00468712      -0.00350317
H       11.15633161       4.65702973       5.77491308      -0.00472650       0.01629154      -0.00883822
H       11.29798431       5.64081701       4.50820600      -0.00167082       0.00468629      -0.01735322
N        1.98090517       0.37133638       0.66797460       0.00762790       0.00649852       0.00106847
H        2.78766450      -0.25440489       0.70030754       0.00765465       0.00752000       0.01872216
H        2.16055504       1.10178071       1.35335932       0.00353467       0.02194780      -0.01441669
H        2.05626087       0.84462767      -0.22868519       0.01336583      -0.01427197      -0.00896430
N        4.91083765       7.59697814       1.11973018      -0.01088052      -0.00381476       0.00608984
H        5.42553717       7.98118519       1.90843700      -0.00560658      -0.00848506       0.00539830
H        5.24297887       6.64543517       0.99560774      -0.01608296      -0.00558610       0.00390201
H        3.94536024       7.49732659       1.42096579      -0.00973660       0.00071465       0.01027903
N        4.42874007      10.87441106       0.95343408       0.00830245       0.00348417       0.00918604
H        5.32580783      11.31219054       0.74733563       0.00813946       0.00463231       0.01022919
H        4.58174215       9.88390742       0.77658895       0.00870302       0.00344749       0.00896825
H        4.28352755      10.96811547       1.95719034       0.00625472       0.00336611       0.00871264
N        6.98717786       2.71241076       2.81608265      -0.00105628       0.00421570      -0.00171086
H        6.73902902       2.52977979       3.78704511      -0.00139719       0.00495807      -0.00145350
H        6.21389165       2.38373275       2.24601698       0.00405629      -0.00693202      -0.00197878
H        6.94659786       3.72321617       2.73437352      -0.01204341       0.00335798      -0.00629972
N        6.72869792       8.92973221       3.95696680      -0.00722143      -0.01546597      -0.01350430
H        7.41477422       9.20986481       3.26090551      -0.01086108      -0.01567018      -0.01726298
H        7.26721769       8.70608510       4.79031622      -0.00403425      -0.00657850      -0.01298474
H        6.15791117       9.73502269       4.18627802      -0.01235968      -0.01775070      -0.01781466
N        5.53347292       2.08506057       5.58630609       0.00177497      -0.00631994      -0.00393973
H        4.87932790       2.10159148       4.80730491      -0.00087541      -0.01043557      -0.00185790
H        4.97197910       2.42701475       6.36436416       0.00505074      -0.00249245      -0.00411674
H        5.74542835       1.11692004       5.79668203       0.00227575      -0.00604028       0.00028019
N        6.99190814       4.97596372       9.78713384      -0.00565827      -0.00506216       0.00510544
H        6.28915899       4.28092001      10.01803694      -0.00637234      -0.00658168      -0.00327550
H        7.37103893       5.31684054      10.67026283      -0.00648328      -0.01522832       0.00930661
H        7.73667074       4.49610825       9.29350614      -0.00471310       0.00019891       0.00161770
N        1.53218729       9.89688422       0.80184383       0.00096217       0.00169778       0.00075004
H        1.52335571       9.46388640       1.71934739       0.00141826       0.00085898       0.00018736
H        1.45248707       9.10889214       0.13493060      -0.00263567       0.00241587       0.00018259
H        2.45731536      10.29501989       0.66319717       0.00201740       0.00018832      -0.00025025
N        7.86394514       6.80841036      12.38599659      -0.00922541      -0.01023197       0.01471956
H        7.04631538       7.40415837      12.30648826      -0.00856835      -0.01147918      -0.00082930
H        8.23992841       6.97409398      13.31458603      -0.00907539       0.01301628       0.01009794
H        8.57551794       7.20779244      11.78115317      -0.00868624      -0.02712534       0.00405517
N        2.65108719      10.97120339      10.42598135       0.00574583       0.00068103       0.00725280
H        3.30702055      11.10460607      11.19155285       0.00603343      -0.00264287       0.00681943
H        2.85041806      10.03632723      10.06253828       0.00241877      -0.00341021       0.00739481
H        2.95763772      11.61554265       9.70493426       0.01011764      -0.00368114       0.00598841
