195
Lattice="13.479152133303494 0.0 0.0 0.0 13.479152133303494 0.0 0.0 0.0 13.479152133303494" Properties=species:S:1:pos:R:3:forces:R:3 energy=-430081.15625 stress="0.00014810977154411376 -0.0002630969538586214 0.0003815555101027712 -0.0002630969538586214 -0.00019763526506721973 -0.0007841036422178149 0.0003815555101027712 -0.0007841036422178149 0.00010206493607256562" pbc="T T T"
Tb      13.26326174      13.74427466       0.21466678       0.00642389       0.00681996      -0.01315350
O       10.18794272      12.58436113       5.94052565       0.02286696       0.00329161      -0.02327442
O       10.78769810      11.41087320       7.78076602       0.01921749      -0.00054210      -0.02446842
C       10.07208095      11.66078498       6.78611913       0.01764023       0.00424337      -0.02286775
H        9.20306880      10.96311934       6.62291578       0.01210380       0.01095760      -0.02004334
O        7.22848333      13.01345752      12.64654209      -0.02677608       0.00585651       0.02992368
O        5.14126531      13.51712895      13.33947584      -0.03239107       0.02448899       0.00223541
C        6.32694681      13.78804062      12.99683571      -0.02651884       0.01537597       0.02468140
H        6.58185737      14.88807843      13.00870499      -0.01278654       0.01073980       0.04020883
O       13.43874961      14.37970715       2.34003761      -0.00252668       0.00367330      -0.01126361
O       12.41288976      12.44551635       1.93082623      -0.00381836       0.00693109      -0.01875424
C       12.86875203      13.30339484       2.73727706      -0.00853126       0.00525497      -0.01659319
H       12.76419339      13.12729754       3.81492103      -0.01775415       0.00549161      -0.01623104
O       10.40482956       2.97890338       2.23877387       0.00955134      -0.02467322       0.00140375
C        9.86598534       2.19780389       4.41099008      -0.00184661      -0.00789769       0.00506204
C       11.33263377       2.63302184       4.39554702      -0.00358161      -0.00254923       0.00941956
C        9.58941374       2.01934073       2.92819012       0.00629157      -0.01970256       0.00520325
C       11.43674714       3.45951741       3.11882784      -0.00281471      -0.00804175       0.00629246
H        9.69973913       1.27957414       4.97723250      -0.00060972      -0.00518262       0.00986767
H        9.24012812       2.99341768       4.82158661      -0.00692201      -0.00753778      -0.00335361
H       11.62179290       3.19809743       5.27949376      -0.00918120       0.00285457       0.00810689
H       11.98303496       1.76050876       4.34321205      -0.00006489      -0.00033370       0.01564179
H        9.86488905       1.00516299       2.60455002       0.00868805      -0.02157933       0.01443445
H        8.54881206       2.19376760       2.64247890       0.00719100      -0.02310279      -0.00139990
H       11.26776887       4.52419271       3.30443996      -0.01618274      -0.00920093       0.00038735
H       12.40222412       3.34992505       2.61848135       0.00155002       0.00041572       0.01355043
O        8.43639934      10.48812901       1.07185859      -0.00468229      -0.01838830       0.01209188
C        9.63628844      10.89628311       3.01183293      -0.01149911       0.01384336       0.00986546
C        8.14990894      11.04583495       3.37265227      -0.01378100       0.00952193       0.00352341
C        9.61240344      11.14736085       1.51266027      -0.00707850      -0.00895560       0.00628424
C        7.42427966      10.82337488       2.02537651      -0.00798644      -0.00305271       0.00265580
H       10.26826427      11.57119000       3.58529132      -0.01777896       0.02560294       0.00240165
H        9.97331937       9.87278246       3.18769795      -0.00557712       0.01904669       0.02762993
H        7.84580930      10.32971847       4.13499731      -0.01269523       0.01333231       0.00730130
H        7.95732049      12.03993509       3.77616977      -0.02100314       0.01115903      -0.00409997
H        9.54681718      12.22528015       1.28772126      -0.00959691      -0.01265049      -0.01037715
H       10.45799357      10.72445659       0.97067659      -0.00413153      -0.01444611       0.01582523
H        6.71693215       9.99117351       2.04365963      -0.01200941       0.00065118       0.00837654
H        6.89738778      11.72140164       1.68314824      -0.00153869      -0.00439459      -0.01014408
O        1.16501140       1.71191135      12.63117372       0.00621998       0.00971995      -0.00705492
C        3.35348282       2.25188380      11.97422388       0.00496805       0.01449391      -0.01065621
C        2.56918781       3.56005278      12.05315837       0.00151978       0.01176888      -0.00709817
C        2.26327141       1.23990066      11.75816200       0.00859468       0.00953719      -0.00493607
C        1.31109371       3.17637916      12.81606766       0.00999311       0.00762898       0.00386566
H        4.08211954       2.22297811      11.16722726       0.00135477       0.01627409      -0.01382080
H        3.88368734       2.01364505      12.89887881       0.00932336       0.01574719      -0.01279631
H        3.11401297       4.35277396      12.56356152       0.00279087       0.01436375      -0.01210071
H        2.31855229       3.91714670      11.05208208      -0.00803253       0.00974507      -0.00531268
H        1.88511785       1.22469108      10.73332671       0.00758442       0.00342004      -0.00496012
H        2.53590156       0.24045534      12.08418429       0.01313102       0.01292583      -0.00015526
H        1.40003666       3.33823360      13.89199988       0.02347090      -0.00094241       0.00385371
H        0.39405342       3.63308997      12.45526267       0.00617558       0.01127496       0.01852581
O        4.55891329       3.58817871       3.84264774       0.00433178      -0.00346574      -0.00084160
C        3.31963969       1.67359329       3.27783575       0.00293887      -0.00136793      -0.00420219
C        4.79135178       1.27342853       3.37630401       0.00212082      -0.00371313      -0.00172159
C        3.44441654       3.16816157       3.05245043       0.00635609      -0.00179788      -0.00454330
C        5.36204238       2.44059483       4.17415556       0.00357519      -0.00434977      -0.00182398
H        2.77679002       1.18306410       2.47357121       0.00384415      -0.00083825      -0.00498047
H        2.79659814       1.47303327       4.21686927       0.00095783      -0.00009268      -0.00483951
H        4.95465890       0.31720415       3.87257325      -0.00009267      -0.00380650      -0.00123817
H        5.22968792       1.21987808       2.37634688       0.00254884      -0.00479361      -0.00139523
H        3.64636320       3.38136858       1.99191469       0.01046164      -0.00327499      -0.00411087
H        2.56200222       3.73432870       3.35964878       0.00658348       0.00032005      -0.00784995
H        5.28175673       2.26217707       5.25277563       0.00427343      -0.00423211      -0.00178379
H        6.40497628       2.66439909       3.93971453       0.00375935      -0.00539979      -0.00262702
O        7.80943115       6.61562714       6.24782524       0.00126319       0.00415799       0.00620508
C        8.91554528       5.80288388       4.37221689      -0.00773782      -0.00112909       0.00364116
C        8.92120932       7.32800162       4.24964161      -0.00285590      -0.00110453       0.00179386
C        7.71790763       5.57796383       5.27807024      -0.00564778       0.00354198       0.00753871
C        8.33555047       7.78528010       5.59762761      -0.00191981       0.00268120       0.00116688
H        8.84638621       5.28750165       3.41404084      -0.01289385      -0.00180874       0.00433806
H        9.82587123       5.46927002       4.87599281      -0.00748423      -0.00414493       0.00110415
H        9.92295996       7.71708100       4.07962367      -0.00143611      -0.00461471       0.00155356
H        8.28477557       7.65031285       3.42265850      -0.00130424       0.00004805       0.00125405
H        6.77830729       5.65145160       4.71004035      -0.00715828       0.00635980       0.01045272
H        7.72547725       4.62461904       5.80937221      -0.00725025       0.00403193       0.00832510
H        9.08399359       8.22252143       6.26140500      -0.00223434       0.00663030      -0.00113833
H        7.53495517       8.51980946       5.46729665      -0.00367650       0.00046095      -0.00087176
O       12.04187158       1.50287597       9.99566022       0.01759586      -0.02135313       0.00751981
C       12.35164191       2.66701318       7.93942724       0.00078847      -0.00964838       0.01153314
C       11.89614412       1.23479521       7.66532782       0.00896911      -0.01132596       0.00676715
C       12.78219072       2.58375137       9.40403869       0.00858754      -0.01406384       0.00894052
C       11.21251629       0.89542623       8.96883530       0.01701821      -0.02180546       0.00809598
H       13.16360582       3.00804566       7.29561942      -0.00485495      -0.00121090       0.00935428
H       11.51424372       3.36237659       7.82303891      -0.00452617      -0.01472186       0.01891072
H       11.23289772       1.09338682       6.81605074       0.00696567      -0.01188077       0.00844267
H       12.75157971       0.57162345       7.52099512       0.01271731      -0.00496511       0.00029346
H       13.85128678       2.35189023       9.47745197       0.01004565      -0.00856400       0.00227693
H       12.59630053       3.50528118       9.96493653       0.00617760      -0.01825377       0.01464856
H       10.21035793       1.34673199       9.00730195       0.01437068      -0.02809468       0.01458360
H       11.13067720      -0.17452828       9.14954710       0.02407928      -0.02277166       0.00329239
O       11.63774583       2.99245664      12.68916361       0.00015689      -0.01791495       0.00290815
C        9.29108130       3.21154350      12.68555693       0.00131214      -0.00496835       0.00378171
C        9.61776839       1.72308434      12.58630775      -0.00716609      -0.00621378      -0.00365613
C       10.57556304       3.84024520      12.18519236       0.00467715      -0.01024339       0.00523752
C       11.10488538       1.69701802      12.93722734      -0.00805872      -0.01588112      -0.00123349
H        8.43135943       3.49194536      12.08161066       0.00231397       0.00303304       0.00549610
H        9.11147841       3.50120590      13.72020259       0.00388554      -0.00872263       0.00497469
H        9.00849239       1.07559044      13.21330626      -0.01222005      -0.00641879      -0.00770818
H        9.48895320       1.37121189      11.56172656      -0.00689888       0.00019339      -0.00546870
H       10.61536844       3.84448444      11.08944876       0.00436614      -0.00718293       0.00534886
H       10.76043967       4.84740354      12.55806757       0.01012137      -0.01222023       0.00821784
H       11.24542692       1.48531773      14.02442912      -0.01076907      -0.01979716      -0.00239703
H       11.61442443       0.95743731      12.25929918      -0.01194286      -0.01678572      -0.00296396
O       12.31351196       7.24133367       5.09643772       0.00186043       0.00845238      -0.00520301
C       12.06211977       8.25877714       7.25059580       0.00313792       0.00727516      -0.00440449
C       11.73246176       6.76125360       7.29560064       0.00461775       0.00691725      -0.00463516
C       12.31859903       8.52057541       5.75829971       0.00020072       0.00827901      -0.00464261
C       12.51885978       6.25241028       6.09727183       0.00376067       0.00818461      -0.00571793
H       11.28343792       8.91402941       7.63860542       0.00334430       0.00667921      -0.00319542
H       12.96583667       8.46162289       7.82759617       0.00389600       0.00791708      -0.00594576
H       12.02195917       6.28428576       8.23330816       0.00619025       0.00693645      -0.00518708
H       10.66469668       6.58637084       7.13855131       0.00454825       0.00611432      -0.00337325
H       11.54199392       9.13344615       5.29757416      -0.00204489       0.00679973      -0.00296275
H       13.28249445       9.01255451       5.59659831      -0.00125098       0.01052387      -0.00623405
H       13.58896585       6.16636905       6.33693012       0.00409228       0.00917530      -0.00697137
H       12.17066610       5.29867071       5.69839013       0.00413947       0.00801572      -0.00582445
O        2.35294141       7.43549848       4.93886518       0.00048608      -0.00126320       0.00154150
C        2.95208336       7.49755999       2.66018363      -0.00608106      -0.01125333      -0.00068945
C        4.05346524       6.77965260       3.43610134      -0.00257999      -0.00485424       0.00029701
C        2.25569919       8.26426840       3.77785491      -0.00537425      -0.00759079      -0.00281775
C        3.31518730       6.39344376       4.70857919      -0.00016093      -0.00192262       0.00248086
H        3.33093380       8.14145309       1.86859622      -0.00970998      -0.01420127      -0.00481188
H        2.26652809       6.77259706       2.21326396      -0.00525974      -0.01511437       0.00438599
H        4.47869061       5.91765251       2.92769805      -0.00047310      -0.00548747       0.00302069
H        4.86495784       7.47803368       3.66335272      -0.00464633      -0.00141001      -0.00320131
H        2.76894682       9.21875453       3.97275972      -0.00756571      -0.00524691      -0.00871390
H        1.19938362       8.46641503       3.58819888      -0.00644416      -0.01174267      -0.00098363
H        2.78435277       5.44586263       4.58248702      -0.00007921      -0.00245655       0.00535358
H        3.96307422       6.30395674       5.58244010       0.00113809       0.00012661       0.00178087
O        6.65402502      11.51511343       9.03635752       0.00734842       0.00007445       0.00189739
C        4.90759165      10.95193394      10.47903410       0.01058018       0.00665456       0.00932249
C        4.72570340      12.43148450      10.08972453       0.00801790       0.00351891      -0.00222999
C        6.38029714      10.69377501      10.16974904       0.00938702       0.00433066       0.00533083
C        6.01395668      12.75932627       9.30469233       0.01065356       0.00143670       0.00216836
H        4.68910523      10.76609569      11.52966759       0.01561129       0.01604176       0.01191562
H        4.26688818      10.32192602       9.86257042       0.00799504       0.00110440       0.01745966
H        3.83664982      12.56162109       9.47153387       0.01096970      -0.00411390      -0.00793271
H        4.65343406      13.05586276      10.97889156       0.00134959       0.00991604      -0.00723600
H        7.00299072      10.99882295      11.01929423       0.01223400       0.00639266       0.00260448
H        6.60349149       9.66242299       9.89480187       0.00805541       0.00285751       0.00870606
H        5.82939223      13.24298558       8.34381449       0.01514847       0.00430794       0.00264472
H        6.67775487      13.38947209       9.90732507       0.01046202      -0.00170341       0.00596759
O        1.71808072      12.57385269       0.48298608       0.00341946      -0.00038321      -0.00540245
C        1.95346381      10.23724222       0.42385471      -0.00755003      -0.00190306      -0.00976811
C        3.29082819      10.85905131       0.83158144      -0.01034737      -0.00996907       0.01112543
C        1.30134262      11.41055812      -0.28864171       0.00845417       0.00394826      -0.01448235
C        2.89191083      12.23041224       1.31755115      -0.01067615      -0.00973183       0.01023781
H        2.04948341       9.36986103      -0.22639644      -0.00212285       0.00024028      -0.01214792
H        1.37131648       9.95641012       1.30526626      -0.02171765      -0.00262271      -0.01972523
H        3.81864737      10.30092104       1.60164494      -0.02454329      -0.01518604       0.01727338
H        3.95786374      10.96949867      -0.02419839       0.00213586      -0.01126496       0.02126685
H        1.67249927      11.50769335      -1.31481773       0.02198254       0.00536319      -0.00911000
H        0.19025697      11.35764416      -0.29413535       0.00823145       0.00946213      -0.02976918
H        2.55069315      12.23613336       2.35450606      -0.02417499      -0.01112024       0.00498098
H        3.65436044      12.98148534       1.12299594      -0.00455141      -0.01216027       0.02179712
O        5.17709554       5.83500625       9.18434317      -0.00373390      -0.00132379       0.00196017
C        6.92708523       5.41720196      10.76136153       0.00693429       0.00306140      -0.00845775
C        6.18194116       4.13128886      10.39994756       0.00733231       0.00145370      -0.00375926
C        6.07836597       6.50577631      10.08411361       0.00441569       0.00151524      -0.00849953
C        5.62816006       4.49670427       9.03422278      -0.00200520      -0.00052822      -0.00043148
H        7.01763898       5.57896824      11.83448147       0.00851996       0.00510009      -0.00858411
H        7.93628589       5.41634833      10.34985037       0.00610417       0.00352249      -0.00994878
H        6.80767386       3.23846839      10.39212122       0.00933561       0.00286855      -0.00744631
H        5.35978098       3.96538858      11.09790622       0.01218253      -0.00033601       0.00121804
H        5.46567540       7.06319367      10.79742025       0.01109871       0.00741608      -0.00793606
H        6.69871739       7.21547429       9.53160914       0.00246504      -0.00361851      -0.01739889
H        6.41806996       4.43860749       8.27036417      -0.00660074       0.00087735      -0.00540650
H        4.77978941       3.89248335       8.70675892      -0.00265852      -0.00227493       0.00493917
O        3.26341132      10.71629444       7.38571464       0.00656204       0.00675988       0.01248461
C        3.72962519       8.45462427       7.77980477      -0.00573900       0.00369704       0.00085336
C        4.76361772       8.95401808       6.76701714      -0.00024396       0.00318658       0.00571722
C        2.61081018       9.46667115       7.60724783      -0.00093238       0.00893641       0.00104591
C        4.50065836      10.46682837       6.69832977      -0.00067487       0.00356174       0.00167052
H        3.41042062       7.43137382       7.59515486      -0.00916854       0.00570512      -0.00383223
H        4.13563878       8.49665511       8.79115883      -0.00915433      -0.00092916       0.00240171
H        5.78523220       8.72578703       7.06803118      -0.00193137       0.00408706       0.01211374
H        4.59056379       8.49250448       5.79565315       0.00592220       0.00181395       0.00525704
H        1.98503525       9.19675484       6.74770134       0.00285816       0.01707044      -0.00426996
H        1.97334532       9.58206292       8.48671171      -0.00545241       0.00657457      -0.00204054
H        5.27692239      11.04137363       7.20316282       0.00378028       0.00646242      -0.00874400
H        4.41877203      10.81764515       5.66146517      -0.01081898      -0.00184058       0.00073862
O        8.98529016       7.79934207      11.08423279      -0.00533152       0.00851604      -0.01055613
C       11.05046769       8.77697566      10.54858715      -0.00530863       0.01272244      -0.00574586
C       10.62811301       9.30922120      11.91869273      -0.00808239       0.00719583      -0.00464284
C        9.70596406       8.35981522       9.98047743      -0.00361323       0.01065408      -0.00857991
C        9.46712645       8.38547652      12.30500169      -0.00244081      -0.00024390      -0.00766607
H       11.54204043       9.52293581       9.92651588      -0.00643057       0.01534620      -0.00347255
H       11.70498705       7.90670959      10.65807927      -0.00312636       0.01420975      -0.00736651
H       11.43062759       9.28073645      12.65782871      -0.00813262       0.01029254      -0.00451362
H       10.27566444      10.33896035      11.82767843      -0.01422252       0.00572926      -0.00200513
H        9.18397148       9.23636093       9.57565347      -0.00464785       0.00964147      -0.00873935
H        9.76217975       7.59541229       9.20424313      -0.00033864       0.01163682      -0.00944099
H        9.79928585       7.57156125      12.95944929       0.00412518      -0.00415263      -0.01582354
H        8.66281096       8.92246560      12.80696876      -0.00292796      -0.00850308       0.00036180
