192
Lattice="13.310769960844324 0.0 0.0 0.0 13.310769960844324 0.0 0.0 0.0 13.310769960844324" Properties=species:S:1:pos:R:3:forces:R:3 energy=-561523.9375 stress="-0.0022289177868515253 0.0002878584782592952 -0.0012972051627002656 0.0002878584782592952 -0.0009835556847974658 0.00043997693865094334 -0.0012972051627002656 0.00043997693865094334 -0.0029815249145030975" pbc="T T T"
Tb      13.10883719      12.97291937      -0.55059623      -0.01207048       0.00680721      -0.00244267
P        9.12265489      12.71858037       3.91788770       0.01304972       0.01520531      -0.00064673
F        8.36020933      13.22772928       2.68007096       0.00203094       0.00724028       0.00357211
F        8.60793825      12.46959923       5.35149174       0.01686963       0.01464527       0.00007528
F        8.71997717      11.22280853       3.54434882       0.02477582       0.01144215       0.00348341
F       12.07897259      14.67610313      -0.54603890      -0.01868913       0.00047570      -0.03402539
F        9.43378937      14.22525219       4.32965200       0.00495233       0.01765332      -0.00413770
F       10.60731820      12.43758231       3.63890231       0.01368427       0.02682953      -0.00832832
P        2.93523565      13.35133733      10.40334303      -0.01136976       0.00164807       0.00046927
F        1.50692550      13.75753510      11.21773328      -0.01018861       0.00169925       0.00026160
F        4.27032959      12.88421497       9.79229349      -0.00812125      -0.00942423       0.01652420
F        3.64963918      14.08409502      11.55355188      -0.01367736       0.01623619      -0.00641799
F        2.31409126      11.94548890      10.27255417      -0.02205208       0.00770593      -0.01815915
F        2.53888325      14.30121389       9.27430920      -0.00324650      -0.00007290      -0.00299501
F        3.32616485      11.72565645      12.70061242      -0.03061086       0.01542585      -0.02251682
P        5.14700133      11.77471596       3.47701495       0.00943387      -0.00295075       0.00426674
F        4.25824324      13.03625881       3.35261977       0.00783771      -0.00443462      -0.00981338
F        5.24183406      10.73703140       4.60229694       0.00619570       0.00188121       0.00856525
F        4.01256380      10.91806317       2.77474647       0.01458964      -0.00748068       0.00201637
F        6.22762482      12.67500760       4.22970794       0.00188738       0.00333010       0.00727824
F        5.03555629      12.67033555       7.14659040      -0.02007987       0.01034856       0.00155187
F        6.10047436      11.55078861       2.29049774       0.01705974      -0.00695523       0.01242122
O       10.66460111       4.34005785       3.07763658       0.02121165      -0.00682989       0.00704476
O        9.14518185       4.35871325       1.45526912       0.01198347       0.01373318       0.01647729
O        9.61018310       6.26465328       2.56970147       0.01839361      -0.00388789       0.03845304
C       10.76011091       3.04097602       2.44497167       0.01756847       0.00237343      -0.01095438
C        9.45936231       2.96297442       1.67046003       0.01099396       0.01128614      -0.00016382
C        9.78771150       5.09733580       2.38412931       0.01635054       0.00599128       0.02289768
H       10.86566934       2.29654355       3.22640813       0.02626704      -0.00757733      -0.02225065
H       11.64011648       3.03289758       1.80565962       0.01122594       0.01408896      -0.01927310
H        9.54021670       2.46922169       0.70657852       0.00199858       0.02133079      -0.00554714
H        8.64185255       2.51604824       2.23667766       0.01502168       0.00755693       0.00244531
O       11.42662574       4.07711671       6.54297073       0.00373508       0.01583873       0.00715354
O       10.78834805       5.00273968       8.46247215      -0.00094488       0.01571368       0.00511365
O       12.42173387       3.45534370       8.45927490       0.01491612       0.03368288       0.00751293
C       10.45963323       5.06664429       6.14706977      -0.01481385      -0.00310105       0.00624448
C        9.92528511       5.60198289       7.47830279      -0.00401112       0.01010504       0.00513881
C       11.61104275       4.11449245       7.87955258       0.00567669       0.02374634       0.00555226
H        9.69749196       4.58531117       5.54259827      -0.01684570      -0.02275711       0.02526648
H       10.97582163       5.81282097       5.54300897      -0.03366908      -0.00649142      -0.01235379
H       10.02079130       6.68409919       7.56988735       0.00122154       0.01031539      -0.00444402
H        8.90181235       5.29527057       7.68402983      -0.00341499       0.01538883       0.01468764
O        4.38436166       6.69962528       1.15637814       0.00810173       0.00528219      -0.00233349
O        3.44633895       8.58384579       0.44159580      -0.00039694      -0.00002089      -0.00544982
O        5.55914008       8.09562225      -0.15702784      -0.01353788      -0.00353923      -0.01412600
C        3.01653524       6.57767994       1.56159278       0.01342357       0.00817323       0.01462077
C        2.38548227       7.90836044       1.13552220       0.00661558       0.00285751       0.00751691
C        4.55341675       7.80789121       0.41936758       0.01239806       0.00423788      -0.01653871
H        2.98546412       6.41890686       2.63801544       0.02678059       0.02096591       0.01646030
H        2.57540063       5.73249445       1.03572292       0.00940438       0.00206405       0.02899712
H        1.55839301       7.77172702       0.44029364       0.00341904      -0.00540671       0.01364648
H        2.08272363       8.51685174       1.98863289       0.01118214       0.00950015       0.00436977
O        8.01759153      10.92060915      10.80074758       0.00701341      -0.00010067       0.01733349
O        6.44557200      12.19533798      11.72233485       0.00989246       0.00382367       0.01742834
O        7.98844794      13.13268236      10.36776840       0.01274532      -0.00053883       0.01341635
C        7.21726116      10.02287929      11.59267816      -0.00295407      -0.00165772       0.00330895
C        6.42852431      10.96483437      12.47692790      -0.01017281      -0.00525835       0.00057602
C        7.52325042      12.17866673      10.91084572       0.00734937      -0.00406694       0.02166149
H        7.87417636       9.36790871      12.15216308      -0.01463071      -0.00993446       0.00810102
H        6.58430479       9.43569510      10.92930528       0.00571039       0.00454268      -0.00963211
H        5.40543659      10.65205199      12.64487043      -0.01667809       0.00386102      -0.02496770
H        6.93157849      11.14457447      13.42273268      -0.02572632      -0.02704612       0.01299644
O       -0.20760671      12.54828302       1.55053355      -0.01871508       0.04060362       0.00419652
O        1.83579552      12.97525408       2.36649512      -0.00853007       0.00084330      -0.00002974
O        0.19595940      12.39964822       3.74662239      -0.01089397       0.01082996      -0.00018966
C        2.28305559      11.71455704       0.31437219      -0.00898322       0.00607330       0.00170594
C        2.23799433      13.07733982       1.01876768      -0.00852589       0.00488108       0.00062871
C        0.53002988      12.62189975       2.61077230      -0.01310337       0.01790872       0.00187838
H        1.39500642      11.37390110      -0.25002352      -0.01973863      -0.00340338       0.02533093
H        2.49250837      10.94643726       1.05465179       0.01661701       0.00905898      -0.00340587
H        3.26838041      13.43008914       1.02924323      -0.00929537       0.00651313       0.00120364
H        1.67209652      13.87976623       0.49632563      -0.00991003       0.00342879       0.00043441
O        7.25094309       3.06561316      12.70164025      -0.00017384       0.00037628       0.01886663
O        5.26480068       2.20369031      13.19768199      -0.00547257       0.00163147      -0.00231181
O        7.13170573       1.09038087      13.77889826      -0.01362628       0.00455570       0.02446645
C        6.30797244       4.12472201      12.41310651       0.00339487      -0.00123686       0.00240163
C        4.97484915       3.39781496      12.44622885       0.00262642      -0.00004910      -0.00771318
C        6.60661937       2.03167587      13.26400597      -0.00699937       0.00220567       0.01476052
H        6.53640475       4.53024813      11.43136357       0.01387622      -0.00761268       0.00253719
H        6.38686973       4.87723310      13.19768141      -0.00424478       0.00331944      -0.00155073
H        4.19962619       3.95992583      12.96218326      -0.00130183       0.00202653      -0.01619315
H        4.64062683       3.10729373      11.45150741       0.01137759      -0.00255044      -0.00948244
O        3.59662035       7.84106339       8.71177760      -0.00651631       0.00541392       0.00136903
O        3.02344454       9.87952084       8.04821573      -0.00819333      -0.00348026      -0.02299601
O        1.43326689       8.29285945       8.30996939      -0.00577760      -0.00558493      -0.01817990
C        4.80548234       8.62883166       8.77127069      -0.00863126       0.00870395      -0.00078696
C        4.46440840       9.81239002       7.88753408      -0.00697908       0.00047195      -0.01214004
C        2.57480690       8.64937419       8.34380208      -0.00480396      -0.00115770      -0.01354363
H        5.62967116       8.01558879       8.41231517      -0.00639871       0.00727144       0.00702018
H        4.96689863       8.89975951       9.81527553      -0.01289545       0.01753551      -0.00261521
H        4.88887147      10.78733832       8.13481334      -0.01244850       0.00407481      -0.01601665
H        4.65549757       9.60789458       6.83284041       0.00101268      -0.00687422      -0.00894308
O        9.65409189       7.69032337      12.30366727       0.00764978      -0.00263155       0.02228327
O       10.86747570       5.87601509      11.90724937       0.00066456      -0.00361964       0.00869210
O       11.88422600       7.87419965      12.12375763       0.00891995      -0.00673407       0.01684512
C        8.70268661       6.59387810      12.36080241       0.00501591      -0.00042197       0.01997018
C        9.48928678       5.44580750      11.74650110      -0.00101747       0.00159770       0.01051882
C       10.89318430       7.19336948      12.12070721       0.00241446      -0.00722840       0.01571294
H        7.82117778       6.88044386      11.79251965       0.00299081       0.00477245       0.02588758
H        8.43971957       6.44235027      13.40554426       0.00897007      -0.00699528       0.01982933
H        9.36329011       4.50652178      12.27286889      -0.00173266      -0.00200963       0.00414482
H        9.30158207       5.30814944      10.68199843      -0.00448661       0.00789983       0.01045191
O        9.40571152      10.74880584       0.43808187      -0.00598907       0.00137177      -0.00101054
O       10.36912502       9.29401820       1.82242930       0.00666162       0.00908977      -0.00313217
O        8.15075842       9.17027559       1.43981193       0.04256463       0.01977909       0.00685525
C       10.74382160      11.22290596       0.59050407      -0.00839977       0.01050100      -0.00583453
C       11.45724567      10.05280702       1.27105369      -0.00208023       0.01702112      -0.00722478
C        9.21130436       9.67678355       1.25196289      -0.04035050      -0.01744846       0.01239425
H       10.73812466      12.12454383       1.20217507      -0.01651860       0.01530015      -0.01295483
H       11.11277862      11.44223947      -0.42100404       0.00031592      -0.00574487      -0.00591914
H       11.99120969       9.41251532       0.56665638      -0.00941244       0.02593344      -0.01956594
H       12.10409114      10.37036012       2.08319500       0.00285815       0.02379519      -0.01500669
O        7.60803126       3.28169379       7.23664101       0.01591083      -0.00903571       0.01365763
O        6.55839459       2.14451896       8.82682195      -0.00922459       0.00570738       0.00660373
O        7.14408282       4.29305641       9.19118552       0.00578827       0.00080705       0.00502354
C        7.18815681       2.02761515       6.63275027       0.01225203      -0.00736977       0.01341778
C        6.93369785       1.14485334       7.82218724      -0.00764179      -0.00048314       0.01394916
C        7.10300412       3.31331720       8.49013625       0.00413928       0.00052786       0.00872862
H        7.97979544       1.68852053       5.97340330       0.01639089      -0.01672599       0.02410573
H        6.28249318       2.22969622       6.06321814       0.02013350      -0.00297947       0.00270480
H        6.09976094       0.38896810       7.65348226      -0.01303405       0.01030719       0.00889972
H        7.83541847       0.65403041       8.18890648      -0.01661611      -0.00800973       0.02501595
O        1.95503282       5.62589439      10.21492858      -0.00885928      -0.00223969      -0.00453341
O        4.16146704       5.36701479      10.16756728      -0.00900932      -0.00154374       0.00729078
O        3.18800303       6.30955966      11.95383107      -0.01920120      -0.01287597       0.00645661
C        2.21434923       5.08393539       8.91157953      -0.00178874       0.00104021      -0.00427915
C        3.71819116       4.78281711       8.92862711      -0.00167817       0.00229277       0.00321494
C        3.10629805       5.82103402      10.86316653      -0.01314567      -0.00571069       0.00415355
H        1.94640695       5.84852910       8.18369721       0.00178672       0.00254688      -0.00396022
H        1.58417489       4.20620529       8.79702783      -0.00017610       0.00042760      -0.00908075
H        3.94834185       3.71665865       8.96071672      -0.00151424       0.00227135       0.00072560
H        4.25529900       5.25519281       8.10927662       0.00233108       0.00447601       0.00747082
O        1.23286891       2.81402438       5.04953682      -0.00049313       0.00145693      -0.01621857
O        0.86313744       4.72875957       3.98159818       0.01727334       0.00512399      -0.01436634
O        0.55516931       2.77562487       2.90672423       0.01906878       0.00965124      -0.02191490
C        1.46243509       3.82630608       6.04702696      -0.00011818      -0.00308064      -0.01201993
C        1.40620997       5.13408707       5.25689750      -0.00246589       0.00122267      -0.00517770
C        0.84594811       3.38680132       3.89282864       0.01247177       0.00618389      -0.01739359
H        2.44352976       3.64986980       6.48769729       0.00078622      -0.00410753      -0.01444098
H        0.68887411       3.73007726       6.80450012       0.00130865      -0.00770409      -0.01138020
H        0.74281708       5.87668556       5.69501776      -0.01516488      -0.00839618      -0.00881772
H        2.38872991       5.57737283       5.09950901      -0.00522071       0.01125513       0.00905559
O       12.72856169      10.01259557       9.46623603      -0.00225139      -0.00117782      -0.00385928
O       10.87430122      10.41897229      10.59373587       0.00391430      -0.01487491       0.00990567
O       12.70068738      11.62129233      10.99021976      -0.00275863      -0.00066689      -0.00227866
C       11.82272868       8.96148758       9.03657172       0.00362386      -0.01214570       0.00863159
C       10.48339567       9.38289851       9.64876340       0.00419158      -0.01595387       0.01056039
C       12.12348993      10.72494023      10.37521495      -0.00050703      -0.00546948       0.00050181
H       12.21639244       8.02628795       9.42564014       0.01173830      -0.00587246       0.01516947
H       11.83518688       8.95651528       7.95149205      -0.00143779      -0.02236205       0.00882760
H        9.79718224       9.85061224       8.95199711       0.00218961      -0.01743636       0.01164570
H        9.99410282       8.60474530      10.22106615       0.00694580      -0.01656827       0.01180997
O        6.64086849       6.63973516       6.25652533      -0.00210601      -0.00349524      -0.00385736
O        5.57966439       7.91940435       4.78196126       0.00466178      -0.00925007      -0.01321143
O        4.41824914       6.42029030       5.98797100      -0.00511527       0.00553071      -0.00079727
C        7.68823344       7.30662169       5.52745694       0.00149900      -0.01432249      -0.00851925
C        6.94311552       8.39264176       4.76785002       0.00753241      -0.01753104      -0.01821232
C        5.45621450       6.94061144       5.68778940       0.00292009       0.00035599      -0.00676055
H        8.16152938       6.58921012       4.86045877      -0.00137486      -0.02161461      -0.00225458
H        8.39114639       7.71657173       6.24812636       0.00272956      -0.01177470      -0.01125744
H        6.97840900       9.35023253       5.28740432       0.01314324      -0.01292074      -0.02700594
H        7.26141716       8.50296343       3.73343214       0.00784816      -0.02843960      -0.01913822
O        5.18260291       3.91902700       2.32627496       0.00726804      -0.00814331       0.00018789
O        5.23620115       3.80761116       4.54590132       0.00232312      -0.00620373       0.00040807
O        6.54811701       5.29535236       3.47887159      -0.00162548      -0.01166177       0.00151764
C        4.12121654       3.01335090       2.69083754       0.00713098      -0.00835267      -0.00125727
C        4.46832674       2.66391034       4.12517113       0.00519862      -0.00774428      -0.00059825
C        5.73141401       4.42612512       3.45301486       0.01055813      -0.00020075       0.00101798
H        4.14928467       2.17021192       2.00936965       0.00879868      -0.00797060      -0.00087851
H        3.16945456       3.53963210       2.59719195       0.00775868      -0.00813127      -0.00309187
H        3.60504598       2.55760735       4.77434197       0.00472930      -0.00927481      -0.00212756
H        5.09788413       1.77979732       4.20427053       0.00709477      -0.00605318       0.00039947
O        2.73241878      11.68573243       5.27838359      -0.00181121       0.00595450      -0.01706015
O        0.94706463      11.21172350       6.49851592      -0.00421745      -0.00975836      -0.02801061
O        1.83643696       9.62562452       5.17882368       0.00236759       0.00573850      -0.04109997
C        2.46531201      12.90710907       6.00226788      -0.00806698       0.00016972      -0.01050261
C        1.11723360      12.62601293       6.66338393      -0.00233197      -0.01377381      -0.00448176
C        1.84158504      10.74604605       5.61029340      -0.00095388       0.00143915      -0.02957600
H        2.39343715      13.70814287       5.26930933      -0.01864976       0.00288329      -0.00634363
H        3.32362657      13.04642626       6.67949918      -0.00538033       0.00336371      -0.01368549
H        1.10189727      12.84347594       7.72931575       0.00850505      -0.03546418      -0.00042731
H        0.28849415      13.12418287       6.16528015      -0.00688553      -0.00621444       0.01153240
O        9.92539860       9.73290212       6.42032695       0.00367170      -0.02397624       0.00220144
O       11.53487975      11.20645676       5.99742768      -0.01338223      -0.00901349      -0.00764236
O       10.09131935      11.60928906       7.66655487      -0.00619799      -0.02256197       0.00278282
C       10.60810232       9.21925524       5.25198144      -0.00297359      -0.01227814      -0.00702327
C       11.88482052      10.04354505       5.21518886      -0.00738382      -0.00747681      -0.00766170
C       10.48728445      10.92473174       6.77195370      -0.00500536      -0.02048677      -0.00288045
H        9.97231132       9.35718502       4.38078450      -0.00957820      -0.00597759      -0.00084856
H       10.79050812       8.15712920       5.40225157       0.00086027      -0.01281172      -0.01794479
H       12.73406006       9.55789178       5.69189941      -0.00583059      -0.00369877      -0.00689217
H       12.18178009      10.39010413       4.23206638      -0.00851642      -0.00687283      -0.00783449
