198
Lattice="13.091439849863061 0.0 0.0 0.0 13.091439849863061 0.0 0.0 0.0 13.091439849863061" Properties=species:S:1:pos:R:3:forces:R:3 energy=-337762.46875 stress="-0.00322018563747406 -0.001320470531936735 2.40138897424913e-05 -0.001320470531936735 -0.0022740033455193043 -0.0003474565892247483 2.40138897424913e-05 -0.0003474565892247483 -0.003611265914514661" pbc="T T T"
N        6.90764646       8.36233412       4.62917486      -0.00185859       0.00343642       0.00581239
C        6.28423386       9.71388349       4.93250883      -0.00372897       0.00160193       0.00905561
C        6.96666263       8.10321046       3.13719381      -0.00800644       0.00432244       0.00575042
C        6.08195639       7.27562337       5.28089418       0.00299329       0.00223854       0.00935903
C        8.32550372       8.34797757       5.16771990       0.00046641       0.00616372      -0.00083527
C        4.94973027       9.96026489       4.26924219      -0.00581187      -0.00080669       0.01264408
C        7.69727103       9.16593879       2.36033471      -0.01187122       0.00526959       0.00357442
C        6.65537499       5.88637386       5.12350936       0.00385244       0.00293761       0.00871304
C        8.43013201       8.30500933       6.67054135       0.00772087       0.00106822      -0.00172061
H        6.17866195       9.77119940       6.01316145      -0.00082377      -0.00015016       0.00920498
H        7.00315233      10.46939519       4.62327387      -0.00661817       0.00381485       0.00827177
H        7.47254626       7.14606350       3.02635284      -0.00850514       0.00460723       0.00292313
H        5.94077239       7.97469729       2.79274139      -0.00907177       0.00390729       0.00993250
H        5.99453889       7.53624036       6.33543732       0.00584437       0.00284960       0.00914755
H        5.09538548       7.32652264       4.82052690       0.00133237       0.00027120       0.01319610
H        8.82568025       7.50221879       4.70536228       0.00109340       0.00974983      -0.00645538
H        8.79408801       9.24551301       4.77092950      -0.00454604       0.00914547       0.00064952
H        4.60236305      10.93477474       4.60037174      -0.01155625      -0.00595626       0.02077301
H        5.03948006      10.01062524       3.18291561      -0.00706277       0.00861028       0.01339066
H        4.19763948       9.23049400       4.57523174      -0.00110006      -0.00770162       0.00656403
H        7.69470654       8.88616313       1.30888936      -0.01662078       0.00672344       0.00336760
H        7.23557002      10.15076339       2.43436430      -0.01159613       0.00483593       0.00736286
H        8.73961446       9.23797789       2.66013552      -0.01073942       0.00500962      -0.00127329
H        6.06936796       5.22886744       5.75852182       0.00809485       0.00412033       0.01351808
H        6.58063213       5.50507068       4.10719612      -0.00061836       0.00087051       0.00998732
H        7.68389197       5.80626440       5.47101653       0.00551772       0.00453863       0.00356516
H        9.47846393       8.45374947       6.93462952       0.00751309       0.00755097      -0.00575154
H        7.86221063       9.10088554       7.14258163       0.00418739      -0.00529183       0.00406158
H        8.10754395       7.36002289       7.10007726       0.01594152      -0.00261542      -0.00433654
I       11.40741032      14.68420092       1.99347986      -0.00106180      -0.00248124      -0.00404955
O       10.63446354       1.73280897       9.65225232       0.02865344      -0.00058487      -0.02618463
O       12.14577853       0.25091299      10.38633225       0.00929926      -0.01205945      -0.01052082
C       12.60649506       2.58494788      10.60077327       0.01016852      -0.01601040       0.02193001
C       11.78357128       1.41116084      10.19797529       0.01554263      -0.00587541      -0.00760566
H       12.30385767       3.45425989      10.01627195       0.01549336      -0.00472388       0.03715356
H       12.42932218       2.79125543      11.66056564      -0.00283222      -0.03452559       0.02300602
H       13.66131440       2.34238608      10.47983379       0.01161581      -0.01359346       0.03128675
H       10.18364019       0.88833827       9.35494185       0.01553995       0.00320619      -0.01724716
O        6.53313800       3.88923065      12.97874472       0.00019604       0.00130501       0.02004372
O        7.08648328       1.81088010      12.35921195      -0.01800424       0.01108909      -0.02986650
C        8.82844701       3.45868371      12.56725884      -0.00560665      -0.00280830      -0.00374304
C        7.42941787       2.93941227      12.61984153      -0.00614291       0.01019412      -0.00703508
H        9.09788919       3.58443350      11.51636158       0.00745101      -0.02173361      -0.00135542
H        8.91998374       4.41215152      13.08197545      -0.00399248       0.00307335      -0.01630116
H        9.50647091       2.72763889      13.01175888      -0.01367863       0.00070302       0.01363221
H        5.66649542       3.45509171      12.99487043      -0.00041103       0.00518635       0.02601123
O        9.17343658       4.52544169       7.44004304       0.00271517      -0.02457494       0.01977519
O       10.55925490       3.04499113       6.46486849      -0.00620194      -0.01164579      -0.01000127
C       11.39039550       5.21536840       7.05216186      -0.00934780      -0.00962812      -0.01195581
C       10.36225968       4.13878784       6.94850978      -0.00485921      -0.01414418      -0.00042638
H       11.34242172       5.83601428       6.15410119      -0.01924039      -0.01287207      -0.01327376
H       11.20704252       5.84969040       7.91779958      -0.00544966      -0.00840579      -0.01250042
H       12.38285283       4.77787670       7.07364568      -0.00741407      -0.00509879      -0.01863456
H        8.59954350       3.73465904       7.47593527       0.00583020      -0.02697974       0.02034740
O        2.68617508       8.72887242       2.28717744       0.00776982       0.00096078      -0.00688678
O        4.05761044       7.32657379       1.21757404      -0.00031263      -0.00986925       0.01110680
C        1.74906660       7.44667110       0.54532373       0.01224196      -0.00094578      -0.00692692
C        2.94744663       7.80785537       1.34797710       0.01817381      -0.00780639       0.00089575
H        1.37638810       6.48364408       0.90811271       0.01547404      -0.00571182      -0.01865590
H        0.98529521       8.21541146       0.61112832       0.01107584      -0.00429767      -0.00317882
H        2.02400149       7.30394667      -0.49542908       0.01775257       0.01052161      -0.00636509
H        3.49912594       8.86183633       2.79760858       0.00679088      -0.00111426      -0.00090763
O        4.56720818      12.79892083      11.70391126       0.00393659       0.00571959       0.00277072
O        5.88654681      11.38569759      10.57562490       0.00332884      -0.00517198       0.01191461
C        6.31904247      11.75244910      12.91285683       0.00127268       0.00768929       0.00951862
C        5.61167081      11.92146425      11.62036357       0.00041300       0.00170267       0.00945914
H        7.03467862      12.57595883      12.99399171      -0.00098947       0.00985149       0.00914545
H        5.64858622      11.83327678      13.76644956       0.00303586       0.00479191       0.01096801
H        6.85420874      10.80788244      12.89936574       0.00577146       0.01029044       0.01131301
H        4.23690579      12.95473174      10.80642686       0.00084211       0.00873652       0.00493205
O        2.97459893      12.33468000       0.82623777      -0.01407319       0.02226128      -0.00681043
O        1.66058237      10.62516183       0.22392415       0.01893932      -0.00556618      -0.02882302
C        1.38671234      11.62506627       2.40793618      -0.01422119      -0.00492039      -0.02043498
C        1.98130275      11.44424153       1.04609758       0.00248806       0.01913935      -0.00219494
H        2.14365944      11.43330199       3.17108860      -0.01790255       0.00592455      -0.01367247
H        1.04328254      12.65332003       2.53502166      -0.03030747      -0.01022321      -0.02096622
H        0.55682471      10.93722509       2.53663072      -0.00456452      -0.01693170      -0.02602136
H        3.30989422      12.22132194      -0.07967307      -0.00274244       0.02586842      -0.00132114
O        2.31853214      11.72780813       8.11277489      -0.00221898      -0.00523651       0.00653565
O        4.10443244      10.66087958       7.27476940      -0.00891441      -0.00986292       0.01625311
C        3.27772248      10.05518591       9.46091555      -0.00567455      -0.00078258       0.01394123
C        3.31504668      10.81900861       8.17828424      -0.00043720      -0.00538222       0.00503153
H        3.37410239      10.73379742      10.30592194      -0.00962259       0.00200357       0.01127255
H        2.30880551       9.56872393       9.58013128      -0.00441292      -0.00247353       0.01247164
H        4.08212264       9.32720679       9.48736638      -0.00450793       0.00120540       0.01651834
H        2.26170698      12.13290199       7.21419230      -0.00174305      -0.01167351       0.00183946
O        8.58951500       7.15276914      11.12224151       0.00372994       0.00504345      -0.00204664
O        8.15260686       9.05652904      12.19610612       0.00945604       0.00040990       0.01137657
C        6.36163115       7.48493929      11.86277952       0.00702423       0.00313261      -0.00088019
C        7.75538091       7.99879634      11.76537601       0.00790931      -0.00107223       0.00176302
H        5.95204240       7.39822681      10.85435012       0.00786357       0.00989825      -0.00153291
H        6.34982757       6.48755753      12.30530090       0.00561842       0.00051838      -0.00739971
H        5.75019480       8.15873648      12.45370782       0.00750770      -0.00045145       0.00271676
H        9.47764778       7.58772092      11.08599963       0.00726888       0.00493869      -0.00214639
O       10.40610481      12.35687590      -0.75298919       0.00757946      -0.00066632      -0.00227344
O       11.81466516      10.61359212      -0.75901082      -0.01214039      -0.01753157      -0.00219750
C       10.17457310      10.78830867       0.97921454       0.00395286       0.01671660       0.01060277
C       10.88996013      11.21695633      -0.25414004      -0.00512075      -0.00072844       0.00318259
H       10.44205557      11.47536115       1.78658223       0.01242613       0.02634501      -0.00088495
H        9.10113002      10.85793137       0.82488977       0.00326416       0.02150591       0.01689789
H       10.45504656       9.76796155       1.22364447      -0.00123595       0.01893117       0.02218005
H       11.03759031      12.66824705      -1.43262840       0.00571215      -0.01113711      -0.00718056
O       12.73903247      11.44965172       7.22135311      -0.00688082       0.01964512       0.00949529
O       14.13385402      12.63779162       5.92789858       0.00978512      -0.01976044      -0.00521210
C       11.78821307      12.62032425       5.39944879       0.01050633       0.01475748      -0.00203189
C       13.00275023      12.26048718       6.18428321       0.00396639       0.00275788      -0.00032830
H       11.87748566      12.21963573       4.38731823       0.01292934       0.02476698      -0.00532708
H       10.88096552      12.25258972       5.87319489       0.00684522       0.01631940      -0.00880603
H       11.73763365      13.70214315       5.27419929       0.01623656       0.01612312       0.00854046
H       13.57303028      11.30245673       7.70868221      -0.00949770       0.01017120       0.00865421
O        8.43193347       1.87836155       7.60708118      -0.00801116      -0.01695921      -0.01256764
O        7.45110172       0.03957694       6.76646201      -0.00468993      -0.01438630      -0.01806170
C        6.68269253       0.93688300       8.86561354      -0.01747537      -0.01523368      -0.02361327
C        7.52717707       0.87132818       7.63455102      -0.00925501      -0.01584780      -0.01779515
H        7.01562992       1.71046525       9.55302334      -0.01659727      -0.02172312      -0.01728749
H        5.64176996       1.10819734       8.58755995      -0.01357101      -0.00477016      -0.03079166
H        6.73291592      -0.03277857       9.35546384      -0.02848252      -0.01754692      -0.02785521
H        9.06330607       1.78625337       6.86781355      -0.00804567      -0.01500945      -0.01266465
O        7.33277879       4.98907634       9.90027195      -0.00105596      -0.00558233       0.01031515
O        6.46893703       6.54994214       8.54276164       0.01400601      -0.00813687      -0.00181118
C        5.66384574       4.29057203       8.39463967       0.00386357      -0.00488347       0.00515348
C        6.50674207       5.40089704       8.93046945       0.00682591      -0.00759625       0.00500637
H        6.21288631       3.78591726       7.59589896       0.00422508      -0.00940511       0.00868462
H        5.43818648       3.55229865       9.15788279      -0.00279126      -0.00134119       0.00650591
H        4.74050412       4.70220735       7.99983590       0.00771816      -0.00192237      -0.00017264
H        7.85773951       5.75838979      10.20845385       0.00269349      -0.00587216       0.00728475
O        1.63144849       4.87589373      10.51309357       0.00783575       0.00008768       0.00164238
O        3.05789320       3.20816891      10.07126139       0.00969049       0.00161219       0.01789713
C        3.86304650       5.21168958      11.15437367       0.00717759       0.00972372      -0.00249621
C        2.86062247       4.31202610      10.52254784       0.00870571      -0.00151110       0.00594366
H        3.79256388       6.20585978      10.71659854       0.01355162       0.00055236      -0.02243419
H        3.61941964       5.28000790      12.21494326       0.00231142       0.03158996      -0.00625837
H        4.86239736       4.80744118      11.03732203       0.00595485       0.00407307       0.01160259
H        1.03697427       4.21298621      10.13463859       0.00940046      -0.00494891       0.00639087
O       10.93435635      10.97040636       9.63608604      -0.00921690       0.01850969      -0.01424444
O        9.60175540      12.59213971       8.85557965      -0.03417717       0.01689893       0.02974278
C        8.65922494      10.45476708       9.27102403      -0.00691205      -0.00095230       0.00544179
C        9.76693710      11.43662661       9.21498544      -0.01877425       0.00869614       0.00918654
H        9.00567866       9.43172920       9.15519159       0.00569151       0.00508787      -0.00347958
H        8.19758972      10.54624513      10.25670164      -0.00493968      -0.01399468       0.00706217
H        7.90312072      10.71993887       8.53793315      -0.01300383      -0.00673172       0.00990494
H       11.54742205      11.73545198       9.75233625      -0.01534089       0.02328378      -0.01604521
O        2.52278743       6.80575390       4.35429871      -0.00044996      -0.00023639      -0.00109267
O        0.96214266       5.62453647       5.44113210      -0.00550097      -0.00813835      -0.01404864
C        3.25351308       4.90390838       5.53840187      -0.00205880       0.00008866       0.00078303
C        2.11910775       5.77959416       5.12142451       0.00099546      -0.00367485      -0.00605525
H        3.85048031       4.63980668       4.66441677       0.00042823      -0.00168905       0.00308934
H        3.87191342       5.46732263       6.23853966      -0.00449477       0.00267731       0.00072347
H        2.86395192       4.02415879       6.04430832      -0.00193177       0.00043793       0.00137797
H        1.72542011       7.29157511       4.07227210       0.00052017      -0.00307477      -0.00498808
O        3.41072795       4.78555289       2.32463740      -0.00175381      -0.00846457       0.00788879
O        2.38156974       3.88561479       0.55020127       0.01612183      -0.00573580      -0.00305450
C        1.61895824       3.32743779       2.76858817      -0.00515544      -0.00991514      -0.01184124
C        2.48728716       3.98770260       1.75295259       0.00443910      -0.00780415      -0.00156468
H        2.22256428       2.92076091       3.57652872      -0.01402065      -0.00258148      -0.00200520
H        0.94395412       4.06769157       3.20685086      -0.01491297      -0.01189886      -0.02387786
H        1.01073366       2.55132558       2.31415810       0.00770666      -0.01749194      -0.01647108
H        3.86132824       5.30793612       1.63853757       0.00408651      -0.00693224       0.01296204
O       13.03608560       7.50491828       3.20633082       0.00745118       0.01163888      -0.00856209
O       10.81402907       7.49953944       3.43709975       0.01714069       0.01346441      -0.00005940
C       12.15142343       8.84386586       4.93201352       0.01122900       0.00980878      -0.00589490
C       11.88995249       7.90233825       3.80337419      -0.00246936       0.00539581      -0.01010808
H       12.50403219       8.26996403       5.79153237       0.01184086       0.00882214      -0.00739861
H       12.93903317       9.55237895       4.68109925       0.01045957       0.00846352      -0.00785427
H       11.24067171       9.36809052       5.20433684       0.01124051       0.00908624      -0.00555191
H       12.79211145       6.83961409       2.54539758       0.00361165       0.01464617      -0.01156038
O       11.02978825       8.30627304      11.02599559       0.01373652       0.00739193      -0.01016171
O       13.26069572       8.12950026      11.10516926      -0.01121849      -0.01376975       0.00419214
C       11.91238196       6.23469211      11.74244823       0.00164644       0.00615269      -0.00669974
C       12.18115535       7.63199683      11.27024302       0.01705909      -0.00738442      -0.00375885
H       11.31161319       6.25663805      12.65329580       0.00354551       0.00227118       0.00219379
H       11.32503533       5.69074848      10.99977845      -0.01304230      -0.00022053      -0.00053366
H       12.84996163       5.71781207      11.91840056      -0.00472441      -0.00926723      -0.00878648
H       11.23620772       9.26470670      10.96674239       0.00746217      -0.00515503       0.00960879
O        6.36733089       2.66881462       5.43844764       0.00787807       0.00438130      -0.01174869
O        6.13182048       3.16789462       3.27036772       0.01331466       0.00481772      -0.01187301
C        8.16543359       2.09635198       4.00866335       0.00465828      -0.00926003      -0.00946282
C        6.81100037       2.69045024       4.14586126       0.00940973       0.00034428      -0.01077545
H        8.90864186       2.77032432       4.44418674       0.00885589      -0.01640269      -0.00638067
H        8.21899715       1.15490921       4.55623310      -0.00377212      -0.01105455      -0.01211759
H        8.41660275       1.94939985       2.96363191       0.00611025      -0.00856783      -0.00897703
H        5.47697009       3.04866147       5.41813799       0.01175034       0.01231775      -0.01355302
O        2.44341372       8.38458383       6.97387183      -0.02803850       0.01706828      -0.00750561
O        3.14602127       6.69706373       8.27183208      -0.00416625       0.03181291      -0.01582159
C        0.80367435       7.27697872       8.22678882      -0.00589943      -0.00960498      -0.00579934
C        2.24341809       7.38982917       7.86578705       0.00038087       0.00821406      -0.00723827
H        0.39740765       8.25294841       8.48944972      -0.01771339      -0.01704055      -0.00209708
H        0.27573378       6.90182867       7.35141878      -0.00214817      -0.01462135      -0.00570974
H        0.69140967       6.59278231       9.05886878       0.00798275      -0.01364230      -0.00817622
H        3.40003851       8.49756372       6.85220083      -0.02806544       0.03414129      -0.00776751
O        3.94696089       1.27653350       2.45664079      -0.00524062       0.00100029       0.01515651
O        5.49011656      -0.27583816       2.95587423      -0.01164442      -0.00653386       0.01013416
C        4.08149346       0.59230904       4.69845817       0.00058213       0.00300651       0.01434392
C        4.60799424       0.47829571       3.30159686      -0.00583726      -0.00111067       0.01310953
H        3.69918214       1.59219269       4.89555866       0.00885536       0.00558726       0.01423788
H        3.22697806      -0.08177983       4.79454982      -0.00431578       0.01011522       0.01709051
H        4.84702018       0.30839725       5.41617191       0.00009616      -0.00176074       0.01255086
H        4.20227877       1.03008480       1.55524248      -0.01338297      -0.00334418       0.01448184
