186
Lattice="13.084019651328502 0.0 0.0 0.0 13.084019651328502 0.0 0.0 0.0 13.084019651328502" Properties=species:S:1:pos:R:3:forces:R:3 energy=-125711.0859375 stress="-0.001861555385403335 -0.00011756583990063518 0.0007226101879496127 -0.00011756583990063518 -0.0009308545268140733 0.0010189451277256012 0.0007226101879496127 0.0010189451277256012 -0.0020901078823953867" pbc="T T T"
N       10.94401686       9.55685471       2.13110539       0.00102306       0.00173325      -0.00769432
C        9.65390605      10.24849517       1.82504979       0.00046092       0.00066835      -0.00679458
C       11.63964318       9.21836419       0.84881353       0.00212455       0.00569308      -0.00789332
C       10.67575725       8.31855110       2.90844823       0.00256930      -0.00034589      -0.01029187
C       11.81556352      10.46697919       2.93741020      -0.00062066       0.00146675      -0.00589800
H        9.87102262      11.09557160       1.16460592      -0.00065456       0.00481603      -0.00200668
H        9.00402278       9.53323223       1.32144511       0.00230332       0.00151135      -0.01007295
H        9.20740014      10.54921540       2.76965103      -0.00107703      -0.00394655      -0.00612915
H       12.56354003       8.70326111       1.09738450       0.00161213       0.00474243      -0.00893582
H       10.98515975       8.56154881       0.27973273       0.00274935       0.00811739      -0.01133686
H       11.83011215      10.14806913       0.31746164       0.00388889       0.00740349      -0.00387962
H       11.62003031       7.84298434       3.14878885       0.00333405       0.00032527      -0.01183312
H       10.13566746       8.59652206       3.81041659       0.00308789      -0.00283281      -0.00947653
H       10.07227882       7.64869236       2.30197650       0.00296493       0.00040053      -0.01114720
H       12.71641287       9.91634136       3.19337996       0.00054272       0.00314446      -0.00713762
H       12.05712427      11.33091921       2.31502915      -0.00360238       0.00344735      -0.00396603
H       11.27078567      10.73836831       3.83990296      -0.00123732      -0.00172450      -0.00532892
O       10.50580226      12.31489919      -0.18646829      -0.01792479       0.03199303       0.01529258
O       12.58406068      12.31912011       0.67160940      -0.00651884       0.00041282      -0.01133192
C       11.61457102      12.83086180       0.05962972      -0.00178416       0.00804448      -0.01177412
H       11.76358327      13.88401593      -0.30791903       0.01872183      -0.00955427      -0.04189295
O        3.39496362       4.63761016       8.33092050      -0.00570163       0.00340270      -0.00021321
O        4.49386551       6.09972619       9.45941395      -0.00943148       0.01125962      -0.00816060
O        2.46692691       6.69005309       8.62868873      -0.01370513       0.00116056      -0.00473486
C        2.22346663       4.16589649       7.62080411      -0.00316352       0.00025666       0.00020348
C        2.32673820       2.66362569       7.58113624       0.00309324       0.00146222      -0.00457131
C        3.35696739       5.88734917       8.76827379      -0.00825727       0.00535351      -0.00243352
C        4.54350787       7.34208649      10.17033881      -0.01269101       0.01168838      -0.00750941
H        1.33721212       4.49488065       8.16467426      -0.00364152      -0.00450610       0.00142869
H        2.21960185       4.62110567       6.63089744      -0.00649429       0.00345412       0.00125754
H        1.46829539       2.25231193       7.04870534       0.00263815      -0.00100910      -0.00135981
H        3.23771400       2.35728609       7.06603639       0.00198448       0.00662878      -0.00882644
H        2.34723947       2.24826984       8.58860635       0.00955277      -0.00052212      -0.00552776
H        4.64048235       8.18265096       9.48559476      -0.02532388       0.01252171      -0.00739053
H        5.42124455       7.27425680      10.80825972      -0.00710161       0.01818213      -0.01517780
H        3.64359830       7.47319998      10.77070457      -0.00815108       0.00375373       0.00037809
O        3.84470313      11.21175156       9.43306667      -0.00340977       0.00268989      -0.00211383
O        4.41314979      11.94295923       7.48024307       0.00322947       0.00000400      -0.00075963
O        2.21211962      11.82968354       7.98996151       0.00113428       0.00816028      -0.00582916
C        2.82598535      10.84055937      10.40565051      -0.00628269       0.00798631      -0.00350809
C        3.53214377      10.61959867      11.71397585      -0.01033184       0.00799545      -0.00156349
C        3.37341143      11.67614997       8.28324455       0.00214016       0.00361462      -0.00270447
C        4.03967190      12.40213094       6.17546235       0.00797027       0.00314068      -0.00065653
H        2.09590041      11.64562580      10.47153082      -0.00361678       0.01049614      -0.00666380
H        2.31934733       9.94455086      10.04090922      -0.00853723       0.00900492      -0.00289662
H        2.81238030      10.28746736      12.46237978      -0.01302266       0.01096290      -0.00310642
H        4.31009128       9.86071217      11.61750170      -0.01210247       0.00602618       0.00153042
H        3.98320430      11.54604606      12.06751186      -0.00920057       0.00734845      -0.00150377
H        3.60823822      11.58379489       5.59704668       0.00325817       0.00679323      -0.00186161
H        4.95908532      12.74853474       5.71648377       0.01055625      -0.00250567       0.00067204
H        3.31460032      13.20975457       6.24225963       0.01333264       0.00791653      -0.00079956
O        0.89877927       7.96062075       3.89384662      -0.00012472      -0.00891598       0.00816634
O        0.57688561       6.77684662       2.12489245       0.00261686       0.00077447       0.01013618
O        1.43349148       5.75528685       3.95744517       0.01123631      -0.02408659       0.01437956
C        1.47400723       8.14983642       5.21457215      -0.00756273      -0.00536293       0.00796863
C        1.08689632       9.52714161       5.67257500      -0.00235589      -0.00624454       0.01198307
C        1.01838630       6.73054779       3.38852548      -0.01400444       0.03220618      -0.01464695
C        0.67088469       5.53236407       1.41947960      -0.00173041       0.00774944       0.00014943
H        1.11726190       7.36668066       5.88182947      -0.01285829      -0.00646615       0.00795633
H        2.55221239       8.02929695       5.12423837      -0.00606906      -0.01080809       0.01471210
H        1.55939094       9.74521360       6.62940278      -0.00598911      -0.00892366       0.01242639
H        1.40846515      10.28633747       4.95749998       0.00244728      -0.00658751       0.01298025
H        0.00749882       9.61039595       5.80332313      -0.00308400      -0.00263221       0.00678286
H        1.70575092       5.35926055       1.12879059      -0.00037640       0.00208875       0.00478050
H        0.03503035       5.63882582       0.54785573       0.00326499       0.00991207      -0.00139265
H        0.31581914       4.72147279       2.04228689      -0.00750792       0.00470208      -0.00278288
O       11.08523995      10.34972242       8.31393803       0.00522177      -0.00178200       0.00259338
O       10.10098945       8.54822738       9.00256385       0.00340763      -0.00291216      -0.00485572
O       12.08620763       9.11865396       9.93274107      -0.00711548       0.00315869       0.01502514
C       12.22300308      11.24870330       8.34844724       0.00338769      -0.00014257       0.00925422
C       12.02433165      12.28253130       7.27347625       0.00864305      -0.00098428       0.00772575
C       11.18158247       9.32483457       9.16186384      -0.00168657       0.00018217       0.00376469
C       10.08464332       7.39530811       9.85714329      -0.00295559      -0.00182463      -0.00410238
H       12.28528115      11.69319083       9.34238954      -0.00336524       0.00054841       0.00924313
H       13.12789436      10.66847294       8.18803971       0.00518101       0.00125510       0.01504058
H       12.92275320      12.89467473       7.20175098       0.00845987      -0.00043180       0.01246190
H       11.85787269      11.80765953       6.30515832       0.01453698      -0.00152709       0.00724284
H       11.17764872      12.93288354       7.48906090       0.00703394      -0.00180680       0.00272390
H       10.95704058       6.77026358       9.67192584       0.00039697       0.00008062       0.00579076
H        9.18246610       6.84910352       9.60633385       0.00151563      -0.00446598      -0.01295666
H       10.08150956       7.70526661      10.90212711      -0.01487124      -0.00112155      -0.00460985
O        5.65713456       7.39659872       5.56996885      -0.00696364       0.00173074      -0.00592777
O        5.40503833       5.66837443       4.29309139      -0.00957528       0.00659376       0.00061647
O        3.82466151       6.09014645       5.84887678      -0.01685143      -0.00844055       0.02218330
C        5.16127074       8.34455165       6.55318477       0.00573117       0.00501999      -0.00539817
C        6.32649567       8.88864966       7.33708056       0.00507271      -0.00407501       0.00048321
C        4.85606354       6.36173651       5.28960144       0.03362119       0.01121734      -0.01753646
C        4.62943182       4.54178780       3.84482158       0.00145379      -0.00038694       0.00613023
H        4.65580586       9.13970538       5.99616225       0.00882144       0.01018167      -0.00079802
H        4.42082301       7.84292437       7.17484653       0.00034419       0.00661227      -0.00537854
H        5.96472427       9.65293294       8.02646323       0.00985794      -0.00386827       0.00057168
H        6.81565185       8.10201904       7.91276243      -0.00048294      -0.00890563      -0.00136400
H        7.06035921       9.34329906       6.67552955       0.00980347      -0.00791945       0.00156693
H        4.44720198       3.84972165       4.66608395       0.02567174      -0.00722404       0.00737077
H        5.22968939       4.07290008       3.07154297      -0.01277009       0.00750852      -0.00685790
H        3.67250126       4.87601917       3.44930098      -0.01190588      -0.01150680       0.02794615
O       10.81249823       2.65262734       2.94654962      -0.00419499      -0.00278670       0.00510179
O        9.20085869       3.52203461       1.80689696      -0.00773665      -0.00584364       0.00757444
O       10.92507247       4.85626037       2.42098095      -0.00669560      -0.00499499      -0.00074777
C       12.07701207       2.74714248       3.64476213      -0.00279294      -0.00042987       0.00035041
C       12.37042981       1.38904291       4.22271047       0.00519848      -0.00121605      -0.00645418
C       10.36635508       3.78323950       2.40176379      -0.00649962      -0.00282866       0.00310144
C        8.63504985       4.62633500       1.07847890      -0.00943500      -0.00831138       0.00459068
H       12.85083057       3.04836336       2.94037919      -0.00663590       0.00628804      -0.00073817
H       12.00403283       3.52839515       4.40039524      -0.00313488      -0.00420713       0.00441709
H       13.32455899       1.42241161       4.74882883       0.00646366       0.00093118      -0.00911293
H       11.60020018       1.09101857       4.93338085       0.00876105      -0.00769588      -0.00561590
H       12.44107743       0.64357303       3.42937819       0.00608568       0.00281928      -0.00986537
H        8.37544736       5.43817281       1.75520173      -0.01221259      -0.00751008       0.00220147
H        7.74490998       4.23227489       0.59682142      -0.00771084      -0.01150706       0.00425582
H        9.34625272       4.98451148       0.33356479      -0.00917205      -0.00863405       0.00498435
O        9.87919491       2.34151702       6.49314066       0.00604598      -0.00649900       0.00267889
O       11.30232006       3.91616907       6.94579943       0.00390028      -0.00443646       0.00281386
O        9.66787492       4.33064999       5.44191122      -0.00213787      -0.00554806       0.01397169
C        8.76819158       1.84695165       5.69236258       0.00330637      -0.00671715       0.00600457
C        8.32965144       0.53205531       6.27745389       0.00837011      -0.00851476       0.00537536
C       10.22746774       3.59883113       6.22281536      -0.00221860      -0.00126433       0.00184333
C       11.69077958       5.29672653       6.81459918      -0.00091921      -0.00331283       0.00747117
H        7.97176595       2.58991850       5.71914176       0.00238791      -0.00852078       0.01113930
H        9.11940511       1.75791142       4.66325163      -0.00081280      -0.00423791       0.00475153
H        7.53620805       0.11352204       5.65837584       0.00447387      -0.00731470       0.00965989
H        9.14726469      -0.18747423       6.30083301       0.00855029      -0.00819290      -0.00191413
H        7.94494296       0.66824442       7.28674389       0.01479217      -0.01140711       0.00798717
H       12.08503224       5.48156975       5.81503429      -0.00914323       0.00350487       0.00569892
H       12.46366438       5.45821816       7.55839201       0.00482829      -0.00596015       0.00206538
H       10.83503503       5.94223466       7.00362094      -0.00008035      -0.00633919       0.01793780
O        3.49854395       3.22254852      11.16357395      -0.00773838      -0.00432754       0.00080862
O        5.03839397       1.76110451      10.78629493      -0.01098423      -0.00695762      -0.00184647
O        5.37149639       3.28603267      12.43066956      -0.00636888      -0.00858641      -0.00266826
C        3.01605651       4.36361827      11.89134438      -0.00201869      -0.00010520      -0.00179860
C        1.66067094       4.71570650      11.33207736      -0.00291303       0.00110385       0.00161138
C        4.70345161       2.79577030      11.54850096      -0.00704879      -0.00644293      -0.00012034
C        6.24567674       1.09793014      11.18601211      -0.01005000      -0.00815618      -0.00559756
H        2.97528210       4.10562271      12.95244663       0.00115417       0.00458229      -0.00093383
H        3.73125998       5.17905288      11.77960791      -0.00027674      -0.00281546      -0.00856764
H        1.31135429       5.65526365      11.75567076       0.00293800       0.00564213      -0.00414833
H        1.70838531       4.84256976      10.25529961      -0.00705134      -0.00742755       0.00055474
H        0.92498922       3.94046755      11.54565115      -0.00510664       0.00615267       0.01109251
H        7.05231126       1.81436481      11.31383917      -0.00949866      -0.00886026      -0.00607691
H        6.47954497       0.40813465      10.38248288      -0.01307201      -0.00724870      -0.00713050
H        6.06928911       0.56082417      12.11716045      -0.00854644      -0.00943263      -0.00625271
O        4.20043488       1.49890064       2.35212343       0.00973494       0.00820249      -0.00343809
O        2.15175079       1.84443843       1.74071791       0.01012321       0.00870412      -0.00398365
O        3.57128390       0.88620136       0.26277179       0.00312032      -0.01450500       0.00638181
C        5.57587167       1.22454911       1.99026330       0.00852834      -0.00016860      -0.00187212
C        6.35131166       1.01140923       3.25962743       0.00822334       0.00367673      -0.00114435
C        3.32750650       1.36470782       1.34409439       0.00800677      -0.00104639      -0.00082791
C        1.12235571       1.75378804       0.73019439       0.00753665      -0.00362474       0.00023293
H        5.60133707       0.34469655       1.34810461       0.00443874      -0.00375170       0.00340620
H        5.94327139       2.07232040       1.41003706       0.01195461      -0.00503615      -0.00629923
H        7.40946714       0.89803667       3.02259294       0.00732954      -0.00345112      -0.00122777
H        6.24268905       1.85855591       3.93717418       0.01375791       0.00827561      -0.00639932
H        6.01166266       0.11133274       3.77233888       0.00392178       0.00887534       0.00463552
H        1.33211766       2.46671487      -0.06431541       0.01600168      -0.02995385      -0.01920104
H        0.19413754       1.99932150       1.23419733       0.01265512       0.02462811      -0.00579885
H        1.04526709       0.74244574       0.34527104      -0.00880110      -0.01190716       0.02794857
O        6.39887784       8.95395220       2.68299450       0.00033418       0.00198327      -0.00159638
O        7.62997973       7.30377579       3.29982032       0.00157095       0.00114122      -0.00585768
O        7.81285741       9.27019045       4.42027853       0.00296479      -0.00034487      -0.00210744
C        5.95253396      10.31818185       2.81663093      -0.00200319      -0.00013067       0.00436088
C        4.77611232      10.47976009       1.89234274      -0.00215471       0.00288858       0.00533357
C        7.32863020       8.56729382       3.56257120       0.00092080      -0.00138754      -0.00451797
C        8.36424126       6.57446399       4.30356198       0.00189574      -0.00076474      -0.00757545
H        5.69554532      10.50471392       3.86157991      -0.00270455      -0.00535614       0.00509334
H        6.77490658      10.98706810       2.54973279      -0.00316569       0.00283366       0.00814430
H        4.40963931      11.50690766       1.90868434      -0.00667753       0.00085519       0.01436774
H        5.06333536      10.23951959       0.87041431      -0.00137708       0.01349797       0.00333139
H        3.96055039       9.81759399       2.18395713       0.00050469      -0.00269543      -0.00123522
H        9.36361039       6.35644399       3.94043128      -0.00175136      -0.00841156      -0.01290315
H        7.83213643       5.64259970       4.44452257      -0.00323144       0.00349894      -0.00043579
H        8.40165126       7.13725435       5.23291146       0.01149186       0.00237705      -0.01009738
O        8.47385626       2.32770606       9.23690611       0.00288931       0.00125640       0.00530143
O        7.05916520       3.50970210       8.12422896       0.00243020      -0.00044762       0.00474606
O        8.97550365       4.49672549       8.81974692       0.00370759       0.00061214       0.00178205
C        9.79839912       2.12949948       9.79911576       0.00292678       0.00163829       0.00466600
C        9.91201983       0.67549291      10.15994592       0.00589470       0.00076658      -0.00146188
C        8.24439711       3.53642537       8.74038760       0.00215691      -0.00077236       0.00381231
C        6.69740866       4.74682886       7.49117169       0.00245640      -0.00119513       0.00340372
H       10.52645460       2.43273649       9.04708756       0.00206360       0.00571996       0.00579891
H        9.90660457       2.78341758      10.66694431       0.00192228      -0.00161251       0.00711644
H       10.93130391       0.45496366      10.47298136       0.00704095       0.00176035      -0.00503632
H        9.27527337       0.39894801      10.99776426       0.00844468      -0.00305778      -0.00102073
H        9.67036688       0.04750196       9.30151062       0.00538165       0.00426408      -0.00374329
H        6.71837683       5.56008029       8.21172371      -0.00055753      -0.00113121       0.00320360
H        5.68271868       4.59767722       7.13759782       0.00320536      -0.00270193       0.00157056
H        7.38267755       4.95946333       6.67137234       0.00363010      -0.00083956       0.00507221
