199
Lattice="13.36419063032441 0.0 0.0 0.0 13.36419063032441 0.0 0.0 0.0 13.36419063032441" Properties=species:S:1:pos:R:3:forces:R:3 energy=-65985.9921875 stress="-0.0007620014366693795 8.474838978145272e-05 0.00021551051759161055 8.474838978145272e-05 -0.0013160500675439835 9.057313945959322e-05 0.00021551051759161055 9.057313945959322e-05 -0.0004482362128328532" pbc="T T T"
N       11.25330017      11.20644844       2.09734884      -0.00010159       0.00416970      -0.00156038
C        9.87109141      10.67532879       1.97303205       0.00066996       0.00200555      -0.00112963
C       12.01364287      10.92089915       0.83740861      -0.00150144       0.01135561      -0.00413591
C       11.94039776      10.57116160       3.25432629       0.00320214       0.00087929      -0.00539035
C       11.19137554      12.68201901       2.33335937      -0.00176281       0.00304747       0.00351220
H        9.40399858      11.15499802       1.11679269      -0.00100137       0.00397228       0.00068535
H        9.91411017       9.60262046       1.81953682       0.00145268       0.00290754      -0.00392735
H        9.31676719      10.90745185       2.88078639       0.00158096      -0.00032349       0.00005879
H       12.97882707      11.41892166       0.90052458      -0.00387694       0.01585795      -0.00548059
H       12.07930800       9.83788865       0.72554754       0.00333182       0.01182538      -0.00728852
H       11.48688134      11.38827827       0.01148296      -0.00652179       0.00985299      -0.00170799
H       12.93431486      11.00291345       3.33578166       0.00388227       0.00035705      -0.00754904
H       11.36644500      10.77742310       4.15430618       0.00639291      -0.00103376      -0.00317149
H       12.00838136       9.49839139       3.09089008       0.00233127       0.00152944      -0.00804833
H       12.20184884      13.08958946       2.30598786      -0.00361991       0.00546572       0.00255124
H       10.67582659      13.14020782       1.49426694      -0.00606931       0.00440560       0.00727548
H       10.67313406      12.83879189       3.27692100      -0.00077631      -0.00128616       0.00596631
O       12.80651089      13.69555132       0.43295300      -0.00697488       0.01520750       0.03248447
H       13.38745587      14.21648673      -0.12650370       0.01181936       0.04022527       0.02024049
C        3.03818178       3.55163353       5.75836330      -0.00792119      -0.00214136       0.00048083
C        2.43533791       4.40250143       6.86833437      -0.00918853      -0.00056642      -0.00137573
C        2.65465189       2.07913278       5.85828206      -0.00729340      -0.00211331       0.00239402
C        2.81286713       5.87688215       6.79337546      -0.00693503      -0.00115490      -0.00206837
C        3.20484044       1.24327901       4.71223969      -0.00911021      -0.00277093       0.00190482
C        2.19512806       6.69746848       7.91762875      -0.00867580       0.00119245      -0.00473014
H        2.71641221       3.94327393       4.78646738      -0.00729944      -0.00382736      -0.00022477
H        4.13159909       3.64657418       5.77520184      -0.00801745      -0.00170528       0.00122663
H        2.74575199       4.00283101       7.84070891      -0.01194436      -0.00006387      -0.00043878
H        1.34339690       4.30913612       6.84147824      -0.00918972       0.00099534      -0.00388678
H        3.01112732       1.67547260       6.81255409      -0.00567248      -0.00122301       0.00200889
H        1.56441866       1.99651355       5.88582903      -0.00719842      -0.00245647       0.00415319
H        3.90367919       5.97232215       6.82351434      -0.00688717      -0.00279087       0.00097860
H        2.50144447       6.28127034       5.82394050      -0.00360592      -0.00188175      -0.00319225
H        2.88518629       1.64211969       3.74698319      -0.01148193      -0.00377968       0.00244069
H        2.86977069       0.20640166       4.76935954      -0.00876713      -0.00281925       0.00351499
H        4.29502252       1.24334348       4.72350442      -0.00910768      -0.00243558      -0.00044233
H        1.10427860       6.66089032       7.87661511      -0.00860851       0.00226387      -0.00742501
H        2.49737449       6.30992954       8.89265637      -0.01154894       0.00238543      -0.00342830
H        2.49826433       7.74446084       7.87202477      -0.00760707       0.00069571      -0.00575710
C        5.87280374       4.41791980       8.95319612       0.00188175      -0.00109392       0.00234944
C        4.93337337       4.73314254      10.10920912       0.00090089      -0.00003523       0.00132933
C        5.79423922       2.98261290       8.44644921      -0.00011083      -0.00048122       0.00111823
C        5.00277263       6.19027211      10.55047423       0.00207818       0.00003254       0.00060028
C        6.76393598       2.71518711       7.30421040       0.00048012      -0.00103701       0.00168422
C        4.04150205       6.51061519      11.68574835       0.00345695       0.00210950       0.00110140
H        5.65164329       5.09823716       8.12351496       0.00443134      -0.00003980       0.00258574
H        6.90421438       4.64111152       9.25487483       0.00181451      -0.00329318       0.00401628
H        5.16571475       4.08907298      10.96487195      -0.00051630      -0.00002314       0.00165448
H        3.90406562       4.48916732       9.82067941       0.00103500       0.00096044       0.00027465
H        5.99756799       2.28943641       9.26659343      -0.00186940      -0.00147831       0.00063542
H        4.77097381       2.77297890       8.11869885      -0.00007060       0.00157687       0.00002883
H        6.02827147       6.41877464      10.86033259       0.00247350      -0.00046046      -0.00040248
H        4.79440316       6.83832150       9.69229496       0.00191864      -0.00044689       0.00027582
H        6.58533257       3.40073464       6.47241030       0.00246805       0.00017820       0.00235526
H        6.67018433       1.69686436       6.92223208      -0.00101247      -0.00033292       0.00048518
H        7.79777608       2.85792918       7.62781681       0.00032651      -0.00331687       0.00282608
H        3.00582817       6.32588176      11.39046501       0.00308304       0.00212839       0.00246760
H        4.24884515       5.88467322      12.55631566       0.00401448       0.00364384       0.00200380
H        4.11621951       7.55387969      11.99790234       0.00433117       0.00254503      -0.00085404
C        3.72576738      10.82312080       8.31119273       0.00120186       0.00402594       0.00121321
C        4.64382876      11.58201903       7.36205560      -0.00087009       0.00491661       0.00021714
C        2.57748963      11.66265026       8.85705816       0.00002867       0.00113302       0.00158627
C        5.78094516      10.72439245       6.82072992       0.00057440       0.00685340       0.00050025
C        1.68915576      10.89132092       9.82420095       0.00361529      -0.00257197       0.00049761
C        6.68087142      11.47294502       5.84777732      -0.00163969       0.00735387      -0.00123373
H        3.31612254       9.94949422       7.79009924       0.00243418       0.00291654       0.00204442
H        4.31456664      10.42427953       9.14686647       0.00231750       0.00545128       0.00104272
H        5.06170041      12.45579480       7.87740491      -0.00256300       0.00640726      -0.00075184
H        4.05627179      11.97708529       6.52485251      -0.00203697       0.00295428       0.00023687
H        2.98353707      12.54861780       9.35680915      -0.00222930       0.00209343       0.00198492
H        1.97900002      12.03741875       8.01928027      -0.00170165       0.00031681       0.00240240
H        6.37518242      10.34954612       7.66071336       0.00212385       0.00911681       0.00034043
H        5.36319331       9.83864865       6.32941345       0.00216328       0.00547147       0.00185749
H        1.28684896       9.99023684       9.35509457       0.00532711      -0.00321463       0.00191176
H        0.84647083      11.49150981      10.16635439       0.00072047      -0.00750378      -0.00756204
H        2.25378744      10.57555912      10.70428329       0.00190262       0.00185103       0.00257903
H        6.11530545      11.81264040       4.97679518      -0.00260057       0.00419525      -0.00173117
H        7.12146913      12.35412940       6.31935349      -0.00379473       0.00938950      -0.00308642
H        7.49822313      10.84265119       5.49194266      -0.00013185       0.00879195      -0.00007059
C        9.78480194       7.86279200      10.42790550       0.00264749      -0.00067997      -0.00059438
C        9.26061228       9.09683905      11.14961357       0.00135419      -0.00130776      -0.00039738
C       11.16094742       7.40857229      10.89996931       0.00280884       0.00050142      -0.00040817
C        7.90158705       9.56129246      10.63815136       0.00200176      -0.00116406      -0.00170234
C       11.70070576       6.23835056      10.08820300       0.00471053       0.00172827      -0.00078860
C        7.38845474      10.79762705      11.36086900       0.00235760       0.00052351      -0.00422812
H        9.06934877       7.03927406      10.54345617       0.00321695      -0.00126183      -0.00131938
H        9.82795319       8.07433129       9.35392627       0.00284471      -0.00021611      -0.00052664
H        9.98494594       9.91372367      11.04117950       0.00128973      -0.00117144       0.00071448
H        9.19068132       8.89004864      12.22601801       0.00038125      -0.00183201      -0.00069013
H       11.85674855       8.25287250      10.83841447       0.00182427       0.00140217       0.00020080
H       11.10873576       7.13209357      11.95926700       0.00292051      -0.00016144      -0.00058776
H        7.97537405       9.76350316       9.56427691       0.00281039      -0.00290865      -0.00188157
H        7.17817960       8.74523219      10.74210180       0.00133947      -0.00039724      -0.00090615
H       11.02403868       5.38326769      10.13559976       0.00698622      -0.00007445       0.00005611
H       12.67762503       5.91001133      10.44594130       0.00592306       0.00423620      -0.00191666
H       11.80674050       6.51169804       9.03607770       0.00282329       0.00200345      -0.00080059
H        7.30096811      10.60914726      12.43202576       0.00018367       0.00267009      -0.00413786
H        8.06649816      11.64416950      11.22935231       0.00362378      -0.00061522      -0.00472047
H        6.40319567      11.10028990      11.00110489       0.00350156       0.00116678      -0.00665265
C        9.51098477       7.76556745       6.43232842       0.00336725       0.00116044      -0.00717346
C       10.15010346       9.12332693       6.69522129       0.00141922       0.00157958      -0.00562055
C        7.99735540       7.83054993       6.27596348       0.00282684      -0.00179332      -0.00279030
C       11.65969347       9.05639299       6.89184060       0.00172529       0.00365883      -0.00736238
C        7.36728569       6.46609915       6.04253735       0.00562216      -0.00291905      -0.00356131
C       12.29306592      10.41046264       7.18000997      -0.00091684       0.00326407      -0.00044340
H        9.95430187       7.32255290       5.53161158       0.00168762       0.00410447      -0.00943905
H        9.75785839       7.08209340       7.25331721       0.00702687      -0.00014690      -0.00956303
H        9.68850446       9.58146517       7.57850314       0.00189237      -0.00103749      -0.00409207
H        9.91760543       9.79925724       5.86101536      -0.00065283       0.00298968      -0.00385544
H        7.56484520       8.28723200       7.17215611       0.00435695      -0.00456082      -0.00064507
H        7.74649369       8.50068744       5.44595701      -0.00112725      -0.00075336      -0.00071770
H       11.88067865       8.37226128       7.71796694       0.00366134      -0.00026767      -0.01120907
H       12.11918482       8.60605832       6.00399724       0.00197523       0.00917122      -0.01001275
H        7.77048897       5.99589632       5.14311857       0.00416225      -0.00004559      -0.00563367
H        6.28381117       6.53533675       5.92353394       0.00516269      -0.00573387      -0.00012940
H        7.56852542       5.79827064       6.88155000       0.01001655      -0.00405277      -0.00552514
H       12.07380138      11.13382191       6.39071755      -0.00279979       0.00711699       0.00368109
H       11.91153177      10.82965850       8.11316842      -0.00103773      -0.00287685       0.00192338
H       13.37744313      10.33723280       7.26951810      -0.00069010       0.00497909      -0.00147551
C        3.34338749       9.08969113       1.83667702      -0.00249040      -0.00207973       0.00388436
C        3.97678583      10.46533768       1.69827936      -0.00275224      -0.00168753       0.00338104
C        1.83453102       9.14273550       2.03892910      -0.00256747      -0.00131989       0.00366240
C        5.48288845      10.41399750       1.47521297      -0.00219700      -0.00036585       0.00656169
C        1.19611354       7.76640573       2.17126029      -0.00305714      -0.00177845      -0.00139374
C        6.08002313      11.80034933       1.29342870      -0.00482482       0.00004053       0.00334254
H        3.56671237       8.49749076       0.94176338      -0.00281640      -0.00202700       0.00331622
H        3.80661278       8.55683231       2.67425942      -0.00289568      -0.00206584       0.00364944
H        3.76503571      11.06014827       2.59488938      -0.00422964      -0.00094850       0.00272021
H        3.50829913      11.00109809       0.86407045      -0.00159644      -0.00263160       0.00217727
H        1.62303705       9.73755794       2.93429702      -0.00405499      -0.00144359       0.00410762
H        1.38653520       9.68240701       1.19837751      -0.00104354      -0.00156002       0.00356933
H        5.95797345       9.90315562       2.32063193      -0.00284344       0.00279784       0.00880918
H        5.69241699       9.79913137       0.59247038       0.00019042      -0.00270700       0.00872004
H        1.38962281       7.15637810       1.28672451      -0.00186898       0.00164712      -0.00395177
H        0.11241169       7.82398494       2.29587748      -0.00325161      -0.00088872      -0.00232403
H        1.59672400       7.22807232       3.03224797      -0.00423818      -0.00479040      -0.00325024
H        5.64503547      12.29553381       0.42399996      -0.00311512      -0.00427926       0.00017364
H        5.88124061      12.43003713       2.16222367      -0.00962494       0.00279831       0.00023323
H        7.16082734      11.77266368       1.14572614      -0.00414822       0.00233640       0.00724718
C       10.61771885       2.38465772       3.78295563       0.00262696       0.00257689      -0.00787526
C        9.11104781       2.59210063       3.71112765       0.00252265       0.00393134      -0.00569250
C       11.41363025       3.68202022       3.76460951       0.00327314       0.00221747      -0.00482657
C        8.31180290       1.29525978       3.75575126       0.00107925       0.00487691      -0.00507287
C       12.91614410       3.44790727       3.83518510       0.00304991       0.00078102      -0.00474308
C        6.81166306       1.52247555       3.66057987       0.00130981       0.00636122      -0.00590883
H       10.86811871       1.81431900       4.68690944       0.00310020       0.00014260      -0.00955313
H       10.94391605       1.78271088       2.92988568       0.00149924       0.00499676      -0.00960949
H        8.86551676       3.13048389       2.78852504       0.00206969       0.00431967      -0.00519165
H        8.78725982       3.23703497       4.53815281       0.00410404       0.00401500      -0.00519204
H       11.17186012       4.22059481       2.84458272       0.00421093       0.00407316      -0.00392061
H       11.09224246       4.32192611       4.59497650       0.00351860       0.00093120      -0.00387201
H        8.63006615       0.64604620       2.93297199       0.00054014       0.00405069      -0.00456807
H        8.54708254       0.75800075       4.68240330       0.00016483       0.00517718      -0.00481129
H       13.18560340       2.94307058       4.76514820       0.00242639       0.00067266      -0.00467521
H       13.47301612       4.38649930       3.79508362       0.00396804       0.00021933      -0.00473099
H       13.24847862       2.81718431       3.00721427       0.00232855       0.00026885      -0.00458393
H        6.46974506       2.20235707       4.44225157       0.00159773       0.00815512      -0.00730306
H        6.53932217       1.96155411       2.69829447       0.00228279       0.00490040      -0.00679244
H        6.25769429       0.59025063       3.77161070       0.00023919       0.00725093      -0.00452509
C        6.43186606       6.41192752       2.19255591      -0.00104418      -0.00760764       0.00304776
C        7.91361679       6.06564189       2.15859186      -0.00014387      -0.00295204      -0.00210483
C        5.53808511       5.17890826       2.24373591       0.00312328      -0.01059353       0.00213479
C        8.82393869       7.28502190       2.13825826      -0.00327142      -0.00060833      -0.00322667
C        4.05726307       5.51942363       2.30049627       0.00212973      -0.01607670       0.00951219
C       10.29965341       6.91223688       2.17048347      -0.00242624       0.00238372      -0.00554610
H        6.22682760       7.04627017       3.06397612      -0.00052946      -0.01093732       0.00546268
H        6.17512535       7.01429264       1.31208588      -0.00560980      -0.00605236       0.00557488
H        8.12639670       5.44624649       1.27967766      -0.00097562      -0.00113937      -0.00346494
H        8.16271053       5.44487408       3.02564849       0.00430939      -0.00332460      -0.00383347
H        5.74343391       4.55519018       1.36671241       0.00156596      -0.00677294      -0.00081211
H        5.81180589       4.57449630       3.11514392       0.00870602      -0.01288284      -0.00130132
H        8.60058005       7.87423490       1.24062362      -0.00585260      -0.00086480      -0.00265250
H        8.58313967       7.92420041       2.99686046      -0.00332866      -0.00139089      -0.00272048
H        3.82438895       6.08999726       3.20233100       0.00380300      -0.02039041       0.01264416
H        3.43088678       4.62593427       2.30016872       0.00564206      -0.01832829       0.00869173
H        3.76424880       6.13270288       1.44719753      -0.00365964      -0.01401873       0.01294062
H       10.55213478       6.39939974       3.09949130       0.00045659       0.00478829      -0.00508249
H       10.55590966       6.24268637       1.34783413      -0.00304028       0.00103995      -0.00463247
H       10.95491548       7.78220106       2.08864043      -0.00427736       0.00321923      -0.00895299
C        8.62356648       2.67641000      12.66648607       0.00249536      -0.00728021       0.00613642
C        7.46685802       2.13373092      11.83828141       0.00148267      -0.00360553       0.00515062
C        9.79754512       3.16552734      11.82783162       0.00467020      -0.00854015       0.00770885
C        6.27693053       1.69878329      12.68560469      -0.00076371       0.00054378       0.00413609
C       10.95832952       3.65948282      12.68014619       0.00572562      -0.01466849       0.00829381
C        5.14060799       1.08172632      11.87995394       0.00047189      -0.00132424       0.00402576
H        8.26068886       3.50073195      13.29318995       0.00424621      -0.00787109       0.00777993
H        8.97534450       1.90277926      13.35922393       0.00088952      -0.00925848       0.00466920
H        7.81596421       1.28527417      11.23754333      -0.00069889      -0.00487387       0.00583959
H        7.14851038       2.89937632      11.12227448       0.00457053      -0.00291759       0.00456960
H       10.14014220       2.35342517      11.17899580       0.00064972      -0.00655189       0.00410411
H        9.44691433       3.96353688      11.16198353       0.00563461      -0.00441557       0.01039526
H        6.62487771       0.98241111      13.43623604      -0.00326638       0.00297356       0.00746338
H        5.90212676       2.56154643      13.24759959      -0.00120564       0.00287658       0.00010048
H       10.63129197       4.46734708      13.34028205       0.00775508      -0.01950639       0.01489604
H       11.77275245       4.04545104      12.06610428       0.00445060      -0.01052360       0.00909497
H       11.36105060       2.85066410      13.29594830       0.00682434      -0.01926836       0.00148599
H        4.72338225       1.79729621      11.16920970       0.00285725      -0.00391941       0.00011040
H        5.49040337       0.21909970      11.30728736       0.00082597      -0.00410584       0.00850113
H        4.32516705       0.74749471      12.52359263      -0.00125907       0.00219530       0.00357270
