193
Lattice="12.4769352248933 0.0 0.0 0.0 12.4769352248933 0.0 0.0 0.0 12.4769352248933" Properties=species:S:1:pos:R:3:forces:R:3 energy=-116211.8515625 stress="-0.005747567396610975 0.0007104747637640685 -0.00029092283511999995 0.0007104747637640685 -0.004562917165458202 -0.00019389705266803503 -0.00029092283511999995 -0.00019389705266803503 -0.0033342388924211264" pbc="T T T"
N        6.04363636       7.44074511       3.99291653       0.00226931       0.00582486      -0.00952726
C        6.76789558       8.69326577       4.47789371       0.00646305       0.00464016      -0.01391998
C        5.63187599       7.55214477       2.53688018      -0.00847593       0.00782461      -0.00618631
C        4.79046658       7.24938165       4.81755300       0.00874358       0.00571111       0.00001460
C        6.99073292       6.26949382       4.16298735       0.00230742       0.00508672      -0.01741730
C        6.04643131       9.99566415       4.21705974       0.00476184       0.00495079      -0.00574106
C        6.75022666       7.88583259       1.59025147      -0.01709130       0.01032002      -0.01544665
C        4.06444639       5.93539502       4.61014828       0.00738093       0.00591752       0.00551115
C        7.32864771       5.95814607       5.60221347       0.00862672      -0.00003259      -0.02002415
H        6.89005994       8.55402296       5.55080276       0.01520040       0.00311026      -0.01544052
H        7.75398446       8.68489678       4.01221188       0.00237173       0.00476032      -0.02186328
H        5.19148183       6.59227021       2.27252260      -0.00996143       0.00819868      -0.00389690
H        4.83872381       8.29962268       2.51138809      -0.00896680       0.00723363       0.00114423
H        5.08490745       7.37346521       5.85569544       0.01721936       0.00635562      -0.00261307
H        4.14516468       8.08577769       4.55496947       0.00677396       0.00540429       0.00500925
H        6.51360746       5.41704588       3.67868247      -0.00043233       0.00713037      -0.01770561
H        7.88351678       6.52672586       3.59595580      -0.00041610       0.00624044      -0.02079685
H        6.67636148      10.79390030       4.61053914       0.00624205       0.00366625      -0.00610065
H        5.89181118      10.20421121       3.15882481      -0.00014794       0.00865464      -0.00407264
H        5.08971330      10.06132339       4.73440414       0.00725636       0.00298190      -0.00143173
H        6.34197784       7.92775864       0.58319787      -0.02551073       0.00537070      -0.01210855
H        7.22770945       8.83753093       1.81407136      -0.02178350       0.01408635      -0.02233538
H        7.52855826       7.13051343       1.57645169      -0.01264171       0.01508713      -0.01894851
H        3.15725336       5.96063966       5.21532037       0.01138951       0.00649692       0.01098959
H        3.75439746       5.76653999       3.57937784       0.00091250       0.00528981       0.00784093
H        4.64559233       5.07596256       4.94365527       0.00905651       0.00608023       0.00215074
H        8.00808995       5.10574175       5.61953100       0.01277491       0.00345913      -0.02685723
H        7.81286956       6.78343095       6.11887070       0.00645871      -0.00036216      -0.01789273
H        6.45260959       5.68534855       6.18483360       0.01209652      -0.00770519      -0.01863486
S       10.95952979      10.23136153       2.92785817       0.00185251       0.00133510       0.00364220
O       10.35492680       9.50817023       4.05274647       0.00589311       0.00359327       0.00667250
O       11.90226859       9.42419791       2.15208086       0.00118303       0.00025952       0.00413001
O       11.50454739      11.53620437       3.29767146       0.00023830       0.00323308      -0.00188720
C        9.61290284      10.60152784       1.82047097      -0.00054932      -0.00505212       0.00543374
H        8.83479399      11.10639877       2.39026336       0.00067825      -0.00268230       0.00464401
H        9.99477371      11.26039910       1.04477611      -0.00247608      -0.00866897       0.00178057
H        9.26284604       9.66584930       1.39759440      -0.00041656      -0.00731504       0.01073691
O        1.24117997       2.70954477       3.70419709      -0.00618157       0.01190078      -0.00493509
N        1.11557619       1.85805614       1.59977294      -0.02232381       0.00191222       0.00086497
C        1.62760408       3.07791111       1.02099307      -0.02802665      -0.00136787      -0.01038805
C        0.64368794       0.80770423       0.71742555      -0.01780491      -0.00832133       0.01116679
C        0.95736086       1.78967766       2.94824621      -0.00934479       0.00757885       0.00194705
H        0.92922693       3.48575612       0.28536693      -0.02693442      -0.01657494      -0.01912816
H        2.59366894       2.92155026       0.53501668      -0.02433461       0.00006607      -0.00319521
H        1.76123137       3.79089844       1.82980544      -0.03726357       0.00948264      -0.01884678
H       -0.15169669       1.18657950       0.06754003      -0.01574707      -0.01643766       0.00464268
H        0.25405458      -0.02137124       1.30641249      -0.01884918      -0.00137341       0.01969513
H        1.44167257       0.43633673       0.07384895      -0.01547921      -0.01444321       0.01805554
H        0.53699002       0.83623370       3.29580166      -0.00273088       0.00776196       0.01010352
O        0.89040927      12.08405594       5.93507351      -0.00057642       0.00769997      -0.02300870
N        1.41525555      10.16915067       4.80494935       0.00279559      -0.00074859      -0.00546855
C        2.17324482      10.85497111       3.78331841       0.00327360      -0.00833024      -0.00938079
C        1.14004350       8.76076838       4.62546081       0.00376596      -0.00178368       0.00483213
C        0.75980972      10.88461492       5.74332907       0.00040098       0.00631130      -0.01312006
H        1.59622550      10.88028040       2.85589131       0.00056928      -0.00656569      -0.00740400
H        3.12635855      10.35139088       3.60875794      -0.00173807      -0.01676112      -0.00993702
H        2.36526997      11.87163763       4.11513883       0.01224340      -0.00903431      -0.01324452
H        0.70028700       8.58755533       3.64165765      -0.00161351      -0.00873954       0.00875980
H        0.42635290       8.44037806       5.38322781       0.00960004       0.00210059       0.01154202
H        2.05280036       8.16722846       4.73472270       0.00526145       0.00063228       0.00300651
H        0.10138956      10.24998649       6.35116408      -0.00028738       0.01086158      -0.00997347
O        8.89764904      12.66064420       9.34643645       0.00358903      -0.00554696       0.01730341
N        6.85853544      11.66607824       9.04863682       0.00232574       0.00118105       0.01260264
C        6.96779844      11.52886582       7.60914851       0.00204837       0.00664571       0.01225334
C        5.68381068      11.10856890       9.67597578       0.00106131       0.00168857       0.00978877
C        7.85069480      12.21264805       9.78126631       0.00431657      -0.00323755       0.01412802
H        6.08260220      11.94873324       7.13482860       0.00243855       0.00952069       0.01463378
H        7.03151777      10.47336966       7.34258498       0.00100472       0.00788003       0.00790055
H        7.85338264      12.05919122       7.26928654       0.00181594       0.00671525       0.01281828
H        4.77946078      11.61274560       9.32277851       0.00229132       0.00272797       0.00910939
H        5.75745235      11.24183776      10.75246847      -0.00094379       0.00077556       0.00983459
H        5.60515484      10.04511463       9.45114204      -0.00021123       0.00210208       0.00907621
H        7.61844785      12.19696098      10.85951158       0.00225695      -0.00601328       0.01431435
O        6.76776635       2.71511569      10.82418592      -0.00329447      -0.03134441       0.02301985
N        4.80252701       1.63897472      11.32332659      -0.00512968      -0.00798184       0.01587745
C        3.99188594       2.40096914      10.39991323       0.00406232      -0.01021098       0.00724352
C        4.18115576       0.61477722      12.13125164      -0.01371099      -0.00099362       0.01429132
C        6.12676246       1.90098961      11.45523057      -0.00388485      -0.01405483       0.01804307
H        3.15540117       2.87303360      10.91856630      -0.00104821      -0.00815562      -0.00212783
H        3.59120482       1.75730307       9.61109242       0.00989832      -0.01142967       0.00464261
H        4.61710309       3.17816917       9.96709943       0.00740272      -0.01229228       0.01069129
H        3.56720394       1.03339752      12.93087578      -0.01728661       0.00163352       0.01096606
H        4.95829825       0.01228855      12.60017626      -0.01955462      -0.00393013       0.02035234
H        3.56335390      -0.03740160      11.50883103      -0.01458672      -0.00161397       0.01477213
H        6.57494560       1.25649022      12.22966379      -0.01556076      -0.01198915       0.02236474
O       12.30313556      10.29915302      11.55993207      -0.00367153       0.02533600      -0.00038293
N       10.64210341       8.72725648      11.35502422       0.00464622       0.01803499      -0.00415757
C       11.51541649       7.58226705      11.48828169       0.00919767       0.02241804      -0.00228297
C        9.22948357       8.49314763      11.13876751       0.00729789       0.00949857      -0.00891986
C       11.13484779       9.97930297      11.40334880      -0.00207996       0.01998955      -0.00423554
H       11.52349503       6.99024215      10.57476499       0.01643628       0.02465481      -0.00357801
H       11.16718155       6.95208898      12.30479046       0.00819068       0.01915686      -0.00548875
H       12.51632207       7.94794501      11.68473515       0.00624028       0.02660063       0.00313644
H        9.02496079       8.10760737      10.13821017       0.01274217       0.01514220      -0.01217332
H        8.69300244       9.43442688      11.26545188      -0.00030637       0.00417411      -0.00398984
H        8.86075893       7.77236194      11.86612306       0.01174093       0.00186023      -0.01462170
H       10.33702029      10.73135856      11.26796736      -0.00459981       0.01614285      -0.00730571
O       12.95661089       8.70895210       8.75278805       0.02032602       0.01844590      -0.02018791
N       11.11494038       9.98247422       8.26166297       0.01003284       0.00718036      -0.00915517
C       11.71323996      11.27102833       8.57183008       0.00461147       0.01007569      -0.01203424
C        9.77492659       9.97238221       7.72254773       0.00823805       0.00144587      -0.00389521
C       11.78238280       8.83371707       8.42955802       0.01812840       0.01135910      -0.01555890
H       11.07352327      11.80254832       9.27404584       0.00430676       0.00751662      -0.01086456
H       11.82072288      11.87568272       7.67137912      -0.00119242       0.00929761      -0.01311761
H       12.68421474      11.09065400       9.02348891       0.00679782       0.01547469      -0.01526335
H        9.08204622      10.40558113       8.43788169       0.00956322      -0.00054586      -0.00152859
H        9.46952718       8.94745530       7.51444147       0.01166717       0.00048807      -0.00264538
H        9.73990200      10.54002630       6.78910620       0.00248031       0.00073060      -0.00379047
H       11.13615145       7.96336992       8.23499651       0.02354491       0.00759584      -0.01637485
O        6.29571806       8.38586138       7.79268552      -0.00022191       0.00024724      -0.00914285
N        4.06365389       8.05725004       8.14615795       0.00547714      -0.00947759       0.01437894
C        3.63793808       9.28377735       7.50030020      -0.00652274      -0.01543905       0.01192984
C        3.02231071       7.17081779       8.62805159       0.01487553      -0.01330140       0.02656263
C        5.36449298       7.73056373       8.27141182       0.00799286      -0.00210628       0.00343893
H        3.00563609       9.86261811       8.17644543      -0.00847822      -0.01896586       0.01248297
H        3.04267780       9.07116250       6.60967146      -0.00895485      -0.02331106       0.01583338
H        4.52046095       9.85444744       7.22132108      -0.01223075      -0.01013239       0.00587274
H        2.42405312       7.65234878       9.39931369       0.01128611      -0.00820902       0.02037823
H        3.47875954       6.26251245       9.01540618       0.02422634      -0.00252762       0.03965913
H        2.33828384       6.93164553       7.80879221       0.01681726      -0.03118514       0.03051260
H        5.53939791       6.80399758       8.83479995       0.01778995       0.00223476       0.00700849
O       10.49384805       1.76108794       4.38990624      -0.04411682       0.00367501       0.01567674
N        9.03426276       1.40770915       2.67005546      -0.01782191      -0.00159793      -0.00450633
C        7.88039099       1.35680361       3.53105096      -0.02863498      -0.00596927      -0.01991536
C        8.81777117       1.34964842       1.24739034       0.00190343      -0.00414688      -0.00704947
C       10.26612220       1.56757359       3.21159445      -0.02661294       0.00476356       0.01213324
H        7.29496225       0.45421952       3.34928209      -0.02584670      -0.00439036      -0.03351768
H        7.21405676       2.20654807       3.36228620      -0.02544618      -0.00409693      -0.02148972
H        8.24109576       1.36276892       4.55625338      -0.04155964      -0.01277616      -0.01570567
H        8.28639560       0.43372626       0.97835658       0.00406002      -0.00380406      -0.01118866
H        9.77290583       1.35138765       0.72425594       0.00886342      -0.00813727       0.00653514
H        8.23214923       2.20443431       0.89933357       0.00856152      -0.00422758      -0.01764258
H       11.04717935       1.53673706       2.43638327      -0.01569659       0.01062240       0.02373877
O        4.74637833       1.21998784       3.74870108      -0.01496357      -0.01642609       0.00455385
N        3.49631627       1.72292545       5.59705697      -0.00786670      -0.00914314       0.00668147
C        3.82872385       0.50877767       6.30557933      -0.00546802      -0.00588049       0.01021047
C        2.62031365       2.65057796       6.27765784      -0.00914942      -0.00860484       0.00364965
C        3.99961001       1.96751601       4.37190366      -0.01217949      -0.01348102       0.00470734
H        2.91406902      -0.03803965       6.53408629      -0.00409189      -0.00627474       0.01300827
H        4.35237478       0.75461921       7.23521868      -0.00465381      -0.00173640       0.00833306
H        4.47835922      -0.08750162       5.66896676      -0.00587514      -0.00763387       0.01182650
H        1.66460283       2.16843681       6.48601139      -0.01023030      -0.00765514      -0.00018635
H        2.43213694       3.50597508       5.63688679      -0.00568663      -0.00829598       0.00334889
H        3.07919556       2.98242128       7.21728093      -0.01208581      -0.00970101       0.00509277
H        3.66402326       2.93626587       3.97257759      -0.01258183      -0.01487029       0.00298335
O        9.62532530       7.49796182       1.59673608      -0.01185316      -0.00991130       0.00120580
N       10.33143766       5.45121474       2.25665849       0.01493732      -0.00016940       0.00107259
C        9.50639470       4.75804536       1.28995959       0.01855198      -0.01062802       0.00622243
C       11.04226786       4.66015472       3.23187232       0.02609067       0.00912996       0.00033700
C       10.30818172       6.79672277       2.32754558       0.00040546      -0.00109434      -0.00123733
H        8.63099604       4.31123822       1.77390810       0.02087849      -0.01155876       0.00916436
H       10.07886570       3.95996413       0.81743219       0.02338572      -0.01067930       0.01287803
H        9.17591185       5.45197705       0.52254383       0.01568033      -0.01773846       0.00133424
H       10.35497502       4.10870253       3.87726191       0.03359708       0.00808534       0.00691544
H       11.66024736       5.31459770       3.84272578       0.02601304       0.01562577      -0.00692001
H       11.69339995       3.93173624       2.75061212       0.02682541       0.01120129      -0.00075203
H       10.95620632       7.22263122       3.10581096      -0.00000367       0.00760362      -0.00625181
O        9.70703546       5.40494562      10.14469010       0.02679964      -0.00804365       0.00971305
N       10.80216088       5.39621426       8.14666889       0.01587765      -0.00987520       0.00465591
C       11.78508914       4.42433482       8.56974371       0.01991063      -0.00704925       0.00063744
C       10.89125032       5.85947268       6.78465672       0.00418005      -0.01572809       0.00228447
C        9.80371002       5.76859054       8.98789676       0.01978678      -0.01098290       0.00991106
H       12.78213405       4.87306030       8.59498399       0.01972923      -0.00662170      -0.01085726
H       11.79261854       3.57948616       7.87638401       0.01419292      -0.01066974       0.00543138
H       11.51369839       4.08020472       9.56389531       0.02909087      -0.00160639       0.00467268
H       11.85692236       6.34491782       6.61002925       0.00158948      -0.01485792      -0.00773404
H       10.10557710       6.58550837       6.58219226       0.00111528      -0.01849459       0.00564486
H       10.79586895       5.02544456       6.08403856       0.00046512      -0.01892433       0.00698517
H        9.07320262       6.44390972       8.50974345       0.01580071      -0.01364359       0.01166406
O        6.83823705       5.13756669       8.94571418       0.00795943      -0.00517225       0.01084173
N        7.07397205       3.26623788       7.64813953      -0.00092104       0.00238861       0.00037947
C        8.47488172       3.06269651       7.95062924      -0.00287786      -0.00626472       0.00319052
C        6.51786354       2.55080635       6.53180486      -0.00340941       0.00942449      -0.00269378
C        6.39181662       4.28986169       8.19607942       0.00471854       0.00427264       0.00418872
H        9.10949967       3.51221973       7.17891943       0.00120421      -0.00710021       0.00655431
H        8.68641058       1.99650065       8.00048198      -0.00839183      -0.00726143       0.00015099
H        8.68552397       3.50991782       8.91744240      -0.00311981      -0.01078613       0.00507957
H        6.93961657       2.89651794       5.58337554      -0.00381501       0.01308984      -0.00135362
H        5.44252264       2.69787256       6.50456050      -0.00318021       0.01105746      -0.00039043
H        6.72159287       1.48534247       6.61584300      -0.00515539       0.00889176      -0.00802165
H        5.33058798       4.29145338       7.86608530       0.00582117       0.01363684       0.00057068
O        4.52214270       6.31925070      -0.56992278      -0.03165913       0.00003254      -0.03670527
N        2.88551362       7.60534508       0.38415306      -0.00945863       0.00654677      -0.00978168
C        2.16597383       6.47319433       0.92361789      -0.00669900       0.00975654       0.00004095
C        2.35678166       8.93324402       0.63319392       0.00049976       0.00866939      -0.00221183
C        4.00246259       7.40166442      -0.34265516      -0.02122200       0.00172120      -0.02614790
H        1.22533632       6.31168873       0.39135657      -0.01327291       0.01180086       0.01162510
H        1.93004593       6.64521661       1.97633488       0.00661136       0.01296788       0.00211644
H        2.79430926       5.59333503       0.81401822      -0.01124482       0.00745243      -0.00535190
H        1.43862026       9.13713176       0.08118087      -0.00054660       0.01712125       0.00315109
H        3.10623501       9.67146391       0.34776424       0.00404230       0.00477692      -0.00219179
H        2.13163014       9.04163197       1.69313054       0.00623502       0.00469409      -0.00109622
H        4.43089195       8.35434346      -0.70874844      -0.02163523       0.00041479      -0.03003325
