191
Lattice="13.248489258963252 0.0 0.0 0.0 13.248489258963252 0.0 0.0 0.0 13.248489258963252" Properties=species:S:1:pos:R:3:forces:R:3 energy=-538153.5 stress="-4.4298307329881936e-05 -9.083396798814647e-05 -0.00013946943363407627 -9.083396798814647e-05 -0.0011730234837159514 0.0001355941640213132 -0.00013946943363407627 0.0001355941640213132 -0.0012179729528725147" pbc="T T T"
Tm      13.45099154      11.76648954      -1.38271284       0.00330228       0.00074601       0.01900208
P        3.83710923      11.87823654      10.93860413      -0.00561029      -0.00022851      -0.00202117
F        3.64634828      11.02368123      12.27354945      -0.01146256      -0.00551361      -0.00436581
F        3.27368247      10.66221728      10.09363811      -0.00734923       0.00388255      -0.00681146
F        0.28233560       9.85784241      12.37058402      -0.01981211       0.00063497       0.02305403
F        4.46045151      13.06891043      11.80119325      -0.00435278      -0.00593738       0.00456256
F        4.07639869      12.72539771       9.61383617      -0.00181042       0.00380036       0.00265077
F        2.31411711      12.50938920      11.10149886      -0.00442815       0.00219285      -0.00072478
P       11.40031135      11.91612063       9.48731213       0.01060079      -0.00204311       0.00496550
F       12.83208610      11.07502324       9.56588641       0.01030870      -0.00287484       0.01998708
F       10.06769145      12.78280362       9.54182787       0.00986950      -0.00334684      -0.00682172
F       11.73204045      12.36584940       8.01279798       0.02035553      -0.01220255       0.00780632
F       11.16455376      11.45033668      11.06608116       0.00252829       0.00873981       0.00982117
F       12.26460483      13.18852123      10.10860790       0.00752627       0.00169048       0.00441668
F       10.63663861      10.61410543       8.99514929       0.01287556      -0.00514144       0.01290261
P       11.93423102      11.52359765       4.47436036      -0.03084375       0.01855290       0.02931112
F       10.65772795      12.03380509       5.18157592       0.03135252       0.01812798       0.02646446
F       11.01974682      10.76995901       3.41416349      -0.03347307       0.02594559       0.02570718
F       12.76463488      13.03689646      -0.00089094       0.00732905       0.01313710       0.01101422
F       12.83323446      12.32547597       5.49619608       0.02148266       0.01479764      -0.01125094
F       12.48443776      10.17418031       4.99636987      -0.00813594       0.01254195       0.00141013
F       12.71966975      12.15478949       3.30230569      -0.00580493      -0.00255454      -0.01476687
O       11.38195182       1.24254535       3.90823739      -0.00653362      -0.00986093      -0.01217774
C       10.18268849       2.72195737       2.53756397      -0.00639257       0.00076973      -0.00029814
C       11.64613073       3.16230665       2.52998987      -0.00505008      -0.00394547      -0.00444546
C       10.13412698       1.94345162       3.83839478      -0.00543839      -0.00509939      -0.00365633
C       12.34601710       1.91808934       3.06791636      -0.00686508      -0.00633126      -0.00809807
H        9.48678081       3.55920889       2.52461085      -0.00399376       0.00243765       0.00516563
H        9.97631106       2.05846482       1.69235224      -0.01110774       0.00456890      -0.00273982
H       12.01156419       3.45347807       1.54625596      -0.00767922      -0.00153705      -0.00298613
H       11.77085162       4.01204995       3.20356748      -0.00117548      -0.00575027      -0.00092641
H       10.04084539       2.63451717       4.68463233       0.00183247      -0.00730407      -0.00053084
H        9.33229282       1.20407166       3.89862631      -0.00676888      -0.00107560      -0.00292459
H       12.62670216       1.24097309       2.25532235      -0.00722634      -0.00429466      -0.01223189
H       13.23074891       2.14451731       3.67080779      -0.00661987      -0.01017313      -0.00811616
O        8.95239199      10.80612118       0.90349381      -0.00563222       0.00304559      -0.01270723
C        7.76469617      12.79775119       1.48850337       0.00651675       0.00705081      -0.00221121
C        6.91256244      11.54293543       1.72091011       0.00304437       0.00988442       0.00202271
C        9.09041237      12.23607541       0.92172184       0.00328052       0.00156528      -0.00429553
C        7.98683534      10.48381936       1.89597302      -0.00114590       0.00412408      -0.00727155
H        7.28409466      13.50733278       0.81380810       0.00641510       0.00579889      -0.00386059
H        7.94177507      13.31728517       2.43139923       0.01034975       0.00990306      -0.00520793
H        6.23947962      11.62496486       2.57413346       0.00997052       0.01118380       0.00779404
H        6.31292762      11.31531380       0.83593232      -0.00417943       0.01414619       0.00671032
H        9.30137063      12.55192303      -0.10089622       0.00706745       0.00603098      -0.00204957
H        9.94651834      12.51987394       1.54237770       0.00401500      -0.00738095      -0.00097650
H        8.42426581      10.54862946       2.90338599       0.00518814      -0.00198562      -0.01106882
H        7.65365917       9.45832053       1.72394662      -0.00798434       0.00628856      -0.00955053
O        2.02790296       4.78858221      11.31043195       0.01262528      -0.00072163      -0.00453079
C        3.00660116       2.73184609      11.81687576      -0.00201410      -0.00448197       0.00420855
C        1.58234828       2.43955248      11.33887061      -0.00031984       0.00126761      -0.00425769
C        2.85656488       4.16851233      12.28336001       0.00172994      -0.00360411       0.00236136
C        1.14024818       3.79333486      10.76725302       0.00532805       0.00450051      -0.00208241
H        3.35064069       2.05648035      12.59795599      -0.01004518      -0.00561023       0.00677766
H        3.71099313       2.67704551      10.98287235       0.00298336      -0.00807648       0.00883663
H        1.53597171       1.65017134      10.59048829       0.00163112       0.00367196      -0.00671498
H        0.95194484       2.14186766      12.18093611      -0.00532779      -0.00015496      -0.00852394
H        2.37914447       4.19909476      13.27522689      -0.00599611      -0.00059834      -0.00137758
H        3.79019195       4.73302037      12.33659261       0.00383052      -0.00804673       0.00921661
H        1.22943905       3.82861569       9.67780287       0.00200570       0.00586360      -0.00204617
H        0.11159192       4.04594622      11.03917997       0.00761724       0.00952931       0.00181581
O        4.19028714      -0.01993982       4.86569156      -0.00011103      -0.00625983       0.00609785
C        4.74930651       2.25009154       4.74873149      -0.00559947      -0.00437713       0.00607392
C        3.22535230       2.14977471       4.70256882      -0.00518578      -0.00914967       0.00509070
C        5.14223459       0.86364437       4.27130388      -0.00051872      -0.00364912       0.00830900
C        2.98885884       0.71657245       5.17442690       0.00023321      -0.00803983       0.00983316
H        5.16140545       3.04991358       4.13295121      -0.00761384      -0.00418477       0.00484423
H        5.08740565       2.39643095       5.77612993      -0.00672825      -0.00130321       0.00592878
H        2.71093955       2.87469290       5.33251868      -0.00823104      -0.00905220       0.00236143
H        2.87444344       2.28024481       3.67528595      -0.00459372      -0.01397000       0.00443026
H        5.08107767       0.80301720       3.17405559       0.00193425      -0.00465178       0.00824720
H        6.14000862       0.54753710       4.58189036      -0.00071621      -0.00049300       0.01067649
H        2.83019320       0.67212881       6.25575378       0.00437932      -0.00541186       0.01015496
H        2.13633288       0.23974282       4.68303202      -0.00102785      -0.01171972       0.01425901
O        9.97306424       5.46857475       4.44592225      -0.00145803      -0.00342643       0.00866504
C        8.46750046       7.23945144       4.91144464      -0.00087613       0.00009388      -0.00201002
C        9.71951696       7.80215121       4.23724589       0.00092115      -0.00432587      -0.00243673
C        8.96293670       5.87843220       5.38490558      -0.00389978       0.00114369       0.00408806
C       10.27712093       6.55887226       3.56337051       0.00036772      -0.00774068       0.00436284
H        8.09686715       7.84723089       5.73603660      -0.00093748       0.00401787      -0.00503272
H        7.66264149       7.12900680       4.17886863      -0.00014636      -0.00138073      -0.00257665
H        9.52376790       8.60759550       3.53292583       0.00267473      -0.00731497      -0.00654685
H       10.42003442       8.17231165       4.98844810      -0.00032680      -0.00120741      -0.00321668
H        9.40903125       5.94591788       6.38123604      -0.00686342       0.00320973       0.00515944
H        8.18037156       5.11663788       5.41138910      -0.00515696       0.00234774       0.00389445
H        9.78002767       6.39148499       2.59695891       0.00200358      -0.01189736       0.00437552
H       11.35516730       6.57981327       3.39712181       0.00101006      -0.00951811       0.00600110
O       13.46005937       3.04370425       7.12648820       0.00519669       0.00910578      -0.01382095
C       11.14348387       3.50891852       7.26245732       0.00234628      -0.00441688      -0.00636581
C       11.35543739       2.00742994       7.42069793       0.01330394      -0.00294876      -0.00795408
C       12.45155300       3.93727370       6.61919152      -0.00161517       0.00516713      -0.00767163
C       12.81878377       1.96736276       7.83112300       0.01310825       0.00767608      -0.00867947
H       10.28180776       3.78174718       6.65740596      -0.00012644      -0.01087210      -0.00624692
H       11.02455863       3.98268402       8.23770790      -0.00054900      -0.00563648      -0.00627360
H       10.70242963       1.55239036       8.16150680       0.01724035      -0.00875262      -0.00755486
H       11.21807690       1.48957426       6.46982636       0.01683289      -0.00290535      -0.00791171
H       12.40036591       3.83359886       5.52923274      -0.00324507       0.00908785      -0.00787145
H       12.74082904       4.96405913       6.85197763      -0.00730145       0.00602436      -0.00432189
H       12.91800052       2.13201456       8.91107941       0.01276382       0.01232140      -0.00938761
H       13.32209281       1.03547694       7.57537851       0.01939577       0.01022655      -0.00575818
O       10.72995099       5.08015437      12.62943849       0.00240877      -0.00507639      -0.00018476
C        8.97357147       3.80102162      11.68043240      -0.00093982      -0.00013158      -0.00099593
C        8.38691397       4.92331445      12.53747210       0.00225258      -0.00357554       0.00542176
C       10.41601231       3.75543171      12.17154054       0.00103509      -0.00231847      -0.00697386
C        9.55607105       5.89420431      12.58145395       0.00268996      -0.00436269       0.00623986
H        8.46464768       2.84446876      11.79691297      -0.00100049      -0.00014699      -0.00218310
H        8.94351461       4.07579573      10.62340870      -0.00496955       0.00363429       0.00027138
H        7.48442240       5.36882791      12.11949833       0.00132680      -0.00155800       0.00954351
H        8.15677598       4.55748035      13.54119790       0.00476847      -0.00781198       0.00432324
H       10.53176773       3.05969686      13.00731687       0.00512573      -0.00726500      -0.01166081
H       11.12460796       3.46780831      11.39096093      -0.00221452       0.00265914      -0.01168644
H        9.57283629       6.51944038      11.67713505       0.00069097      -0.00066090       0.00888312
H        9.55966833       6.55605501      13.44867031       0.00533008      -0.00822845       0.00911161
O       10.97452184       6.51242999       8.34314623       0.00113559       0.00911671      -0.00112225
C       12.40278304       7.56262137       9.87036838       0.01168023       0.00345701      -0.00652522
C       12.82408631       8.00300561       8.46708944       0.00755525       0.00180501      -0.00807895
C       11.72838521       6.24894482       9.53283061       0.00272757       0.00712174      -0.00296316
C       11.61983585       7.58021996       7.62656249       0.00239515       0.00731340      -0.00331865
H       13.22727303       7.46174784      10.57288723       0.01507571      -0.00217856      -0.01119228
H       11.68027920       8.26644784      10.29094805       0.01832893       0.00717315      -0.00231272
H       13.03358215       9.06538721       8.38484379       0.01066510       0.00144717      -0.00831479
H       13.71709253       7.44959916       8.16334299       0.00406215      -0.00105444      -0.01208417
H       12.48284506       5.47453065       9.33301884      -0.00291553       0.00187671      -0.00331381
H       11.04551942       5.87474995      10.29348814       0.00266567       0.01322354       0.00007424
H       10.89916529       8.39668875       7.52086052       0.00582364       0.00970235      -0.00040944
H       11.89791787       7.22606140       6.62811332      -0.00203444       0.00588882      -0.00422585
O        0.67099967       6.07675483       3.33722850      -0.00148967      -0.00171883       0.00917584
C        2.86583426       5.31728426       3.05277053      -0.00489128      -0.00680363       0.00073481
C        2.71853114       6.59431803       2.22574108      -0.00323266      -0.00420012       0.00440556
C        1.41608941       4.87749308       3.17462692      -0.00559342      -0.00336647       0.00247887
C        1.38702726       7.16565649       2.71791101      -0.00196850      -0.00316842       0.00677501
H        3.50332699       4.56824840       2.58239805      -0.00780896      -0.00719035      -0.00255571
H        3.27305149       5.53982760       4.04297735      -0.00241992      -0.01059563       0.00049692
H        3.53478311       7.30075726       2.35587408      -0.00198750      -0.00614199       0.00572549
H        2.65716986       6.35830166       1.16218328      -0.00425683      -0.00123432       0.00380644
H        1.10030360       4.34907954       2.26192772      -0.00927128       0.00142030       0.00104976
H        1.21017464       4.23737604       4.03329166      -0.00546586      -0.00609535       0.00040817
H        1.53144924       7.94040374       3.47505001      -0.00011268      -0.00255722       0.00591895
H        0.78953245       7.58471081       1.90668795      -0.00323796      -0.00316437       0.00754970
O        5.49241381      11.18569873      10.75570207      -0.00806964      -0.00412901      -0.00074372
C        7.79814828      10.96193638      10.50526884      -0.00805604      -0.01156735       0.00116739
C        7.25571361       9.67724136      11.12907897      -0.01381424      -0.00852683       0.00263640
C        6.74092753      11.97961121      10.85040209      -0.00528167      -0.00763208      -0.00140129
C        5.77611610       9.71801346      10.81102389      -0.01209041      -0.00470489      -0.00336250
H        8.75900099      11.24748573      10.92031983      -0.00741139      -0.01417540       0.00302106
H        7.90549705      10.86604339       9.42515538      -0.00644536      -0.01384130       0.00210446
H        7.71704019       8.78621597      10.70615855      -0.01487085      -0.01099980       0.00608918
H        7.44237794       9.68504136      12.20452151      -0.01832102      -0.00639678       0.00292394
H        6.81567265      12.33941763      11.87579733      -0.00529258      -0.00625536      -0.00236967
H        6.63742284      12.80973937      10.15690848      -0.00229100      -0.00865377      -0.00345352
H        5.51631149       9.34822975       9.82144573      -0.00956592      -0.00217421      -0.00443739
H        5.12418436       9.30245259      11.57416842      -0.01638876      -0.00439776      -0.00602266
O        2.53842210       9.60383471       1.55812012       0.00386243       0.00005168       0.01532349
C        1.96644346      11.85116170       1.47448824       0.00479709      -0.00089395       0.00895804
C        3.42643331      11.78764307       1.94169339       0.00664794       0.00133461       0.00164106
C        1.45678696      10.47380009       1.86805307       0.00726244       0.00119185       0.01699546
C        3.73123756      10.27424364       1.95710280       0.00874008       0.00164264       0.00168412
H        1.39444285      12.67186154       1.89876589       0.00685890       0.00161882       0.00802012
H        1.95444631      11.95810288       0.38365362       0.00070331      -0.00566030       0.00826403
H        4.09091416      12.33412830       1.27420125       0.00309257       0.00156802      -0.00139073
H        3.53260173      12.20267535       2.94352728       0.00993285       0.00181484       0.00107449
H        1.25420648      10.44056827       2.95039541       0.01378571       0.00720701       0.02029610
H        0.58408248      10.12612633       1.31919798       0.00353506      -0.00090036       0.02549830
H        4.51448599       9.98005233       1.25824040       0.00127849       0.00118743      -0.00542998
H        4.02738133       9.94659869       2.96400371       0.01840613       0.00407900      -0.00083560
O        6.78610959       5.56413822       7.82362833      -0.00106125       0.00510462       0.00003175
C        6.00910018       4.39370604       9.71672047      -0.00205734       0.00338078      -0.00173378
C        5.00404201       4.20426780       8.58160435      -0.00002742       0.00216365      -0.00317343
C        6.74472667       5.64243384       9.25129904      -0.00345582       0.00467199      -0.00009933
C        5.85472225       4.57419466       7.37323102       0.00112346       0.00402300      -0.00179109
H        5.54103830       4.51631827      10.69243836      -0.00383127       0.00230345      -0.00242054
H        6.69126900       3.54126188       9.76760959      -0.00081742       0.00456399      -0.00109449
H        4.59718051       3.19540717       8.51877299       0.00198638       0.00142896      -0.00387311
H        4.16990087       4.89912771       8.70270806      -0.00122717       0.00069666      -0.00413918
H        6.19128002       6.54537405       9.54823886      -0.00538749       0.00361168      -0.00077178
H        7.77035474       5.72794812       9.61507558      -0.00425693       0.00617042       0.00166921
H        6.41812876       3.70601053       7.00982061       0.00277463       0.00516021      -0.00169009
H        5.27813880       4.98485745       6.53937809       0.00165090       0.00379802      -0.00229138
O        4.60476189       9.31507171       7.78473174      -0.00119531       0.00398512      -0.01053241
C        4.31376125       8.27327776       5.71181129      -0.00259206       0.00408420      -0.01073140
C        3.13385468       9.22218240       5.91734762      -0.00192922       0.00441504      -0.00936043
C        4.73998686       8.04323419       7.15094583      -0.00090068       0.00429544      -0.01108885
C        3.62036580      10.09747350       7.07171022       0.00116271       0.00568926      -0.01182145
H        4.05075620       7.35303845       5.19126927      -0.00363315       0.00400504      -0.00999627
H        5.11689294       8.76873753       5.15997475      -0.00334787       0.00356469      -0.01192985
H        2.88266694       9.81102586       5.03599107      -0.00331300       0.00372231      -0.00980854
H        2.24765862       8.65302838       6.20888290      -0.00136116       0.00535773      -0.00710751
H        4.07330322       7.30973670       7.63283254       0.00011462       0.00386485      -0.01057127
H        5.76742029       7.70011898       7.27232869      -0.00065267       0.00485085      -0.01222917
H        4.11240844      11.00474652       6.71092066       0.00355998       0.00305784      -0.01454782
H        2.81945995      10.37977032       7.75567228       0.00247085       0.00965001      -0.01201290
