199
Lattice="13.456062912541277 0.0 0.0 0.0 13.456062912541277 0.0 0.0 0.0 13.456062912541277" Properties=species:S:1:pos:R:3:forces:R:3 energy=-521858.1875 stress="0.00028637898503802717 0.0008584900933783501 0.00014738021127413958 0.0008584900933783501 0.0005302001372911036 -0.00033902890572790056 0.00014738021127413958 -0.00033902890572790056 -0.0005682922201231122" pbc="T T T"
Yb      12.65178561      12.97632379       0.45634179      -0.00668249      -0.03779379       0.04451516
S        5.47711950      13.67929124       0.52908453      -0.05176318       0.05284792      -0.06085512
N        2.70123181      13.88062639       0.74057545      -0.05443770      -0.05121686       0.01810037
C        3.87968737      13.79893980       0.64262295      -0.05326673      -0.00739357      -0.01517703
S       11.24799307       9.97059408      11.85307389       0.08358067       0.02078831       0.02348975
N        8.54816305       9.12882092      11.91906117       0.09729671      -0.00387570       0.00618865
C        9.66314769       9.48531168      11.89119292       0.07101086      -0.00057977       0.01391460
S        6.77721274      13.44945917       6.84066833      -0.00412446       0.00597560       0.02688253
N        7.74328745      11.85260190       4.73326836      -0.01175880       0.00488329       0.02453685
C        7.33449076      12.52653435       5.60892275      -0.00875448       0.00475049       0.02586913
O        3.62749666       5.76094577      11.01372051      -0.00741506       0.00526369       0.00056924
C        4.71218862       6.20692942      10.17343546      -0.00358619       0.00216980       0.00388595
C        4.44199725       5.94635946       8.71087883      -0.00041303      -0.00039324       0.00409108
H        4.89880961       7.27107199      10.34896493      -0.00193318       0.00204253       0.00335997
H        5.58418989       5.65015439      10.51909656      -0.00600398       0.00050905       0.00735718
H        5.24872928       6.35650419       8.10482112       0.00487074      -0.00896432       0.00524832
H        4.35811813       4.88026551       8.50089486      -0.00727352      -0.00084940       0.00923221
H        3.52816764       6.44642754       8.39205050       0.00383925       0.00474286      -0.00036040
H        2.83894056       6.23569168      10.73091255      -0.00492999       0.00942400       0.00063422
O        0.05565922       4.02919540       5.00352049       0.00750253       0.00211740      -0.01323348
C        0.26638085       4.17589171       6.40146917      -0.00311941      -0.00557798      -0.01074332
C        1.58888280       4.84509496       6.71682418      -0.01562381       0.01269209       0.00303186
H       -0.55231903       4.78528860       6.78168000      -0.01502788      -0.02105883      -0.01190232
H        0.21840207       3.19521844       6.89941798       0.00924956      -0.00983554      -0.01808619
H        1.68930909       5.00667081       7.79135844      -0.02422915       0.00383092       0.00528103
H        2.43190114       4.23567323       6.38356149      -0.00435995       0.02903634       0.00171029
H        1.65071373       5.81425748       6.21769946      -0.02876387       0.01841143       0.01257626
H        0.90524392       3.80614167       4.58983449       0.00867395      -0.00536628      -0.00709531
O       11.25641329      12.14094073       6.21538396       0.02552921      -0.01863240      -0.00610787
C       10.34839793      12.24143072       7.32010732       0.01569195      -0.00115037      -0.01538169
C       10.80358966      11.42825834       8.51224632       0.00634328       0.01736975       0.00125629
H       10.19846238      13.29030392       7.59689486       0.01384998       0.00314981      -0.03372730
H        9.39397330      11.87731714       6.94586879       0.01916146      -0.00735077      -0.01805508
H       10.07809884      11.49142969       9.32393961      -0.00158492       0.02851536      -0.00653847
H       10.90961200      10.37570571       8.24875396       0.01025870       0.01365764       0.01751867
H       11.76295401      11.77999454       8.89920569       0.00223866       0.02509208       0.00410304
H       12.07580627      12.57154912       6.46997328       0.02381880      -0.01603426      -0.00498807
O        7.78421903       9.24626439       3.89564339      -0.01878339       0.01218379       0.00481915
C        6.86024245       8.40069367       4.52794297      -0.00931448       0.00667986       0.01237041
C        5.94885501       9.13060449       5.49137380      -0.01368293       0.00341550       0.01078975
H        6.26064051       7.89582787       3.75798339      -0.00623360      -0.00164193       0.01576477
H        7.40239024       7.60338320       5.05957550      -0.00191233       0.01389301       0.01573262
H        5.28166356       8.42446341       5.99020375      -0.01072486       0.00060391       0.01082024
H        6.53407398       9.65502338       6.24619445      -0.01730514       0.00727053       0.01110509
H        5.35267445       9.87662055       4.96225433      -0.01690789      -0.00049084       0.00882906
H        7.71595787      10.17364198       4.23367218      -0.01359147       0.00904354       0.01437003
O        2.48705514       3.70496265       3.64310037       0.00638860      -0.01365536      -0.00709912
C        3.09872631       4.86496685       3.06540217      -0.00663775      -0.00619727      -0.00558470
C        4.26416416       5.38740245       3.87693345      -0.00441283      -0.00171940      -0.01202530
H        3.41578394       4.64630464       2.04276440      -0.01232578       0.00261030      -0.00927895
H        2.30464099       5.61018628       3.00314769      -0.01303583      -0.01225793       0.00474091
H        4.67431803       6.27702226       3.39676847      -0.01517241       0.00360849      -0.01140990
H        3.94903011       5.65701733       4.88613442       0.00122451      -0.00848542      -0.00846285
H        5.06721613       4.65245465       3.93751003       0.00135495       0.00346164      -0.02187470
H        3.14576972       3.00351447       3.67911260       0.01416397      -0.00634953      -0.00592575
O       11.89882313       6.84229698       6.20374622      -0.03516406      -0.01419353       0.00070210
C       11.73932522       8.24778928       6.24735316      -0.01277685      -0.01168358       0.00337394
C       10.41544280       8.69514703       5.66792256      -0.00431049       0.00935826       0.00010642
H       11.82823923       8.52983165       7.29997869      -0.01180171      -0.01526783       0.00433254
H       12.56668851       8.75467566       5.72112096      -0.00303099      -0.02388579       0.00687447
H       10.25102385       9.76370133       5.81003721       0.01170162       0.01164028       0.00006832
H       10.35961791       8.49293626       4.59928548      -0.00429193       0.00916741       0.00002173
H        9.59684644       8.14723605       6.13708260      -0.01365893       0.02161144      -0.00207055
H       11.63481234       6.54033367       5.31618047      -0.02197109      -0.00413658      -0.00680862
O       12.10167431       5.86391115       9.80244545       0.03343910      -0.02110302       0.00877663
C       11.58858086       6.68423313      10.85450946       0.02580395      -0.00927199      -0.00412655
C       10.91306760       5.87808038      11.94238300       0.01142284       0.00249889      -0.00468242
H       12.38395853       7.31203994      11.27110236       0.02539629      -0.01057643      -0.00024256
H       10.86218077       7.33758143      10.37767522       0.03417295      -0.00910428      -0.01715910
H       10.45330386       6.53710334      12.68260754       0.01123075       0.00989062      -0.01173756
H       10.12746176       5.25810817      11.51915036       0.00995004       0.00585830      -0.00718674
H       11.62579875       5.22856276      12.45918442       0.00331478       0.00056913       0.00426693
H       12.69811795       5.22241912      10.19539970      -0.00047911      -0.04174651       0.02667913
O        9.02078071       2.60517530       6.46643267      -0.01086700      -0.02560878      -0.01640636
C        8.52353809       3.88620410       6.82134151       0.00403804      -0.02230251      -0.00823540
C        7.09922700       4.10714620       6.34932607       0.00464833      -0.00396064      -0.00185937
H        8.59653641       4.05071338       7.90402250       0.00856897      -0.02921142      -0.00741649
H        9.19728903       4.61036143       6.35558611       0.01027253      -0.02726927      -0.00662306
H        6.73435278       5.08831897       6.66156341       0.01933635       0.00060500       0.00114663
H        7.04721353       4.04425796       5.26272021      -0.00139066      -0.00185666      -0.00176102
H        6.43539215       3.34823965       6.77312409      -0.00320203       0.00430062       0.00046042
H        8.34783354       1.93315438       6.67434773      -0.01252127      -0.02108240      -0.00455695
O       11.35461968       6.28184458       3.47209330       0.00437129       0.02007547      -0.01234081
C       12.64006770       6.76999924       3.08637436       0.01389277       0.00218122      -0.00311497
C       13.02572043       6.33029657       1.68957247       0.01741689      -0.00696582       0.00090158
H       12.65142318       7.86475466       3.15911209       0.02843908       0.00235701      -0.00618687
H       13.34031347       6.36401173       3.81789950       0.00248605      -0.00571239       0.00346747
H       13.95204612       6.81208525       1.36968171       0.03060079      -0.02720518       0.00892892
H       13.16539204       5.24883598       1.66187473      -0.00536415      -0.01000257       0.00396238
H       12.24629595       6.58822243       0.97056751       0.02943751       0.00924229      -0.00631116
H       10.70492678       6.86515376       3.04790345       0.01591611       0.02433090      -0.02400786
O        3.48232581       9.00198565       8.08182731      -0.01128089       0.00491410       0.00170696
C        2.06028226       8.90393579       8.06660517      -0.01129112       0.00658491       0.00080027
C        1.38398001      10.25354678       8.15277638      -0.01062226       0.00645727       0.00744483
H        1.72025935       8.36474710       7.17397176      -0.01159519       0.01215801      -0.00229377
H        1.80140593       8.28833856       8.93153787      -0.01224741       0.00195423      -0.00280669
H        0.30038617      10.13454386       8.19811717      -0.01050174       0.00558566       0.00899087
H        1.71511801      10.78739043       9.04441471      -0.00888528       0.00279680       0.00897311
H        1.61342230      10.84719528       7.26593643      -0.01252914       0.01045406       0.00953232
H        3.74664915       9.62518398       7.39806209      -0.01064001       0.00590383       0.00289734
O        7.01729966       3.19405130       3.07372873      -0.01524186      -0.01391566      -0.01325884
C        6.77048000       1.88179621       3.58544295      -0.00250316      -0.01421165      -0.00854039
C        5.29596798       1.75279310       3.88314592       0.00052178      -0.02223824       0.00172691
H        7.06443777       1.12993682       2.84892339      -0.00194035      -0.01434955      -0.00868797
H        7.35038561       1.70881423       4.49699674       0.00496137      -0.00784919      -0.01191050
H        5.06181840       0.74159581       4.21443174       0.01075457      -0.01899001       0.01880877
H        5.00809059       2.44185922       4.68100591       0.00043789      -0.01273049      -0.00646420
H        4.73188666       1.96977959       2.97158675      -0.00681738      -0.04040385       0.00200832
H        7.80463866       3.13833618       2.51431161      -0.01169347      -0.00722443      -0.00907642
O       10.57167050      12.74768757      12.83874637      -0.00229113      -0.00013599       0.02833374
C        9.15363676      12.99342226      13.05440772      -0.00494431       0.00524562       0.00822800
C        8.40430382      12.99745275      11.74784567       0.01254527      -0.00688599      -0.00162852
H        8.77224852      12.22065903      13.72593217      -0.01574567       0.01324493       0.01110539
H        9.09416015      13.95606395      13.55843945      -0.00755814       0.01071590      -0.00283757
H        7.35231246      13.21846209      11.93612177       0.01084247      -0.00042976      -0.01848123
H        8.80678044      13.76005015      11.08345042       0.02412573      -0.01604386      -0.00527123
H        8.45720009      12.02330254      11.26112892       0.01444352      -0.01296404       0.01019318
H       10.66819477      11.85495039      12.38675760       0.00518773       0.00878066       0.02011141
O       10.27097877       8.37494837       1.83452941       0.03505570       0.02619404      -0.02359509
C        9.88594065       9.75935460       1.77439841       0.01399294       0.02061966       0.00575401
C       10.90570720      10.65817455       2.45316731       0.02159974       0.02700023      -0.01480788
H        9.76867354      10.03453435       0.73020165      -0.02926237       0.03241056       0.01346743
H        8.92010563       9.82903092       2.26515382       0.03001356       0.00186769       0.04047945
H       10.71248831      11.70339166       2.17335286      -0.01378406       0.02960702       0.02083705
H       10.84849695      10.61483760       3.54067595       0.06497749      -0.00143079      -0.01374102
H       11.92308168      10.38543317       2.14319325       0.01724383       0.05681674      -0.05958158
H       10.76834963       8.19114483       1.03202779       0.01900518       0.04310341      -0.03767201
O        4.28067366       6.50045106       0.24769346       0.00571054       0.00499833      -0.02327073
C        5.68095044       6.21102214       0.30253472       0.00451863       0.00361848      -0.01406260
C        5.96020374       4.72533109       0.38828288       0.00378883       0.00332487      -0.02002314
H        6.19001090       6.65364810      -0.56066932       0.01284148       0.00778219      -0.00744289
H        6.06348230       6.72051243       1.18783196      -0.00254318      -0.00131027      -0.00807166
H        7.03758038       4.55526449       0.32146177       0.00511611       0.00441017      -0.00141163
H        5.62962917       4.29850495       1.33374630      -0.01418952      -0.00338503      -0.02937400
H        5.47209647       4.18744113      -0.42842624       0.01936183       0.00827691      -0.03259927
H        3.96235616       6.20033294      -0.62129584       0.00774316       0.00243311      -0.02370605
O        9.34946842       2.54409508       1.59998332      -0.00405730       0.00635305       0.00026983
C       10.32449515       2.56118879       2.64859526      -0.00438091       0.01812735       0.00028245
C       11.55739787       1.75736453       2.28743705      -0.00720641       0.00797901       0.01308432
H       10.60703674       3.58465002       2.90754778       0.00076215       0.02076626      -0.01562738
H        9.82891348       2.12494061       3.51579361      -0.00677922       0.03377736       0.00694966
H       12.30023143       1.80702923       3.08564167      -0.00957511       0.01223028       0.01513059
H       11.26087359       0.70325262       2.15033367      -0.01155694       0.00795845       0.02259901
H       12.02489409       2.13984308       1.37316327      -0.00245927      -0.00419748       0.01076293
H        9.67501352       3.01960783       0.82552561      -0.00646985       0.00042874      -0.00454897
O        1.31364697      10.60142188       4.67923214      -0.01583827       0.00706142       0.00046524
C        2.31689845      10.11640290       3.78261246      -0.01702830       0.00681821      -0.00109718
C        2.70241999       8.67850112       4.05087938      -0.01787829       0.00636697      -0.00214423
H        1.99766347      10.22440411       2.73969224      -0.01900803       0.00639135      -0.00090629
H        3.17139190      10.77902016       3.92862177      -0.01780111       0.00884816      -0.00495178
H        3.49566634       8.37754765       3.36584731      -0.02270819       0.00487862      -0.00687148
H        3.04750318       8.54865363       5.07741758      -0.01373301       0.00515148      -0.00371188
H        1.85359737       8.01059294       3.88385597      -0.02029283       0.00818780       0.00171274
H        0.53787606      10.03899194       4.59339226      -0.00988750      -0.00334361       0.01394711
O        8.71287531       2.96361760      12.12997374      -0.00233930      -0.01399323       0.01588470
C        8.44248244       3.39875371      10.78664018      -0.00290415      -0.00115377       0.02012801
C        7.16871328       2.80540864      10.23943778       0.00195760      -0.00295606       0.01067436
H        8.39465662       4.49294997      10.74858407      -0.00996341      -0.00102967       0.03246459
H        9.30714062       3.09797698      10.19275183       0.00039521       0.01082820       0.01894121
H        6.96145573       3.18841399       9.23974762       0.00222010       0.00663342       0.01429899
H        7.20885232       1.72129084      10.17023756       0.00792985      -0.00191799      -0.00127122
H        6.32068083       3.07024667      10.87662258      -0.00121428      -0.01537377       0.01155642
H        7.86407161       2.87829084      12.57728972      -0.00227436      -0.01740664       0.01550676
O        3.22288894       9.09469041       0.75973160       0.01103461      -0.00899071       0.01367853
C        4.17779391      10.14989686       0.66836471      -0.00008827      -0.00099018      -0.00342057
C        5.60499443       9.67102446       0.81499400       0.00572884       0.01702985       0.00155085
H        4.05811572      10.68437382      -0.28302204      -0.00644533      -0.01449281      -0.01040167
H        3.93721761      10.86899857       1.45631119      -0.00799891       0.00587243      -0.01234841
H        6.28570949      10.52127186       0.85588022      -0.00443467       0.02586798      -0.01089115
H        5.73045247       9.09842557       1.73652631       0.01408888       0.03077029       0.00885004
H        5.90683919       9.04865403      -0.02828651       0.01197888       0.00954071       0.00920673
H        3.65703470       8.25732458       0.52499404       0.00924170      -0.00431028      -0.00748457
O        0.55845210       1.34393688      13.34190950      -0.03425109      -0.02657051      -0.00731754
C        0.81326365       2.16922728      12.20295344      -0.02149082      -0.01862878       0.00060166
C        1.11155801       3.60154675      12.59003975      -0.00717331      -0.02393270       0.01132187
H        1.65646492       1.74445396      11.65513328      -0.02381319      -0.02229500      -0.00044250
H       -0.06443727       2.12108488      11.55196072      -0.01995444      -0.00490502      -0.00150564
H        1.35288213       4.18685261      11.69921837      -0.00322660      -0.01988810       0.01483625
H        0.25762235       4.06235998      13.08513736      -0.00170441      -0.01818533       0.01552239
H        1.97039624       3.65801455      13.25902941      -0.00484301      -0.03495228       0.00933358
H        1.50807425       1.03735515      13.73064761      -0.03995727      -0.02864834       0.00016575
O        9.10169569       6.78043801       8.89104421       0.00999159       0.00585893      -0.01031056
C        7.87717453       7.46024644       8.64366847       0.00765091       0.00533527      -0.00125123
C        8.00879648       8.96612555       8.54337740       0.00451979       0.00663978       0.01236414
H        7.39234790       7.05633363       7.74454439       0.00645205       0.01263076      -0.00389242
H        7.24614357       7.21217677       9.49899949       0.00933433      -0.00375188      -0.00247926
H        7.01858256       9.42428822       8.50687146       0.00370501       0.00496969       0.01147590
H        8.52443236       9.34936336       9.42023643       0.00043927       0.00009863       0.01793623
H        8.54833301       9.26573522       7.64547924       0.00792097       0.01539943       0.01726206
H        9.67157613       6.82686518       8.11536822       0.00118218       0.00080417      -0.01709317
O        4.75163364       1.41959384       9.00501871       0.00766537       0.01391190      -0.00891644
C        3.78078424       2.13904401       9.73814868      -0.00383651      -0.01134610       0.00045031
C        2.42802875       2.16583106       9.05256004      -0.00104147      -0.01247102      -0.00548053
H        3.70168369       1.75779744      10.76566618      -0.00402810      -0.03243488      -0.00739640
H        4.17351169       3.15335841       9.81441369      -0.01509003      -0.00849903       0.02172570
H        1.77050405       2.90701210       9.51127486      -0.01008718      -0.02595548       0.00334567
H        2.55151085       2.43205456       8.00375724       0.00133039       0.00604365      -0.00059032
H        1.93008336       1.19491698       9.10407477       0.00745951      -0.01777676      -0.02399125
H        4.45566651       0.51621598       8.85333022       0.01916420       0.01336613      -0.02874209
