200
Lattice="13.741233392501464 0.0 0.0 0.0 13.741233392501464 0.0 0.0 0.0 13.741233392501464" Properties=species:S:1:pos:R:3:forces:R:3 energy=-610393.4375 stress="-0.0013403634075075388 -3.5909865800931584e-05 -4.986020996966545e-06 -3.5909865800931584e-05 -0.0008977030520327389 -0.00022865008941153064 -4.986020996966545e-06 -0.00022865008941153064 -0.0008701790357008576" pbc="T T T"
Yb      15.13721361      14.42881508       0.31787120      -0.00581668       0.00794082      -0.00297858
S        1.96060711      12.68645163       2.59574906      -0.01906168       0.01311338       0.00306177
N        4.76373989      12.35832022       2.45011355       0.00563872      -0.00550830      -0.00293513
C        3.60786204      12.52637115       2.51747021      -0.04442924       0.00783874       0.00170779
S        9.80177659      10.72579532       9.72812717       0.01182616      -0.00182331      -0.01583280
N        7.24514432      11.88429871      10.01373304      -0.00262213      -0.03405356       0.00121167
C        8.32387874      11.43077363       9.88799702       0.00720531      -0.01121926      -0.00584143
S        8.71547511      13.26370292       6.77584585       0.01553595      -0.00164461      -0.00645781
N       10.08440444      14.80939993       4.86881077       0.00809252       0.01190984      -0.00034356
C        9.51164665      14.15164207       5.66977054       0.01142100       0.00699276      -0.00303219
O        3.84899537       5.66509037      10.05440183       0.00294587      -0.00013170      -0.00089492
O        3.66424169       5.00930164      12.16749429      -0.00888342       0.00355259      -0.00102021
O        2.01414114       6.20331846      11.22222772       0.00034338       0.00895762      -0.00981358
C        5.02620634       4.85215989      10.26701054       0.00173190       0.00049362       0.00683296
C        4.94328381       4.47669456      11.74933798      -0.00901765      -0.00189137       0.00557637
C        3.08835802       5.66221010      11.16175723      -0.00197315       0.00447628      -0.00462823
H        5.89541740       5.45755656      10.02084685       0.00262973       0.00238585       0.01480280
H        4.97305747       4.00274722       9.59320689       0.00748462       0.00183895       0.00475830
H        4.93423586       3.40237582      11.91315519      -0.01487431      -0.00215125       0.00357959
H        5.71715367       4.94208359      12.35341039      -0.01018423      -0.00662398       0.01049700
O       12.46702165      10.60155113       7.93435005       0.01753676      -0.00908047      -0.00378448
O       12.74405158      12.45732073       9.12579501       0.01832750      -0.00909925      -0.00435821
O       13.33087879      10.46962742       9.99880400       0.03795940      -0.00679779      -0.01259243
C       12.02555423      11.64998713       7.05534452       0.00584632      -0.01049846       0.00037539
C       12.08867560      12.90232889       7.92479356       0.01062966      -0.01012826      -0.00057209
C       12.88433657      11.12298479       9.09779351       0.02574837      -0.00811276      -0.00753546
H       11.00805847      11.43273589       6.73883308       0.00365955      -0.01360435       0.01021669
H       12.70625307      11.67958793       6.20482749      -0.00245252      -0.00874273      -0.00611261
H       12.68730502      13.69839477       7.48401879       0.00761348      -0.01030582      -0.00472447
H       11.09111516      13.26798376       8.17217406       0.01194650      -0.01065098       0.00529857
O        6.25005453       9.48348013       3.96941932       0.00188225       0.01426584      -0.00466400
O        7.61660710       8.67551188       5.52127653      -0.00761238       0.00067019      -0.00327825
O        5.94147393      10.04824208       6.12841303      -0.00707161       0.00052184      -0.00356150
C        6.99795552       8.45616428       3.29241159       0.00419733       0.01902267      -0.00853688
C        8.11187857       8.13850242       4.28265696      -0.00062114       0.01122150      -0.00551006
C        6.54656647       9.46705617       5.28016859      -0.00442582       0.00500128      -0.00318360
H        7.35641032       8.84547319       2.34584511       0.00842163       0.02629143      -0.00373864
H        6.33001803       7.61203820       3.11911641       0.00483379       0.02072194      -0.01790678
H        8.28848603       7.07424609       4.42486113      -0.00034047       0.01021734      -0.01350800
H        9.04821251       8.64042403       4.05325832       0.00026697       0.01384363       0.00390374
O        2.38901877       3.37162640       3.24005630      -0.00040120       0.00107543      -0.00711814
O        3.92202075       4.11462591       1.82850974       0.00618097       0.00434802       0.00212738
O        2.40464179       2.64715058       1.12585046       0.01353413       0.00154291      -0.00689393
C        3.19015569       4.27585491       4.03624449      -0.00543903      -0.00019380      -0.00143194
C        4.34264881       4.64325767       3.10188782      -0.00139999       0.00341958       0.00511884
C        2.87190840       3.33196546       2.01353478       0.00642131       0.00169465      -0.00469437
H        3.51055485       3.74814868       4.93195655      -0.00872944      -0.00192916      -0.00139424
H        2.56194403       5.13032705       4.28629654      -0.00751311      -0.00159761      -0.00255990
H        4.48549249       5.71160930       2.98340239      -0.00289656       0.00384480       0.00768109
H        5.27169293       4.15175812       3.38257511      -0.00208163       0.00459623       0.00917557
O       12.91433055       8.00387416       5.41007716       0.00558342      -0.01077116      -0.00035025
O       11.02510979       6.92930012       5.86157725       0.00895157      -0.01307613       0.00744545
O       10.96285412       9.10641164       5.32400823       0.00414094      -0.01305282       0.00785779
C       13.34239663       6.68555425       5.78020498       0.00864053      -0.01001428      -0.00150499
C       12.03009747       5.90815157       5.91387200       0.01039872      -0.01218873      -0.00035594
C       11.58235700       8.10295949       5.51697403       0.00601923      -0.01244068       0.00521503
H       13.89333294       6.76376001       6.71795559       0.00981228      -0.00936955      -0.00230211
H       13.98351360       6.30244337       4.99015198       0.00813335      -0.00848526      -0.00254056
H       11.86706975       5.22538313       5.08338207       0.00843258      -0.00876594      -0.00278893
H       11.92980771       5.38722204       6.86376333       0.01422221      -0.01636136      -0.00240368
O       11.77353087       8.04449911      11.99372220       0.00184014      -0.00044303       0.00111017
O       11.44594940       6.43228727      10.50148074      -0.00135186       0.00508335      -0.00392984
O        9.67540740       7.52576836      11.35754963       0.00093150       0.00491020       0.00090206
C       13.09857255       7.68719268      11.53080213       0.00158665      -0.00265533       0.00236799
C       12.85436130       6.37005868      10.81713806      -0.00092286       0.00245869      -0.00657612
C       10.85891434       7.36827983      11.29883584       0.00078422       0.00313339      -0.00061954
H       13.74825848       7.58271147      12.39390308      -0.00137168      -0.01047284       0.00349769
H       13.43602891       8.48534301      10.87152134       0.00686426      -0.00039548       0.00790426
H       13.41760349       6.27233704       9.89401827      -0.00230645       0.00906107      -0.00808346
H       13.03538206       5.50405368      11.45512026      -0.00036133      -0.00219285      -0.01321024
O        6.26685037       3.36219145       5.69072445      -0.00545284      -0.00222562      -0.00317383
O        6.73012480       3.33541187       7.86287815      -0.00454706      -0.00938777      -0.00371368
O        4.59395926       3.47704008       7.18222480      -0.00436509      -0.00427924      -0.00190085
C        7.70488755       3.38323715       5.74148478      -0.00551560       0.00036047      -0.00364453
C        8.01862330       3.21644984       7.22574185      -0.00508368      -0.00815119      -0.00483549
C        5.76354144       3.40413658       6.93014829      -0.00482100      -0.00517704      -0.00265394
H        8.03942495       4.34365006       5.34944395      -0.00786077       0.00350267       0.00238772
H        8.09193023       2.55848555       5.14997764      -0.00408718       0.00490811      -0.00902629
H        8.42821888       2.23394577       7.46241360      -0.00655857      -0.00999469      -0.01015886
H        8.65447082       4.01666912       7.60080346      -0.00336204      -0.01142332      -0.00097424
O        2.59025544      10.39300993       9.38030508       0.03576787       0.02164163      -0.00658742
O        2.31219694       9.38614818       7.41987220      -0.01843969      -0.00868791       0.01574026
O        1.61819498      11.51401894       7.67980500       0.01104337       0.00428164      -0.00420225
C        2.92424792       9.01341535       9.60460464       0.02265651       0.01968792       0.00843269
C        3.12919974       8.48532464       8.19627476       0.00294301       0.00498948       0.01153275
C        2.12530540      10.53082002       8.12410499       0.00928125       0.00596827       0.00137579
H        2.09630756       8.52478800      10.11950419       0.01368034       0.03630105       0.01293071
H        3.82304694       8.97563237      10.21391953       0.03345820       0.02778045      -0.00116634
H        4.16210998       8.56749178       7.85802765      -0.00344223       0.01491488      -0.00480543
H        2.76784488       7.46963583       8.05506061       0.01110354       0.00040722       0.02557485
O        4.67337715       1.63672919       2.83200620       0.00223316       0.00230519       0.00374919
O        6.34856531       0.84144947       4.05943179       0.00378466      -0.01341277      -0.00883692
O        4.29175489       1.04189424       4.96766044       0.01076901      -0.00180210       0.00355768
C        5.75114463       1.48806360       1.89853764      -0.00489700      -0.00248526      -0.00342116
C        6.94259506       1.19015285       2.80200314      -0.00154346      -0.01736061      -0.01247483
C        5.03921064       1.14231247       4.04715989       0.00522560      -0.00416335       0.00040305
H        5.85068836       2.41196616       1.33142436      -0.00029580      -0.00087947       0.00019698
H        5.51591249       0.65637927       1.23789944      -0.01592284       0.00285351      -0.00616542
H        7.52638472       0.34671812       2.45254430      -0.01397125      -0.02316159      -0.01919810
H        7.59158647       2.05569929       2.95614800       0.00900376      -0.02503440      -0.01516305
O       12.30269264      13.21336754      12.20751397      -0.00182778       0.00518365       0.00324767
O       10.93855240      13.20776749      13.94875410      -0.01279961      -0.00039786      -0.00530723
O       13.14703254      13.10836880      14.27094218      -0.01461461       0.01900761       0.00855824
C       10.97645508      13.45225425      11.63923140      -0.00016125      -0.00716591      -0.00603223
C       10.05479348      13.08782385      12.78606377      -0.00473583      -0.00918087      -0.01018512
C       12.18992929      13.16124209      13.51760533      -0.00911281       0.00881626       0.00341091
H       10.85312210      12.79731010      10.77929431       0.00984327      -0.01180252      -0.00386867
H       10.92958779      14.50173499      11.35875833      -0.00664866      -0.00871229      -0.01038088
H        9.22290585      13.77159403      12.91734947      -0.00953093      -0.01341543      -0.01764878
H        9.71493993      12.05458862      12.74398746       0.00164009      -0.01123810      -0.00871149
O       11.79993270       6.56754604       2.75051131      -0.00376104      -0.00226355       0.00527667
O       13.35921353       7.00666963       1.23280444      -0.00714014      -0.00186807       0.00218524
O       13.52253793       5.14763100       2.50601478      -0.00597364      -0.00345182      -0.00078124
C       11.31008520       7.72294612       2.01381408      -0.00469261      -0.00079316       0.00838660
C       12.57008251       8.22240535       1.34510168      -0.00672287      -0.00184417       0.00368951
C       12.95658644       6.15618937       2.18181740      -0.00577486      -0.00274211       0.00198343
H       10.89941096       8.42685018       2.72981971      -0.00023259      -0.00076583       0.01085564
H       10.54327880       7.39876285       1.31120044      -0.00814652       0.00100490       0.01148283
H       12.39952074       8.63313319       0.35962133      -0.00995064      -0.00309990       0.00374061
H       13.11962179       8.92449613       1.97289461      -0.00449535      -0.00114098       0.00087681
O       13.35472946       1.85506369       2.07800310       0.00682473       0.01726149      -0.00716907
O       11.57877688       2.92690832       1.29987187      -0.00367782       0.00105038      -0.00504681
O       13.22422382       2.29717944      -0.09875780       0.00084823       0.01586394      -0.00662905
C       12.41809796       1.85918207       3.19750272       0.01057869       0.01104438      -0.00463873
C       11.37398378       2.86385919       2.74308984      -0.00341985      -0.00309455      -0.00524104
C       12.74215054       2.38060189       1.01231490       0.00096139       0.01181019      -0.00626484
H       12.96019717       2.15076666       4.08965656       0.01181883       0.02035756      -0.00858292
H       12.01582158       0.85744682       3.30535750       0.02236515       0.00688994       0.00207223
H       10.36491182       2.52300290       2.93802830       0.00166839      -0.01822151      -0.00577744
H       11.54549891       3.86505908       3.12799578      -0.01903602      -0.00088087      -0.00426280
O        1.51965491       8.11840672       3.39359252      -0.00128106       0.00842920      -0.00337327
O        3.74218246       8.15865677       3.41082068      -0.00169015       0.00640327       0.00438970
O        2.68111774       6.91279566       1.87897325       0.00244484       0.00780904       0.00017375
C        1.87884811       9.18535618       4.31846935      -0.00431478       0.00895506      -0.00261949
C        3.34442750       8.91770918       4.58208013      -0.00477439       0.01006201       0.00102991
C        2.64698343       7.66048288       2.81353625      -0.00002928       0.00753427       0.00074768
H        1.25326093       9.10730234       5.19795701      -0.00626296       0.00797959      -0.00398207
H        1.70977941      10.13860381       3.81462842      -0.00398831       0.00834107      -0.00349024
H        3.95610044       9.81090590       4.63939486      -0.00498009       0.01049334      -0.00164125
H        3.52278812       8.28930478       5.45367345      -0.00639850       0.01355207       0.00371838
O        9.46764665       2.40338003      10.43974104      -0.01012957       0.00488497       0.02079880
O        7.83025432       3.64048754      11.29842813      -0.01034681       0.01624864       0.00388188
O        7.77083399       1.40272298      11.54028137      -0.01536608       0.01904643       0.02503681
C        9.94285528       3.75757012      10.35318305      -0.00793380       0.00324603       0.00759435
C        8.68996408       4.57974978      10.62433494      -0.00711536       0.00807041      -0.00332772
C        8.29830908       2.38591841      11.12666048      -0.01143536       0.01477063       0.01802608
H       10.36047179       3.91885523       9.36249655      -0.00613885      -0.00741497       0.00671396
H       10.71755779       3.90099178      11.10650869      -0.00904384       0.01036984       0.00730348
H        8.84720280       5.43676293      11.27109519      -0.00701530       0.01423547      -0.01138121
H        8.19602559       4.89602386       9.70385281      -0.00449970      -0.00019002      -0.00738856
O        3.84723105      11.05296225      -0.23225089      -0.01839888       0.00019327      -0.00718592
O        1.67029171      10.69602430      -0.38712864      -0.01806363      -0.00413106      -0.00109365
O        2.50450415      12.69629192      -0.94533820      -0.02384283      -0.00309488      -0.00281763
C        3.63045067       9.82253810       0.50106216      -0.01493701       0.00011650      -0.00627574
C        2.21613519       9.43906987       0.08277058      -0.01302561      -0.00437027      -0.00719433
C        2.66272178      11.55886935      -0.54667820      -0.02109830      -0.00115681      -0.00411034
H        3.73763788      10.06372158       1.55707247      -0.01691934       0.00160088      -0.00646526
H        4.39105387       9.10459915       0.21222297      -0.01234682       0.00253242      -0.00499922
H        2.18562216       8.72273642      -0.73818266      -0.00960717      -0.00017989      -0.01097879
H        1.59208775       9.09074733       0.89810841      -0.01105116      -0.01110030      -0.00891694
O        8.31520544       6.66692142       7.35587865       0.00322944       0.00171535      -0.00056156
O        6.57520395       7.71233872       8.25150810       0.00301433       0.00015232       0.00068656
O        6.23533735       6.06776065       6.75982886       0.00336361      -0.00747889       0.00925273
C        8.91062693       7.75638347       8.10640187       0.00251424       0.00541690      -0.00532300
C        7.71464748       8.52285887       8.65188586       0.00211826       0.00352830      -0.00379598
C        6.97625070       6.76524044       7.39615316       0.00322914      -0.00225174       0.00363100
H        9.51205643       8.35005539       7.42667589      -0.00120845       0.00520298      -0.00877857
H        9.52727226       7.33011983       8.89295192       0.00632507       0.00921565      -0.00641149
H        7.73815565       8.58720553       9.73335676       0.00431133       0.00590162      -0.00395113
H        7.58448689       9.50883827       8.21883531      -0.00135735       0.00233364      -0.00502291
O        7.11224230       9.20791254      13.30695956       0.00952668      -0.02086866       0.02053006
O        6.84736582       7.16769720      12.46433327       0.00210661      -0.01027571      -0.00285432
O        8.17279636       7.46602605      14.26309428      -0.00446993      -0.03673410       0.00661552
C        6.40109883       9.40263507      12.06084678       0.01805143      -0.00366926       0.01821373
C        5.90771289       7.99664696      11.75874608       0.00928673       0.00253350       0.00295183
C        7.46030806       7.91726177      13.41652618       0.00174361      -0.02400568       0.00820732
H        7.09673875       9.79307483      11.32140096       0.02530628      -0.00262348       0.02555805
H        5.61628657      10.13716610      12.21598749       0.02269277       0.00085145       0.02065895
H        4.90975100       7.79495201      12.16213214       0.00715935       0.00582273      -0.00128371
H        5.93123962       7.73365109      10.70327506       0.01020060       0.01266588       0.00049198
O        2.58961729       2.91490241      10.16093724       0.00454408      -0.00374080      -0.00652581
O        0.70517974       1.75186107      10.15989610       0.00492010      -0.00422814       0.00499228
O        2.02358147       1.74485954      11.97383083       0.00946856       0.00695504       0.00116089
C        1.93102024       3.28436028       8.92222304       0.00139992      -0.01146454      -0.00706917
C        0.86930748       2.20354086       8.79074387       0.00210762      -0.01305643       0.00169265
C        1.78524253       2.10872379      10.84918417       0.00668271      -0.00008526       0.00047919
H        2.68403598       3.29238829       8.14034106      -0.00035417      -0.01546935      -0.00858176
H        1.51242667       4.28138290       9.07083441       0.00104438      -0.01097715      -0.01187623
H       -0.09339979       2.56818991       8.44333675       0.00126183      -0.01618879       0.00105575
H        1.19559516       1.35242243       8.19565024       0.00193323      -0.01658294       0.00679073
O        9.14993935      11.42058664       1.85921615      -0.00849986       0.00357907       0.01609311
O       11.23881420      11.01952827       2.50300011      -0.00649664       0.00234887       0.00853580
O       10.50941524      10.20219482       0.54335433      -0.01591215      -0.00298291       0.01433325
C        9.33820415      12.25188865       3.02670314       0.00087130       0.00998980       0.01048474
C       10.66222527      11.76832743       3.59558210      -0.00533697      -0.00228906       0.01259154
C       10.31327685      10.83102613       1.54283944      -0.01056559       0.00064269       0.01287901
H        8.49267471      12.11578851       3.69596145      -0.00034323       0.02448910       0.01179236
H        9.39415502      13.28927897       2.70618795       0.01342045       0.00698048       0.00255877
H       11.33098234      12.58691356       3.84481243      -0.00104725      -0.00854737       0.02162462
H       10.55499048      11.10234644       4.44555098      -0.01357214      -0.00849935       0.00686032
