190
Lattice="14.224784326368486 0.0 0.0 0.0 14.224784326368486 0.0 0.0 0.0 14.224784326368486" Properties=species:S:1:pos:R:3:forces:R:3 energy=-531712.375 stress="-0.001250161323696375 -2.4173527890525293e-05 -0.0002594842226244509 -2.4173527890525293e-05 -0.0005390659789554775 -0.00029156664095353335 -0.0002594842226244509 -0.00029156664095353335 -0.001429154770448804" pbc="T T T"
Yb      14.69809354      14.68593343       1.13000056      -0.00108131       0.02842036       0.02429209
Cl       2.40282765      14.62341079       3.43212859       0.01235139       0.00493878       0.02045512
O        2.57527618      15.31231274       2.00977486       0.00789171      -0.00224435       0.01587129
O        0.90378987      14.11193500       3.42464958       0.02166057      -0.02097535       0.01770198
Cl       9.11813411      13.13580246      11.38584739       0.02897656      -0.01046091      -0.03839993
O        8.48668630      14.35153736      10.75975299       0.03935480       0.00147307      -0.02460331
O        8.38081095      12.56938809      12.57991474       0.03310126      -0.00663042      -0.03422034
Cl      13.95194789      14.46189251      12.40478750       0.02432287       0.01093458       0.01644135
O       15.06313282      13.65190277      13.18985459       0.00759685       0.01295853       0.04173499
O       13.42672432      15.48907646      13.49208071      -0.00827655       0.00599813       0.00565666
C       12.54966451      11.59849914       6.65879664      -0.00107786       0.00325848      -0.00674267
C       13.04976320      10.31129083       6.86142293      -0.00090116       0.00279905      -0.01102075
C       11.22884859      11.73099715       6.23175158      -0.00223345       0.00417116      -0.00340976
C       13.42369940      12.80030855       6.87226773      -0.00108948       0.00272539      -0.00493626
C       12.26292009       9.19067660       6.63157834      -0.00134568       0.00358498      -0.01103796
C       10.43332601      10.61240230       6.00822722      -0.00226331       0.00500678      -0.00446447
C       10.94753338       9.33743110       6.20648341      -0.00245036       0.00444265      -0.00814035
H       14.06765900      10.19093070       7.21313439       0.00026625       0.00225718      -0.01442924
H       10.81686732      12.72273586       6.08295659      -0.00236053       0.00461266       0.00014918
H       12.82642255      13.69504747       7.05192659      -0.00122337       0.00186840      -0.00185185
H       14.09018115      12.65939519       7.72476440      -0.00008321       0.00061832      -0.00613031
H       14.05275595      12.98679583       5.99645475      -0.00199024       0.00526698      -0.00490999
H       12.66410809       8.19924350       6.80250837      -0.00110412       0.00321260      -0.01416657
H        9.40741969      10.73760093       5.68416501      -0.00335313       0.00565858      -0.00128772
H       10.32896463       8.46331214       6.04527009      -0.00265419       0.00505480      -0.00853673
C        3.00946173       9.78548755       5.34031964       0.00495979       0.00295784      -0.00092050
C        4.02721612       9.88386276       4.39216706       0.00258110       0.00154305      -0.00229111
C        2.68398249      10.92117682       6.08245489       0.00797154       0.00119440       0.00207280
C        2.30390176       8.48309004       5.57658703       0.00273992       0.00363699      -0.00190187
C        4.71002234      11.07887056       4.19986639       0.00573941       0.00183092      -0.00143722
C        3.35567260      12.12114320       5.88697891       0.01144589       0.00089762       0.00293186
C        4.37675730      12.20224954       4.94706205       0.00885692      -0.00050303       0.00208968
H        4.27840993       9.01549279       3.79387488      -0.00079708       0.00342759      -0.00509057
H        1.90056477      10.86310034       6.82883683       0.00916289       0.00216718       0.00251203
H        1.24650556       8.63802218       5.79754598       0.00215527       0.00463451      -0.00594041
H        2.38029479       7.83176412       4.70632318       0.00533309       0.00277338      -0.00079007
H        2.74266777       7.95830433       6.42862121      -0.00073683       0.00459336       0.00031433
H        5.49977762      11.13379185       3.45974494       0.00271179       0.00108716      -0.00352634
H        3.08443370      12.98812865       6.47733140       0.01325640       0.00000289       0.00480026
H        4.90611666      13.13490527       4.79573233       0.01021883      -0.00034652       0.00174991
C       12.98171445       2.04259107       3.23361447      -0.00545077      -0.00261380       0.00199592
C       13.36586806       2.53873235       4.48047600       0.00820993      -0.00395536      -0.00191474
C       13.23152449       2.83063488       2.10160997      -0.01598608      -0.00248539      -0.00025968
C       12.25915696       0.72858575       3.14454208      -0.00745866      -0.00222352       0.00279909
C       13.93120254       3.79857353       4.60645957       0.01695368      -0.00802337      -0.00904223
C       13.83166637       4.08657250       2.22458107      -0.00418376      -0.00462691      -0.00684644
C       14.16866562       4.57815920       3.47763850       0.01285914      -0.01084541      -0.00835135
H       13.20179278       1.92841419       5.36060217       0.01226291      -0.00322137       0.00056078
H       12.85773911       2.52363060       1.12629963      -0.03171786       0.00332738       0.00574338
H       12.45213559       0.16668759       2.21937849      -0.02409481       0.00645530      -0.00599274
H       12.51167208       0.08046630       3.98242191       0.00703704      -0.01003294      -0.00738227
H       11.17841575       0.88484719       3.14083907      -0.00740364      -0.00156567       0.02475472
H       14.17706690       4.17991210       5.59028748       0.03200655      -0.00931180      -0.01004077
H       14.00170086       4.68791983       1.33940671      -0.00878789      -0.00892090      -0.00785730
H       14.60298376       5.56440177       3.58270276       0.02471534      -0.01405570      -0.01463649
C        9.15954847       2.66776922       5.94989655      -0.00174835       0.00272053       0.00668196
C       10.05528302       3.70756924       5.71043985      -0.00026211       0.00230616       0.00646595
C        7.79353233       2.94811192       5.90700437      -0.00074580       0.00329801       0.00349971
C        9.64882583       1.27513229       6.22498108      -0.00233740       0.00395194       0.01309767
C        9.60270822       4.98782810       5.41653256      -0.00017001       0.00221045       0.00605033
C        7.33664470       4.22423600       5.61136971      -0.00048536       0.00309269       0.00281129
C        8.24102773       5.24819970       5.35537800       0.00100606       0.00326936       0.00502812
H       11.12012169       3.51059410       5.73472957      -0.00091230       0.00188389       0.00901703
H        7.08198933       2.14781745       6.07882679      -0.00157966       0.00367308       0.00354267
H        9.01320180       0.53519753       5.73494220       0.00160207       0.00218065       0.01066933
H       10.66777615       1.14259168       5.85901136       0.00032878       0.00364576       0.02122615
H        9.64547500       1.04649959       7.29440804      -0.01018957       0.00674394       0.01365000
H       10.32067858       5.77705343       5.22734083       0.00063451       0.00217409       0.00712047
H        6.27191014       4.41548862       5.55949746       0.00012250       0.00354424       0.00143916
H        7.88294495       6.23927333       5.10393507       0.00167045       0.00368983       0.00609442
C        8.90729881       4.27579488       2.02768415      -0.01001967       0.00170852       0.00069191
C        7.52010165       4.40198291       2.07515319      -0.00623156       0.00065842      -0.00074545
C        9.46218840       3.02149670       2.27596973      -0.00804968      -0.00073128      -0.00032509
C        9.78535077       5.45622563       1.73524368      -0.00680223       0.00033548       0.00296813
C        6.70969472       3.31314035       2.36454804      -0.01030655       0.00233020      -0.00449401
C        8.65670629       1.92710365       2.56038814      -0.01224182      -0.00031853      -0.00382467
C        7.27729088       2.07022739       2.60675250      -0.00926960      -0.00048940      -0.00591932
H        7.07038776       5.36802883       1.87221455      -0.00691615       0.00245114      -0.00012505
H       10.53991406       2.91504329       2.24147293      -0.01024455      -0.00006141       0.00084948
H       10.74573881       5.14637970       1.32187873      -0.00512534       0.00030150       0.00848260
H        9.31979385       6.13849307       1.02298136      -0.00330906      -0.00087477      -0.00099874
H        9.99505172       6.02194735       2.64739992      -0.01188754       0.00278656       0.00256488
H        5.63352043       3.42782524       2.38260885      -0.00852385       0.00247899      -0.00585300
H        9.10006192       0.95409303       2.73942529      -0.01057592      -0.00089437      -0.00554232
H        6.65043424       1.21351488       2.81759406      -0.01338411       0.00115828      -0.00903414
C        7.86601958       2.45644444      13.24846775       0.00110264      -0.00403219      -0.01433175
C        7.15014914       1.30692247      13.57071695      -0.02398847      -0.01875985      -0.01759138
C        7.15560682       3.64400992      13.08017507      -0.03876009      -0.00599384      -0.00151311
C        9.35613306       2.41962939      13.06749132      -0.01489902      -0.01203583      -0.00864552
C        5.76958681       1.34003770      13.71620368      -0.00278700      -0.00636813      -0.02092329
C        5.77362480       3.68297545      13.20811834       0.02089139      -0.01604567      -0.00449702
C        5.07383418       2.52730091      13.53212001      -0.01061723       0.00467877      -0.01300808
H        7.67605097       0.37041534      13.70142468      -0.01619620      -0.01131454      -0.02950948
H        7.69461017       4.55819907      12.87261878       0.00051527      -0.00350276       0.00016110
H        9.83188110       3.29403052      13.51637354      -0.00953634      -0.01171912      -0.00509171
H        9.79020645       1.52939056      13.52368593      -0.02047991      -0.01237346      -0.00766025
H        9.61539403       2.39839246      12.00573576      -0.00755132      -0.00902711      -0.00883508
H        5.23839321       0.43431100      13.98154007      -0.01699027      -0.00842921      -0.02539817
H        5.24562610       4.62044405      13.07713203      -0.00783738       0.00580010       0.00026154
H        3.99905394       2.55838396      13.65492847      -0.01056583      -0.00345813      -0.01089767
C       10.19230379       5.53232904       8.89934871      -0.00158671      -0.00737165       0.00514613
C       10.69648607       6.82732790       9.01972159       0.00182517      -0.00761312      -0.00315166
C       11.07616107       4.46211538       9.02712057      -0.00336912      -0.00787893       0.00996797
C        8.72832529       5.30559743       8.69231513      -0.00199917      -0.00667892       0.00936525
C       12.03521266       7.04690614       9.30319885       0.00207723      -0.00969097      -0.00728143
C       12.42310242       4.67811221       9.29476992      -0.00272919      -0.01022026       0.00595663
C       12.90401285       5.97174078       9.44688604       0.00093441      -0.00934410      -0.00289823
H       10.02505379       7.67263912       8.91884421       0.00299004      -0.00699001      -0.00741340
H       10.69957546       3.45140772       8.91777522      -0.00531635      -0.00768087       0.01573022
H        8.51925483       4.28489990       8.37815712      -0.00147863       0.00063404      -0.01436506
H        8.17961090       5.49335948       9.61660811       0.00360896      -0.03287115       0.01818088
H        8.32527641       5.97770964       7.93617432      -0.00978518       0.01109445       0.02941135
H       12.39523203       8.05858161       9.43705407       0.00474615      -0.00915807      -0.01357039
H       13.09513889       3.83442907       9.39822277      -0.00463066      -0.01059577       0.00916784
H       13.94131219       6.14548429       9.69840098       0.00181028      -0.01105828      -0.00721456
C        2.05792578      10.33265813       1.42475934       0.00447703      -0.00664905       0.00633765
C        1.01692341       9.74873779       2.14152971       0.00233008      -0.00553638       0.00655754
C        2.95761779       9.50084759       0.75968030       0.00332645      -0.00947652       0.00906064
C        2.21921862      11.82240620       1.36712637       0.00351495      -0.00725979       0.00540463
C        0.86524043       8.36689800       2.17581281      -0.00045075      -0.00688158       0.00565765
C        2.81352070       8.12166628       0.79219154       0.00266811      -0.00368584       0.00760494
C        1.76117846       7.54827197       1.49908546       0.00251595      -0.00797120       0.00271620
H        0.31428241      10.38218284       2.67091558       0.00333110      -0.00798211       0.00680893
H        3.77822941       9.94650084       0.20920534       0.00664669      -0.00590404       0.00986208
H        2.24628429      12.17358215       0.33201701       0.00299373      -0.00900394       0.00480592
H        1.39251018      12.29434904       1.90709726       0.00514090      -0.00403902       0.00291292
H        3.14106470      12.14750709       1.85501322       0.00500101      -0.00789853       0.00341603
H        0.03911743       7.93433988       2.72851986       0.00198336      -0.00560577       0.00329237
H        3.51283262       7.49207200       0.25563908       0.00469308      -0.00794111       0.00831536
H        1.64625562       6.47154945       1.51903049      -0.00137850      -0.00549918       0.00129003
C        5.58770155      11.47134494      11.22833613      -0.00339437       0.00500007       0.00270741
C        4.49835205      12.29444222      11.50172468      -0.00126101       0.00784811       0.00355679
C        6.24598781      11.62767483      10.00763934      -0.00546515       0.00174209       0.00161010
C        6.03527194      10.42897088      12.20820706      -0.00333716       0.00641191       0.00397420
C        4.07414820      13.24981556      10.58683852      -0.00040008       0.00717225       0.00260109
C        5.83088400      12.58369559       9.09150952      -0.00470017       0.00060751       0.00056651
C        4.74080276      13.39770146       9.37841305      -0.00249203       0.00396641       0.00122422
H        3.97569485      12.18991387      12.44658683       0.00016724       0.01035585       0.00448657
H        7.10843827      11.00887384       9.78549533      -0.00716075      -0.00070798       0.00084289
H        7.11979578      10.42345138      12.30407036      -0.00322086       0.00680381       0.00294533
H        5.62029763      10.61589563      13.19851055      -0.00323853       0.00783280       0.00360282
H        5.71803966       9.43245429      11.89201727      -0.00325838       0.00590980       0.00579321
H        3.22675850      13.87997595      10.82715449       0.00196798       0.01009247       0.00309524
H        6.36295115      12.70104437       8.15554787      -0.00664020      -0.00272287      -0.00069724
H        4.42251994      14.15113943       8.66853539      -0.00182735       0.00326107       0.00059398
C        2.13092853       7.68695631       9.64270117       0.00149934      -0.00139782      -0.00503875
C        2.99102637       8.03559573      10.68496575      -0.00400485      -0.00044620      -0.00123887
C        1.05530911       8.52983132       9.36789980       0.00183821      -0.00253823      -0.01055004
C        2.34544745       6.41853911       8.86832811       0.00567198      -0.00082615      -0.00460961
C        2.76962857       9.17952061      11.43667797      -0.00787932      -0.00099714      -0.00319473
C        0.82578542       9.67448405      10.12555638      -0.00199499      -0.00151113      -0.01148289
C        1.68256508      10.00236017      11.16701265      -0.00581209      -0.00157078      -0.00795516
H        3.84305531       7.40043901      10.90583102      -0.00467838      -0.00077496       0.00290846
H        0.38163563       8.27563448       8.55801900       0.00565643      -0.00278599      -0.01245699
H        1.70662983       6.37860869       7.98650516       0.00413725      -0.00453676      -0.00298122
H        3.38379311       6.31535614       8.54841943       0.00547040       0.00403245      -0.00707141
H        2.11340936       5.54373401       9.48225605       0.01173532      -0.00141594      -0.00327691
H        3.44761819       9.43494079      12.23711467      -0.01161730      -0.00053444       0.00124654
H       -0.02630963      10.30655980       9.90303812      -0.00076732      -0.00274464      -0.01507753
H        1.51602399      10.89387289      11.75966363      -0.00931068      -0.00126503      -0.00916494
C        9.10411377       7.28122475      12.03896395       0.00266808       0.00788858       0.00327732
C        9.92487285       6.17781596      12.26807971       0.00172505       0.00594985       0.00377773
C        9.68386034       8.54999223      12.06272013       0.00668527       0.00665444       0.00337392
C        7.63244858       7.12534805      11.78103432       0.00313351       0.00940794       0.00367694
C       11.27588463       6.33577739      12.54966428       0.00162507       0.00365905       0.00190999
C       11.03709503       8.71166170      12.32464701       0.00327250       0.00383370       0.00190079
C       11.83696944       7.60489685      12.58419312       0.00468777       0.00477799       0.00116237
H        9.51253858       5.17907958      12.20303561      -0.00022752       0.00737314       0.00541967
H        9.07047005       9.42303440      11.87026331       0.00572063       0.00798816       0.00383399
H        7.29033080       7.82164724      11.01435248       0.00526008       0.00527611      -0.00138202
H        7.38157610       6.11599587      11.46006928       0.00076757       0.00830787       0.00994608
H        7.05343943       7.33173268      12.68623278       0.00302237       0.01744736       0.00163764
H       11.89275151       5.46062927      12.71402203       0.00070468       0.00410965       0.00153434
H       11.46499158       9.70507758      12.33435024       0.00659578       0.00487442       0.00273611
H       12.89370386       7.73274375      12.78607375       0.00370693       0.00217225       0.00014360
C        9.88618708      11.17819718       1.17474723       0.00216785       0.00712229       0.00244726
C       10.85374117      10.17231795       1.16183148       0.00458959       0.00709957       0.00940241
C       10.25764279      12.45790988       0.76700017       0.00012745       0.00285202      -0.00622370
C        8.47244741      10.87582441       1.57518994       0.00354362       0.00651620       0.00624433
C       12.14967429      10.43160630       0.74121267       0.00340915       0.00819334       0.00838521
C       11.54766019      12.71869337       0.31768968      -0.00059202       0.00443634      -0.00634091
C       12.50265922      11.70582017       0.30472232       0.00244790       0.00431069       0.00187752
H       10.57539478       9.16269270       1.44478229       0.00565102       0.00955489       0.01604106
H        9.51131390      13.24233950       0.74573704      -0.00177349       0.00226170      -0.01176061
H        7.79679250      11.66184154       1.23963343       0.00242962       0.00473766       0.00393020
H        8.13985148       9.93281274       1.13728858       0.00296384       0.00468013       0.01117381
H        8.37627804      10.77992106       2.66014984       0.00573693       0.01129179       0.00672013
H       12.87555657       9.62968178       0.70695838       0.00530763       0.00828701       0.01389437
H       11.78303655      13.70749252      -0.06399543      -0.00023016       0.00102136      -0.01124411
H       13.49756952      11.88475060      -0.09242673       0.00235923       0.00701947       0.00474448
