197
Lattice="12.745484355496579 0.0 0.0 0.0 12.745484355496579 0.0 0.0 0.0 12.745484355496579" Properties=species:S:1:pos:R:3:forces:R:3 energy=-486733.1875 stress="0.0022562267258763313 -8.703978664925671e-06 -7.958859350765124e-05 -8.703978664925671e-06 0.0010717744007706642 -0.00026594437076710165 -7.958859350765124e-05 -0.00026594437076710165 0.0014790412969887257" pbc="T T T"
Yb      13.76210290      11.82331914      -1.49775819       0.00323275      -0.00276411      -0.01397630
O       13.16924991      11.73718072       5.48819700      -0.01018310       0.01219380       0.00185257
O       11.66858748      10.21298324       5.85718488       0.00658709      -0.00023890       0.01902167
O       11.30382053      12.26553598       6.47005376      -0.00510931      -0.00334585       0.02138054
N       12.04503914      11.40109102       5.93730333      -0.00444582       0.00121112       0.01445095
O        5.69464807      12.39314924      11.97767943      -0.01951671      -0.01488519       0.00557590
O        7.05111584      12.33109782      10.28330306      -0.02687764       0.00450754      -0.00400794
O        6.19077515      10.49139481      11.05022477       0.00072250      -0.00570059       0.00462896
N        6.30552015      11.73407858      11.09543194      -0.02040674      -0.01294323       0.00762757
O        3.05524251      11.41599104       9.93520900       0.01691785       0.01307869      -0.01514176
O        4.01177237      12.88910441       8.65211191       0.03867012       0.01632336      -0.01663888
O        2.21416020      13.41112751       9.76392111       0.01599777      -0.00270259      -0.01231731
N        3.12609644      12.57885299       9.42844101      -0.02749648      -0.01482419       0.03324175
N        4.48568983       6.59456566       5.11458688      -0.01034671      -0.00084995      -0.01261698
H        5.02691868       6.26250988       4.32059535      -0.00985293       0.00213125      -0.01441620
H        4.71475823       5.99953435       5.91071704      -0.00664783       0.00137831      -0.01270864
H        4.85588610       7.51162714       5.34312545      -0.01518221       0.00144991      -0.01426936
N        1.15167206       2.73253057       2.67679946       0.00027748       0.00298686      -0.00537324
H        1.79614605       3.32926466       2.16527647      -0.00117484       0.00116525      -0.00979298
H        0.30084860       2.67420350       2.12491589       0.00008051       0.00109571      -0.00579514
H        1.54820591       1.79943219       2.72554367       0.00088359       0.00329262      -0.00637501
N       11.73626796       1.59290507       8.79464414       0.00022077       0.00210568       0.00932473
H       11.89712736       0.96359183       8.01133049      -0.00612652      -0.00344646       0.01168886
H       12.40647547       2.35150418       8.66824757       0.00563084      -0.00349436       0.00380857
H       10.80116607       1.97337729       8.63643937       0.00323785       0.00743479       0.00983466
N        8.59579616      10.81825507       0.85467725       0.00021649      -0.00444971      -0.00000003
H        7.58473282      10.72771498       0.82769441      -0.00043508       0.00735293      -0.02036808
H        8.77447137      11.79534272       0.62742080       0.01351697      -0.00472742       0.01052871
H        8.87727946      10.67648607       1.82519458      -0.02007427      -0.01254459       0.00443066
N        5.13224307       4.37492527       7.43300893      -0.00017767       0.00362766       0.00172497
H        4.14968503       4.19949692       7.61983105       0.00032133       0.00214909       0.00680941
H        5.63216495       4.12262639       8.27902621       0.00320676       0.01009896       0.00135391
H        5.39676270       3.68072604       6.72676781       0.00010417       0.00201356       0.00423235
N        9.23426321      10.08200468      10.54279959       0.00063148       0.00990303       0.00719336
H        9.09713706      11.02695500      10.19006665       0.01080457       0.01198136       0.01163751
H        9.37068071      10.20716225      11.54762366      -0.00533067       0.00486315       0.01032363
H        8.28685658       9.70812230      10.49577005      -0.00065865       0.01585387       0.00094576
N        9.05240706       9.19694413       7.35749087       0.00136532      -0.00161694      -0.00462785
H        9.28562385       8.21032387       7.40518028       0.00982430       0.00070906       0.01728713
H        9.12756583       9.52659171       8.31544117      -0.02074439       0.01333392      -0.00817800
H        9.83086957       9.63420024       6.86664933       0.00891167      -0.00217918       0.00580661
N       11.53013450       6.92409250       0.54439706       0.00402832      -0.00591877      -0.00397131
H       11.09310429       7.61739706      -0.05183032       0.01444981      -0.00010196      -0.00482036
H       10.79051218       6.28687381       0.81762179      -0.00261278      -0.00204456      -0.01371054
H       12.17170234       6.37955940      -0.02999808       0.00436984      -0.00862659      -0.00225670
N       10.06682428       3.88716938      10.99123372      -0.01192247      -0.00120418       0.01403910
H        9.98235937       3.21548773      10.23153094      -0.01326717       0.00170819       0.01165369
H       10.93994034       4.38121773      10.83783469      -0.00419366      -0.01115441       0.02262817
H        9.31815290       4.55667630      10.82025994      -0.00251486       0.00754226       0.00950927
N       10.26004838       7.06738304       9.76293756      -0.01192400       0.00125318      -0.00348577
H       10.85958413       6.74975593      10.51545763      -0.01206162      -0.01091901      -0.00855586
H        9.38217585       6.56181281       9.86241534      -0.01798706       0.01118729      -0.00098956
H       10.07108776       8.05367777       9.93421488       0.00069674       0.00246544       0.00346839
N       11.49624902       0.23678865       3.01042730      -0.01177582       0.00765309       0.01020136
H       12.29184560      -0.12445519       3.52885672      -0.02067762      -0.00438280       0.01994714
H       11.16686902       1.04070668       3.53472609      -0.00209846       0.01182310       0.00586704
H       11.85920408       0.60440040       2.13886481       0.00453735      -0.00248726       0.01220096
N       10.87124472       2.86140902       1.07906978       0.00513941       0.00082987       0.00569549
H       10.74219413       3.47153347       1.87895670       0.00822753       0.00514226       0.00265794
H       10.25022883       2.06959384       1.22107718       0.00962943      -0.00020607       0.01492513
H       10.49470343       3.33528243       0.25101643      -0.00387041      -0.00423917       0.00581097
N        0.88494529       8.04490525      10.55988976       0.00745937       0.01509790       0.00096908
H        0.37482417       7.22027601      10.26243381       0.01954975      -0.00354945       0.02858846
H        1.78289160       7.73006058      10.91971864       0.02156300       0.04078580      -0.01067961
H        1.10398933       8.54420051       9.70004345      -0.02090685       0.00085570      -0.01498775
N        4.17522616       7.35966503       8.44896818      -0.00269119      -0.00731184       0.00449224
H        4.63208252       8.20642431       8.10604512      -0.01454256      -0.00153145       0.00527646
H        3.28029326       7.28407926       7.97006667      -0.00570416      -0.01546703       0.01086335
H        4.72283285       6.56939301       8.11963016       0.00318711       0.00018200      -0.00496638
N       -0.90066108       0.67932795      11.67407563       0.00287926      -0.00373647      -0.00346972
H       -0.81271020       1.46856661      12.31361833       0.01483707       0.00011063      -0.01160118
H       -1.81741709       0.29465027      11.89970003       0.00247860       0.00317509       0.00852045
H       -1.00423681       1.07665021      10.71904318      -0.00455167      -0.00755037      -0.00529069
N        2.96267538       0.75657725       5.70657872       0.00244135      -0.00080467      -0.00168753
H        2.00006824       1.07790560       5.69201877      -0.00062995      -0.00204432      -0.01016073
H        3.49708158       1.44957323       6.21786538      -0.00752179      -0.00346653       0.00939948
H        2.95412657      -0.07334860       6.28769022      -0.00406018      -0.00584972      -0.01125437
N        9.28233441      10.76148148       3.98535257       0.00915105      -0.00217247      -0.00502323
H        9.81477068      10.42139564       4.78063382      -0.00520296      -0.00348967       0.00305493
H        8.36818231      11.02036311       4.34372324       0.01039311       0.01587735      -0.01581792
H        9.76242492      11.61236875       3.69845361       0.02542598      -0.00970321      -0.00702310
N        6.00855580       2.43309236      10.10861807      -0.00509974       0.00433853       0.00590339
H        6.46947438       1.52269297      10.16099479      -0.01407019       0.00098149       0.00865466
H        5.24384062       2.29053587       9.45540702      -0.00317828       0.01248301       0.00539293
H        5.57442008       2.54494896      11.01849881      -0.00298529       0.01567901       0.00769442
N        2.44080899       7.83833351       2.83430575       0.00556977       0.00490856       0.00597149
H        2.66810972       8.82574148       2.87175896       0.00295562       0.00511530       0.01671368
H        2.84666549       7.41113040       3.66604738       0.00889891      -0.00336586       0.00044337
H        1.43269573       7.76265238       2.90803347       0.00582404       0.00186168       0.00938951
N        0.44703071       4.44693438      12.01900385       0.00282247      -0.00360936       0.00050937
H        0.74089824       3.96979512      11.17391521      -0.00012577      -0.00084254      -0.00248657
H       -0.18863680       3.82287844      12.50724474       0.01193439      -0.01146031       0.00511041
H        1.26723595       4.54585604      12.61601907       0.00582575       0.00359482      -0.00626322
N        8.39769366       1.27578950      12.70083817       0.00354764      -0.00953895      -0.00991146
H        8.70526872       2.06752824      12.14469885       0.00155137       0.00165047       0.00453928
H        7.96954114       1.64004096      13.54829846      -0.00837431      -0.02455972      -0.00736833
H        7.64102269       0.83117996      12.18956611       0.01472976      -0.00891950      -0.02353247
N       10.85295893       7.96199561       3.54779234      -0.00466578       0.00200932       0.00829399
H       10.42860878       8.86088321       3.33336505      -0.01388070      -0.00335832      -0.00312665
H       11.30813861       7.63179504       2.70048652       0.00050389      -0.00158545       0.01325323
H       11.57708326       8.16029615       4.22968763      -0.00879970       0.01962291       0.00697130
N        1.50878914       6.65312703       6.72256706      -0.00501828      -0.00210580      -0.00512574
H        0.49201403       6.54732324       6.64161823      -0.00668550       0.00928776      -0.00312414
H        1.88311510       5.71583265       6.81616131      -0.01633153      -0.00784181      -0.01567450
H        1.86644628       6.97962821       5.83140987      -0.00354117       0.00214028      -0.00320800
N        3.03062124       5.25497210       0.97514682       0.00738114      -0.00438356      -0.00804475
H        2.67797010       6.14442378       1.32967199       0.01120335      -0.00645459       0.00837470
H        3.36212422       5.44743408       0.03601538       0.01890560       0.01673458       0.00078098
H        3.86815863       5.08220817       1.52368032       0.00106182      -0.02779290      -0.00892612
N       12.27572605      10.94150839       9.42830549      -0.00549889      -0.01467823       0.00021130
H       11.49662151      10.33874898       9.69131662       0.00001155      -0.01978743       0.00363825
H       12.87061103      10.40091008       8.77818891       0.00141005      -0.01287259       0.00442582
H       11.85903909      11.68880789       8.87638711      -0.01225851      -0.02520046      -0.00810283
N        2.33691996      11.98378458       3.03994130      -0.00749297      -0.00063083      -0.00296000
H        1.64420625      11.40948293       3.50994970      -0.00681344       0.00433779       0.00214118
H        2.76734468      12.52934271       3.78878072       0.00311648      -0.00372691      -0.00898276
H        3.04905711      11.36298279       2.65464224      -0.01353339      -0.00619683      -0.01022709
N        2.76560237       3.91048216       5.22779355       0.00443383      -0.00710089       0.00028646
H        2.98105144       4.87897050       5.00986287       0.00134775      -0.00546558       0.00081524
H        2.10820041       3.58249886       4.52301407       0.00811873      -0.00876691      -0.00255013
H        3.62968482       3.39457772       5.09468973       0.00676844      -0.00284292       0.00395434
N        8.74447157       2.70683279       8.31770226      -0.00264211       0.00621005      -0.00111102
H        7.94217228       2.81353907       8.93498473      -0.00267208       0.00699159      -0.00233469
H        8.46749515       2.02323981       7.61328742      -0.00040895       0.00383118       0.00051709
H        8.87629879       3.59888396       7.85587577      -0.00298969       0.00526148      -0.00431132
N        7.43374050       8.19587473       4.73644158       0.01036973       0.00266337      -0.00732787
H        7.61137511       8.52986583       5.68341309       0.03215256       0.00895691      -0.01300051
H        8.31864830       8.30442576       4.24870242       0.00619370      -0.01917132      -0.02002144
H        7.26312743       7.19941512       4.80927971      -0.00479453       0.00600801       0.00662484
N        1.63030441       3.38159499       8.19012153      -0.00839604      -0.00318158       0.00310145
H        1.94844991       3.52662919       7.22856609      -0.00103757      -0.01668812       0.00586590
H        2.06019401       2.52422117       8.52561733      -0.00302279       0.00541408       0.02424112
H        2.00628103       4.14237972       8.74478021      -0.02324056       0.01193930      -0.00625630
N        7.84458701      12.73166683       6.95487445       0.00538971       0.00583276      -0.00645256
H        7.31475846      12.13153460       6.32486099       0.00997920       0.00874975      -0.01324736
H        7.60419588      12.44083428       7.89873965       0.00059633       0.00145541      -0.01025493
H        8.82082938      12.48528232       6.81301630       0.00763963       0.00663647      -0.00213382
N        1.62867676       9.61120990       7.69961886      -0.00505632       0.00283348      -0.00088115
H        2.58193926       9.81463787       7.98324041      -0.00683922       0.00942952       0.00168700
H        1.44264444      10.13834460       6.85094311      -0.00934007       0.00477443       0.00192070
H        1.60175644       8.62291986       7.43938006       0.00283898       0.00395519      -0.00413208
N        5.75502843      10.06607243       7.91768883      -0.01046617       0.00758667       0.00299629
H        5.94069779       9.94811067       8.91121618      -0.01309684       0.01332930       0.00583783
H        5.40290799      11.01532890       7.84745312       0.00931127       0.01079766      -0.00724328
H        6.66529939      10.05226683       7.46488130      -0.00885668      -0.01440571       0.00412431
N       11.17783844       6.26609613       6.69196147      -0.00163904       0.00146038      -0.00384708
H       10.89671704       6.60596488       7.61007654      -0.01174253      -0.01383109      -0.00093308
H       10.88317601       5.30085743       6.61228646       0.00812214      -0.00004685      -0.02019278
H       10.68718268       6.78419136       5.97199687      -0.00127086       0.00702637      -0.00039762
N        2.54968287       0.18814674       0.18251777      -0.00255722       0.00458384      -0.00586939
H        2.52491829       1.20198560       0.12097136      -0.00930478       0.00795701       0.00484983
H        3.51419528      -0.07407559      -0.02438412      -0.00231752       0.01495827      -0.01359743
H        2.39382724      -0.04752945       1.17510108       0.00262467      -0.00381100      -0.00994387
N        5.60803779       7.09122168       2.20264439       0.00563717       0.00169766       0.00705588
H        6.05420645       7.25463655       1.30408918       0.01265172      -0.00820638       0.00826279
H        6.04057963       7.72526758       2.86959067       0.00437047       0.00639763       0.00357197
H        4.62952386       7.34822312       2.12070623       0.00709702       0.00416142      -0.00158036
N        4.41202032      10.28562604       1.27097640      -0.00914624      -0.00417168       0.00174005
H        4.97657187      10.96317651       0.75959141      -0.01981141      -0.00692642      -0.01473776
H        4.11646545       9.61095805       0.56907063      -0.02099298      -0.01079641       0.01210193
H        5.04520414       9.77395153       1.87655376       0.00378794      -0.00047423      -0.00961484
N        7.85585829       1.03699718       3.10424280       0.01892106       0.01357271      -0.00938915
H        7.55408734       0.51291620       3.91895862      -0.01049743       0.00711520      -0.02453384
H        8.31885245       1.86670402       3.47078353       0.00837342       0.00997727       0.01309601
H        8.56147085       0.47086648       2.64738463       0.03548620       0.01556556       0.01287484
N        6.00293170      11.01753652       4.69498888       0.00514477       0.00893196      -0.00304931
H        5.20225410      10.93028488       5.31016256       0.01066228       0.01478815       0.00411727
H        6.30804005      10.06620193       4.48441794       0.00792926       0.00639338       0.00850158
H        5.66812437      11.44226091       3.83820559      -0.00638621      -0.00817587      -0.00753288
N        5.93719392       2.24810033       5.32753212       0.00141402       0.00181390       0.00220326
H        5.39926971       1.67334579       4.68712845      -0.01193118      -0.00673890       0.02187751
H        6.44966679       1.59987073       5.92557836       0.01753381       0.01079854      -0.00193875
H        6.64405889       2.70645415       4.76091685      -0.01263699      -0.00143953      -0.01957776
N        7.30755742       5.53723933      10.35064269      -0.00578949       0.00160437      -0.00810315
H        7.00987126       5.98495468      11.21216208      -0.00459753      -0.00203613      -0.00512448
H        6.92491310       4.59228990      10.34349897       0.00147561      -0.00054348      -0.00694597
H        6.83689359       6.03831410       9.60476788      -0.01367303      -0.00005635      -0.00442770
N        0.68209614       9.92043003       0.12845978      -0.00613230       0.00319910      -0.00316358
H        0.56607511       9.11488848      -0.50775339      -0.00072674       0.00392002      -0.00173610
H        1.51960607       9.72052122       0.66990131       0.00287834       0.00293496       0.00473040
H       -0.08741989       9.89177582       0.79113075       0.00110874       0.00167518      -0.00514996
N        7.97553674       7.67316906      12.79032048       0.01233691      -0.00741797       0.00811189
H        8.15214431       8.66688477      12.92222986       0.00807945      -0.00591394       0.00022946
H        8.54709723       7.38448587      12.00305045       0.00401857      -0.00797366       0.00107059
H        8.35285119       7.20749787      13.60798634       0.02859210       0.00065657       0.00526777
N        4.07881420       8.28489467      11.40085576      -0.00562084      -0.01749694       0.00450119
H        4.61127990       7.61679870      11.94896397       0.01727398       0.00747064       0.00867401
H        4.05305017       7.89929723      10.44768535       0.00909915      -0.02449306       0.00515988
H        4.68733322       9.09877853      11.32811893      -0.03068899       0.00142761      -0.00239611
N       11.86594145       2.68406155       5.48055121       0.00230521      -0.00480624      -0.00303116
H       11.82949757       1.69783181       5.72715114       0.00151392      -0.00335552       0.00346350
H       12.29026391       3.15289740       6.27515230       0.00686512      -0.00042582      -0.00821709
H       12.52581383       2.78043391       4.71169153      -0.00120458      -0.01089983      -0.00691527
N        8.92018895       3.87985737       4.71394377       0.01434980      -0.00945887      -0.00392120
H        9.11704844       4.77982858       4.29041194       0.01451028      -0.00660499       0.00149671
H        9.81439168       3.50377078       5.03755778       0.01373031      -0.00899705      -0.00111390
H        8.35981442       4.07610819       5.53579746       0.00929260      -0.01511332      -0.00616275
