193
Lattice="13.446644927568125 0.0 0.0 0.0 13.446644927568125 0.0 0.0 0.0 13.446644927568125" Properties=species:S:1:pos:R:3:forces:R:3 energy=-490907.15625 stress="-0.0002860610547941178 0.000314891614834778 0.0005073109059594572 0.000314891614834778 -0.0008131499052979052 0.00027065315225627273 0.0005073109059594572 0.00027065315225627273 -0.003158207982778549" pbc="T T T"
Yb      12.20889665      14.33196250       0.86018519       0.02803832      -0.00268263       0.01695132
O        1.72781949       9.10020554       9.38312539      -0.00332940       0.00608706       0.00477624
O        1.13929372      10.95029258       8.22850758       0.00075221      -0.00894022      -0.02483809
C        3.35308959      10.76541912       9.01055693      -0.00396323       0.00428456      -0.00455271
C        3.64266957      12.10251929       8.75121899      -0.00651143       0.00336626      -0.00915971
C        4.39343600       9.90669208       9.34613181      -0.00304369       0.00850230       0.00376958
C        4.95464266      12.56237932       8.79426352      -0.00836128       0.00749916      -0.00529259
C        5.70625245      10.35548485       9.36531842      -0.00460187       0.01202273       0.00655429
C        5.99599658      11.68480011       9.08222066      -0.00667450       0.01149193       0.00236510
C        1.92996311      10.22273324       8.86518348      -0.00038648      -0.00093263      -0.00772715
H        2.81736139      12.75961891       8.50715389      -0.00721498       0.00008421      -0.01626357
H        4.14022756       8.87372979       9.54449490      -0.00079602       0.00875850       0.00785626
H        5.17322393      13.60455372       8.58619609      -0.01050796       0.00712694      -0.00867348
H        6.51882301       9.66953080       9.56507534      -0.00347888       0.01471096       0.01265733
H        7.02724585      12.01984484       9.07219530      -0.00769372       0.01396351       0.00373173
O        4.13131471      10.81871434       2.50936712      -0.01145160       0.03136158       0.01249254
O        5.77435882       9.31527454       2.82269863       0.01096606      -0.00655782      -0.03584850
C        3.56444057       8.70811603       3.41823060      -0.00633758       0.00634170      -0.00946504
C        3.96568650       7.47266427       3.92018845      -0.00645810       0.00704777      -0.01610108
C        2.20392476       9.00297983       3.38064458      -0.00704351       0.00634453      -0.00104169
C        3.02403728       6.54272443       4.34058101      -0.00069467       0.00516155      -0.00934497
C        1.25576648       8.07545190       3.79119628      -0.00431523       0.00552391       0.00361264
C        1.66765757       6.83437253       4.26578210      -0.00292405       0.00613929       0.00011015
C        4.58828389       9.71012438       2.87453964      -0.03126657       0.00200641      -0.00331855
H        5.02619774       7.25759243       3.95424137      -0.00367361       0.00542311      -0.02226499
H        1.90604933       9.97865715       3.02372854      -0.01037887       0.00800538       0.00218776
H        3.34747726       5.58789037       4.73970749       0.00111936       0.00481475      -0.01236433
H        0.20252977       8.31668746       3.73304812      -0.00614734       0.00548010       0.00984593
H        0.93179281       6.10788423       4.59308331       0.00018947       0.00598884       0.00501864
O        8.86153448       9.34693043       7.80829548      -0.01567912      -0.01154208      -0.00818181
O        9.86022803      11.26218291       8.48346025      -0.03399658       0.01499987      -0.00323904
C        9.22296606       9.68682510      10.10147458      -0.00833029       0.00271928      -0.00098991
C        9.49539289      10.58605939      11.12669489      -0.00939263       0.00246836       0.00058335
C        8.71618469       8.42781283      10.40354174      -0.00067255       0.00145766       0.00139745
C        9.19988585      10.25063488      12.43728057      -0.00240977      -0.00137953      -0.00193371
C        8.42837511       8.08502205      11.71715889       0.00638580       0.00107551       0.00321618
C        8.65237530       9.00739390      12.73197724       0.00694224       0.00135267       0.00164877
C        9.34460393      10.13538856       8.64900890      -0.01640479       0.00640529       0.00984144
H        9.89728976      11.55242274      10.84888743      -0.01516762       0.00403810      -0.00228791
H        8.52055070       7.76358710       9.57257266      -0.00350932       0.00017487       0.00125565
H        9.35274352      10.97048385      13.23330920      -0.00330888       0.00150912      -0.00044219
H        7.99311969       7.12022286      11.95468625       0.01047526      -0.00139400       0.00391885
H        8.36493494       8.77106771      13.74641148       0.01256847      -0.00398288       0.00576851
O       11.72732128       8.55288380       2.11315144       0.00403774      -0.01199851      -0.00360310
C       11.58925248       7.50760188       1.16674438       0.01034214      -0.00489581      -0.00162590
C       11.19269577       9.76228861       1.60969749       0.00848944      -0.01362538       0.00143307
C       11.97269144       6.20182383       1.81844786       0.01331757      -0.00204939       0.00083408
C       11.40660275      10.86930364       2.60693857       0.01241291      -0.01257670       0.00034010
H       10.55240885       7.47263056       0.80723425       0.00846720      -0.01186285      -0.00027375
H       12.22038706       7.71480189       0.29123073       0.01785988      -0.00752777       0.00257033
H       11.65409743       9.99458937       0.63729169       0.00557336      -0.01042771       0.00110650
H       10.12208706       9.62504396       1.42457146       0.00735247      -0.00784463       0.00375475
H       11.80767343       5.37473623       1.12437487       0.02142696      -0.00487148       0.00449809
H       13.02044369       6.21083561       2.11842118       0.01937097      -0.00662309       0.00386731
H       11.35835243       6.03403412       2.70437530       0.00399001      -0.01425632      -0.00063227
H       11.00836655      11.80380330       2.19204274       0.00915794      -0.01026048       0.00282590
H       10.87586512      10.66975908       3.53891197       0.01339775      -0.00905818       0.00332341
H       12.46258541      11.02092702       2.83074840       0.01440299      -0.00836378      -0.00480807
O       10.78424320       1.77422708       2.62722221       0.01058406      -0.02681383       0.01344732
C       11.70277851       1.65666740       3.74647684       0.00169954      -0.00913724       0.02243894
C        9.53839026       1.01935034       2.74354018       0.00627416      -0.01944366       0.00961146
C       12.50764341       2.92585867       3.88516035      -0.00118016      -0.00537941      -0.00076627
C        8.36614603       1.81049714       2.22073351       0.01780510      -0.00893122       0.00067273
H       11.12840012       1.44079584       4.64549858      -0.00815919       0.01682267       0.02167597
H       12.36308319       0.78721804       3.57681090      -0.00001168      -0.01565699       0.04601964
H        9.65651073       0.08660228       2.17739304       0.00334335      -0.02451921       0.01585910
H        9.40258515       0.74534432       3.78722160      -0.00066210      -0.00897264       0.01083463
H       13.34155249       2.75057943       4.56504012      -0.01567416       0.01776162       0.02168944
H       12.92317397       3.24376371       2.92584005       0.01638113      -0.03715073      -0.00329833
H       11.89901020       3.74234354       4.26978613      -0.00582503       0.00914820      -0.03945924
H        7.53700414       1.12432185       2.03860567       0.00749338       0.00177231       0.01128394
H        8.03114639       2.55565405       2.93890571       0.02675578       0.00618885      -0.01085445
H        8.60774568       2.29829011       1.27734674       0.02805147      -0.02633553      -0.00543840
O        7.15170566       3.38518028       5.09579888       0.00373244      -0.00717863      -0.00442959
C        5.84898264       3.44367776       5.64755727       0.00352842      -0.00934553      -0.00398912
C        7.80911377       4.64427751       5.19803661       0.00272197      -0.00743187       0.00065291
C        5.17854434       2.10220139       5.49102428       0.00498648      -0.00986093      -0.00487464
C        9.16666930       4.53175051       4.55101560       0.00515282      -0.00437881       0.00524622
H        5.91281537       3.72683342       6.70894700       0.00377962      -0.01079503      -0.00370198
H        5.27485938       4.23355222       5.14126787       0.00255531      -0.00978774      -0.00277650
H        7.21025024       5.41274054       4.70066746       0.00408483      -0.00628728       0.00111178
H        7.91247142       4.92110771       6.25351785      -0.00070485      -0.01041998       0.00156665
H        4.17403435       2.13254552       5.91510539       0.00489527      -0.01007925      -0.00520567
H        5.09723959       1.83213485       4.43833306       0.00552706      -0.00968239      -0.00494516
H        5.74115829       1.32266445       6.00423786       0.00510395      -0.00976035      -0.00486438
H        9.76295206       5.41675979       4.77428672       0.00383088      -0.00535971       0.01218849
H        9.68801933       3.65526183       4.93915105       0.00383102      -0.00601074       0.00314069
H        9.08258431       4.43881138       3.46792456       0.00971929       0.00151779       0.00440601
O       10.02857154       5.11456750       8.16671337      -0.00177695      -0.00516105      -0.00296852
C        9.04556898       4.19707761       8.59979572      -0.00142056      -0.00403884       0.00005370
C       11.22270228       4.47811691       7.75960844       0.00089133      -0.00538251       0.00541312
C        7.84572737       4.97631133       9.08243575      -0.00285995      -0.00330758      -0.00505066
C       12.20598254       5.52766076       7.30678667       0.00095832      -0.00629529       0.00412760
H        8.77057100       3.52436513       7.77226710       0.00041233      -0.00808138       0.00281662
H        9.45317791       3.56415670       9.40388966      -0.00173949       0.00019464       0.00329974
H       11.63354142       3.88708531       8.59240421      -0.00181274      -0.00002390       0.01028320
H       11.00087367       3.77126184       6.94357667       0.00577912      -0.01011968       0.00821146
H        7.01997580       4.31074998       9.33609805      -0.00275767      -0.00325099      -0.00494270
H        8.09678952       5.55768781       9.96894247      -0.00542575      -0.00078273      -0.00619961
H        7.50936171       5.67288708       8.31454539      -0.00165252      -0.00581601      -0.00780371
H       13.12432915       5.05769788       6.95308112       0.00341643      -0.00663834       0.01162550
H       11.78443170       6.12617526       6.49954053       0.00400773      -0.01171002      -0.00132082
H       12.46307121       6.20608329       8.11903983      -0.00453386      -0.00123927       0.00151610
O        7.12417577       6.69589376       2.81005175       0.00944442      -0.00199534      -0.00006109
C        8.27053794       7.53184123       2.84678849       0.00300676       0.00511110       0.00268498
C        6.72565332       6.43261745       1.48201320       0.01227033      -0.00242800      -0.00172165
C        8.50720492       8.09646652       4.22187788      -0.00310982       0.00163019       0.00492805
C        5.36816706       5.77345219       1.45427941       0.02130431      -0.02004394      -0.00238430
H        9.13846396       6.95916984       2.48430268       0.00745532       0.01242936       0.00220105
H        8.10091438       8.36980755       2.16226694      -0.00207916       0.00611043       0.00489929
H        6.68464011       7.37618358       0.92275966       0.00004891      -0.00022727       0.00299355
H        7.47902638       5.78935138       0.99581538       0.02086142       0.00976580      -0.00374816
H        9.46297963       8.62047298       4.24737882      -0.00881217       0.01155601       0.00894185
H        7.72463677       8.80942762       4.45778325      -0.01063809      -0.00767803       0.00752506
H        8.52833503       7.33422958       4.99916207       0.00355354      -0.00195104       0.00105061
H        5.18713754       5.37267603       0.45756984       0.02435135      -0.01674394      -0.00412253
H        5.31653418       4.95621274       2.17645225       0.03439269      -0.02500955      -0.00708309
H        4.58703827       6.49086553       1.69698616       0.01262708      -0.03188185       0.00381501
O        4.68749346      10.87333962      12.59516937      -0.01205361      -0.00233322       0.01403984
C        6.03244084      11.28377284      12.70150525      -0.01395538       0.00283509       0.01910148
C        4.60034456       9.46575176      12.73135378      -0.00895745      -0.00284797       0.01261047
C        6.12044668      12.77820337      12.51762448      -0.02058837       0.00304323       0.01873721
C        3.15742620       9.04278465      12.64740118      -0.00766772      -0.00585762       0.00733757
H        6.42880103      10.98315846      13.68255268      -0.01673824       0.00482419       0.02118868
H        6.62655566      10.78028569      11.92803142      -0.00892910       0.00511432       0.02192950
H        5.19246582       8.99213506      11.93180278      -0.00531378      -0.00062594       0.01442266
H        5.04341964       9.17256606      13.69388229      -0.01058993      -0.00248924       0.01356113
H        7.17033178      13.08025351      12.48166647      -0.02244559       0.00963024       0.02749804
H        5.65126129      13.06510819      11.57649096      -0.01446095      -0.00055847       0.01461655
H        5.62998452      13.30392204      13.33722908      -0.03090410       0.00068670       0.01407994
H        3.08971852       7.95483056      12.68111656      -0.00567236      -0.00573851       0.01467735
H        2.61089608       9.43807530      13.50142594      -0.01422024      -0.00113827       0.00097993
H        2.69206991       9.37364063      11.71662009      -0.00263581      -0.01298417       0.00211224
O        1.08574608      12.36419875       3.07267458      -0.00780365       0.02974195      -0.01682143
C        1.97919888      12.74324542       4.13645385      -0.00236249       0.02239772      -0.01754212
C        1.68533625      12.52097889       1.79613779      -0.00597377       0.01866244      -0.01578420
C        1.39070765      12.34542216       5.46284861       0.00433311       0.01700391      -0.01612598
C        0.98627473      11.63877399       0.79294314      -0.01085269       0.02208093      -0.01593101
H        2.93818743      12.24330477       3.96453518      -0.00451607       0.02029943      -0.02381071
H        2.14449831      13.83158482       4.08606252      -0.00170817       0.02234089      -0.01397369
H        1.60873694      13.58769555       1.48858910       0.00481816       0.01947176      -0.01852480
H        2.74300295      12.24916815       1.84309716      -0.00711834       0.01470733      -0.01469519
H        2.03819266      12.66710088       6.27705477       0.01076286       0.01253152      -0.01962811
H        0.40425768      12.78231710       5.62884685       0.00661725       0.01809654      -0.00613939
H        1.29901963      11.26609372       5.56488802       0.00419285       0.01696393      -0.02012072
H        1.42681820      11.76320720      -0.19575724       0.00269613       0.00715705      -0.01153111
H        1.07658030      10.59070041       1.07841075      -0.03132465       0.02399792      -0.00476648
H       -0.09283478      11.85105513       0.72318229      -0.00786642       0.03742649      -0.03104233
O        5.51055893       4.03244597      11.88373356       0.00046276      -0.00538597      -0.00469752
C        4.11787582       3.75730315      11.89674448       0.00060597      -0.00501153      -0.00350560
C        6.26450492       2.90184325      12.28006745       0.00147986      -0.00410013      -0.00482418
C        3.35959341       5.00535959      11.52501531       0.00296944      -0.00264770       0.00039833
C        7.73064781       3.25996874      12.28204398       0.00100154      -0.00459075      -0.00265650
H        3.90171939       2.93897527      11.19432626      -0.00104830      -0.00587747      -0.00337440
H        3.82650865       3.40997929      12.89904951       0.00332578      -0.00595817      -0.00272727
H        5.94243621       2.57741378      13.28115487      -0.00024350      -0.00589790      -0.00630563
H        6.06781543       2.06816428      11.59248584       0.00301634      -0.00535625      -0.00312102
H        2.28870180       4.80265215      11.49932008       0.00302818      -0.00108893       0.00130263
H        3.53851981       5.79765694      12.24999600       0.00690090      -0.00377764       0.00111409
H        3.65956481       5.36860151      10.54412080       0.00197108      -0.00278585       0.00021029
H        8.33265569       2.38396805      12.52823988       0.00086097      -0.00494093      -0.00253146
H        8.03940086       3.61586974      11.30294094       0.00277837      -0.00417127      -0.00205404
H        7.93686057       4.04470831      13.01091780      -0.00076404      -0.00578290      -0.00138627
O        4.31215008       7.55950508       7.12746661      -0.00178927       0.00618482      -0.00214830
C        5.70479816       7.81483620       7.04248995      -0.00334072       0.00874227      -0.00395849
C        4.01501070       6.35552365       7.78666503       0.00019139       0.00873008       0.00319847
C        5.93645766       9.13335193       6.35057240      -0.00727642       0.00933832      -0.00506124
C        2.52027327       6.25904584       7.98305825       0.00043154       0.00845929       0.00431861
H        6.13247295       7.82889127       8.05687375      -0.00127690       0.01128677      -0.00462377
H        6.20049693       6.99283532       6.49806407      -0.00164947       0.00996757      -0.00399661
H        4.39292075       5.50186367       7.19773103       0.00080009       0.00632042       0.00713986
H        4.53990265       6.32384093       8.75683013       0.00063533       0.01397336       0.00315148
H        6.96545218       9.44712317       6.53337535      -0.00689614       0.00918134      -0.01020433
H        5.76137340       9.06369931       5.27882500      -0.01360754       0.00848494      -0.00361845
H        5.26298067       9.88270112       6.76272554      -0.00563669       0.00859135      -0.00136487
H        2.26330077       5.30644115       8.45113887       0.00133575       0.01050644       0.00888439
H        2.15681218       7.08747286       8.59645861       0.00038688       0.01104596       0.00074089
H        2.02136419       6.31551950       7.01589443       0.00014108       0.00357173       0.00443244
O       10.54162772      10.74806928       5.62844016       0.00310135      -0.00253594       0.00043391
C       10.24256733      12.11513609       5.73214257       0.00060099      -0.00316477      -0.00144783
C       11.86508446      10.42761154       6.03909899       0.00053793      -0.00091952       0.01162097
C        8.74091275      12.28938080       5.72855093       0.00047481      -0.00569233      -0.01694199
C       11.94813160       8.93954871       6.25947246       0.00098932      -0.00175399       0.00460601
H       10.65128578      12.50410426       6.67140664      -0.01068969      -0.00415041       0.00368720
H       10.71281822      12.65881998       4.88986347       0.00941736      -0.00204706       0.00475830
H       12.57522841      10.74491445       5.26321461       0.00684825       0.00553603       0.02061152
H       12.11029523      10.95765096       6.96382408      -0.00995123      -0.00458238       0.01631188
H        8.47796877      13.34726556       5.81628841      -0.00243460      -0.00695445      -0.01341239
H        8.28436607      11.88223239       4.82408975       0.01093977      -0.00121240      -0.02433839
H        8.34044683      11.75904531       6.59057963      -0.00749392      -0.01087105      -0.02398247
H       12.94991053       8.68614584       6.60905850      -0.00325572      -0.00024120       0.01749639
H       11.21129450       8.64193336       7.00497867      -0.00894430      -0.00728888      -0.00753827
H       11.74036945       8.39912304       5.33207721       0.01560877       0.00285806      -0.00111316
