197
Lattice="17.888340276639425 0.0 0.0 0.0 17.888340276639425 0.0 0.0 0.0 17.888340276639425" Properties=species:S:1:pos:R:3:forces:R:3 energy=-1631667.25 stress="-0.0005771098076365888 -0.00014004186232341453 1.512635071776458e-05 -0.00014004186232341453 -0.0004302324668969959 6.014318569214083e-05 1.512635071776458e-05 6.014318569214083e-05 -0.00045511004282161593" pbc="T T T"
N        8.17330829      16.45397648       3.47220791       0.00202116      -0.00312907      -0.00369257
N        9.51608057      16.30633148       5.16184898       0.00319159      -0.00210369      -0.00404540
C        7.61604665      16.86681714       2.17814215      -0.00427625       0.00055936       0.00002736
C        9.22056270      17.01926699       4.07299047       0.00095409      -0.00198197      -0.00376016
C        7.79330467      15.34889075       4.19333557       0.00739059      -0.00255466      -0.00243846
C        8.63523234      15.25495468       5.25759783       0.00403291      -0.00125456      -0.00836372
C        8.56627422      16.51830452       1.04962470      -0.00682315       0.01314627      -0.00563231
C       10.59871515      16.59428637       6.08847469      -0.00008789       0.00084928      -0.00110659
H        6.65713788      16.35911729       2.07854823      -0.00055426      -0.00655179       0.00103399
H        7.42500884      17.93717476       2.22422993      -0.01231839      -0.00125149       0.00643852
H        9.74360488      17.90095870       3.74360304      -0.00043968       0.00109435      -0.00354878
H        6.95864162      14.74322061       3.89073877       0.00444881      -0.00509336      -0.00523225
H        8.68472690      14.54489593       6.06263966       0.00713164      -0.00376425      -0.00441232
H        9.52201065      17.02747149       1.17154796      -0.01143047       0.02289517      -0.00993428
H        8.13508402      16.82837534       0.09951062      -0.01539788       0.01042298      -0.00247191
H        8.74921998      15.44598151       1.01139160       0.00346047       0.01509309      -0.00900319
H       11.39146499      17.11717264       5.56201633      -0.00589593       0.01578610       0.00601174
H       10.23466000      17.20064772       6.91709392      -0.00680737      -0.01111868       0.00434488
H       10.98828060      15.65401700       6.46881569       0.00909090       0.00056729      -0.01030136
N       13.95146546      15.87493396      11.57081112      -0.00124711      -0.00165029       0.00740924
N       15.73895663      15.37803082      10.45719345       0.01006788      -0.00434919      -0.00430050
C       12.94583715      16.66898134      12.28644033       0.00606757       0.00190309       0.00174713
C       15.07372286      16.36827113      11.04837002       0.00828230       0.01529908       0.00401724
C       13.89398871      14.52744325      11.29654578       0.02107520       0.01671290      -0.00218549
C       15.02199246      14.21502133      10.60217582       0.00011456       0.02292186       0.00760804
C       11.81813278      17.11526191      11.37880579       0.00454921      -0.00368258       0.00013572
C       17.03659202      15.50100351       9.81763285       0.00147104       0.01106817      -0.00108010
H       12.58101562      16.05279181      13.10793412       0.00397426      -0.00240335       0.00057283
H       13.46727352      17.52481376      12.71470026      -0.00201018       0.00179842       0.00479504
H       15.39634222      17.39381561      11.10991682       0.00480928      -0.00058309       0.00340576
H       13.07172688      13.91693399      11.62331821      -0.00122079      -0.00058240       0.00801161
H       15.37569358      13.27770419      10.21338348       0.00881892      -0.00370787      -0.00480679
H       12.20348479      17.68334529      10.53161841       0.00120539       0.00936872       0.00746450
H       11.14273092      17.76078895      11.93580044      -0.00606292      -0.01645482       0.00275132
H       11.24252460      16.26757349      11.00882507       0.01829401      -0.00788137      -0.01043718
H       17.26815837      16.55529547       9.69582567      -0.00064167       0.00841966      -0.00272988
H       17.79680656      15.02391519      10.43253062       0.00695798       0.01148981      -0.00502992
H       17.00411365      15.02829259       8.84008160       0.00165040       0.00970052      -0.00287652
O       12.88775877       5.31527727       0.76260622       0.00607300       0.02158600       0.00220442
O       15.54030410       5.32213931       1.45983420       0.01143324      -0.00986338      -0.00734611
O       14.68888945       5.73949430      -1.13017106       0.01061189       0.01185691       0.00023484
O       14.44043113       3.34270158      -0.04997642      -0.01670390       0.01100802      -0.01236004
Cr      14.35370238       4.92162979       0.22065939       0.00135744       0.00843203      -0.00411689
Cr      15.96451591       6.39756969       2.77612605       0.01043037      -0.00437021      -0.01069462
O       17.46242591       6.94677466       2.51887652       0.00844288      -0.00150132      -0.02015865
O       14.93235368       7.61267224       2.83831143       0.00784063      -0.00756645      -0.01140802
O       15.92002933       5.56267947       4.17015908       0.01496364       0.00185013      -0.00627828
Cl       7.14318522       4.49539507      -0.99822426      -0.01018418       0.00932762       0.00283025
Cl       4.96693953       5.63230083       0.55006989       0.00378889       0.01799063       0.02478057
Cl       6.21594997       7.19118582      -1.54125651      -0.00436277       0.01694128       0.01711899
Cl       7.67254227       6.62333848       0.90255277      -0.00014961      -0.00016010       0.01259843
C        6.49880268       5.97634329      -0.26059760      -0.00191508       0.01000098       0.01073014
Cl      13.66174570       3.65834945       3.87929624       0.01019782      -0.00894059       0.00697889
Cl      10.99022864       4.75003270       3.74523781       0.01662067       0.00399143      -0.00149443
Cl      11.43521147       2.15878955       4.99296114      -0.00121431       0.00459231       0.00430307
Cl      11.69788509       2.46774594       2.10542593       0.00818138      -0.00208667       0.00452924
C       11.97725344       3.28168445       3.66255214       0.00852785      -0.00124405       0.00426079
Cl      14.19168014      17.32737808       4.93381670       0.01090428      -0.00216150      -0.02052284
Cl      15.07375864      14.55309089       4.99682302      -0.00607693      -0.00543556       0.00801063
Cl      14.10463418      15.81435097       7.41735828      -0.01256670       0.02067613      -0.00790232
Cl      16.65171391      16.62130640       6.27463924      -0.00160526      -0.00373109       0.00118593
C       15.01626531      16.07669888       5.88257190      -0.00211477       0.00236218      -0.00499971
Cl       2.20900463       8.63699559       2.98815562      -0.00002587      -0.00911224      -0.00716817
Cl       2.29810305      11.29189006       1.87196632      -0.00086668      -0.00526392       0.00166422
Cl       4.60038137       9.53423226       1.61594584       0.00323474       0.00020494       0.00663644
Cl       3.91103291      10.66848188       4.19394344      -0.01172890      -0.00827408       0.00720018
C        3.25103626      10.01755881       2.66798648      -0.00183263      -0.00583908       0.00220416
Cl      10.31144071       3.88106061      14.72215693      -0.00803903      -0.00245988       0.00569636
Cl      11.86747971       4.43053002      12.33932721       0.00700697      -0.02063115       0.01126167
Cl      12.58921267       5.65759113      14.86906007      -0.00889862      -0.00255355       0.00449467
Cl      10.17762219       6.48847835      13.45889179       0.00008604      -0.01043761      -0.01428488
C       11.24552377       5.13384996      13.86710900      -0.00385892      -0.00916202       0.00109352
Cl       7.15453357      14.06910255      -1.14972955      -0.00733381      -0.00214641      -0.00619093
Cl       4.79318105      12.89255671       0.02050182      -0.00640303       0.00042057      -0.00140087
Cl       7.34507535      12.63528291       1.37188404      -0.00691890       0.01758553       0.00416911
Cl       6.85625690      11.18499317      -1.08832217      -0.00082679      -0.00259492       0.01529838
C        6.52588733      12.68963710      -0.22085849      -0.00567644       0.00335605       0.00285405
Cl       1.51249528       3.08107525      18.68316767      -0.00281568       0.00203362       0.00309426
Cl       2.56849521       3.76366540      16.07748955       0.01034141       0.00423869       0.00747198
Cl       0.91178451       5.66046739      17.52813502       0.00286269       0.00149256       0.00242236
Cl      -0.27888251       3.27530952      16.40666246       0.00989658       0.00084287      -0.00714403
C        1.16509233       3.95072382      17.17115524       0.00487526       0.00256919       0.00141712
Cl      10.65121693       9.86759220      12.12652480       0.00394130      -0.00505413      -0.00018740
Cl      10.50156037      11.10424843       9.49671275       0.01409054       0.01388496       0.00688757
Cl       8.15551510       9.84957357      10.65617545       0.01077402       0.00474166      -0.00908398
Cl      10.38859204       8.22415907       9.75741809       0.01396125       0.01263532      -0.01451132
C        9.92177252       9.75434597      10.51380489       0.01123709       0.00647525      -0.00394928
Cl       1.37348387       4.57562250      12.72232304       0.00081791       0.00614715      -0.00110277
Cl       1.25790292       7.12987437      11.37997876       0.00843757       0.00313386      -0.00557423
Cl       2.72501825       6.86762811      13.86781618       0.00889137       0.00331499      -0.00571477
Cl      -0.16648901       6.73854828      13.88920673       0.00905681       0.01352429      -0.00371486
C        1.29121239       6.32761174      12.97603743       0.00685645       0.00665665      -0.00363436
Cl       3.62105357      12.89296587       9.55700960       0.01320377       0.00404225      -0.01106918
Cl       2.47229256      15.42490105       8.75192683      -0.00088766      -0.00487356      -0.02760751
Cl       1.07254776      12.93133761       8.18864065       0.00787202      -0.01319723      -0.00154399
Cl       3.48536570      13.60122919       6.73865170       0.00289205      -0.01554319      -0.01360041
C        2.66683136      13.70568155       8.30574289       0.00563692      -0.00795855      -0.01293180
Cl      12.24242984      10.16894272      16.21201189       0.00672615      -0.04596302      -0.01172107
Cl      10.42739279      10.36197734      18.46865036      -0.00143625       0.00721306      -0.02047729
Cl      11.86632874       7.87579747      17.95534228      -0.02771699      -0.01761997      -0.00417480
Cl       9.73407968       8.72320985      16.18858121      -0.02405322       0.00637573      -0.01170257
C       11.09135219       9.25335694      17.22018285      -0.01574267      -0.01376483      -0.01053999
Cl      12.43383730      16.80211477       1.18078458       0.01180354       0.01352298       0.01547241
Cl      14.01948533      14.39753921       1.47901142       0.00582945       0.00369085      -0.02280494
Cl      11.54310421      14.30141876      -0.01153947      -0.00967105       0.03089116      -0.00143628
Cl      11.48264289      14.63721087       2.86566996       0.02004157      -0.00014101       0.00291649
C       12.38211543      15.03469188       1.37190556       0.00758788       0.01199754      -0.00125873
Cl       3.39783854      16.44947711       1.57622979       0.00194056       0.00383792       0.01352873
Cl       4.19796965      14.27917486       3.32880141       0.00561231      -0.00288814       0.00310367
Cl       1.41944122      15.07388112       3.19371181       0.00550812      -0.00202976       0.01181806
Cl       3.36348403      16.82334452       4.44973597       0.00844312      -0.00760183       0.01508626
C        3.08576252      15.66441060       3.14399435       0.00533815      -0.00220758       0.01099218
Cl       6.45851538       1.60155174       4.94016934       0.00487499      -0.01186363      -0.02261537
Cl       6.40005672       4.37912023       4.10560815      -0.02792377      -0.00834772      -0.00869532
Cl       5.48260154       2.30422962       2.29804958      -0.00799075      -0.00924882      -0.01686272
Cl       8.30399852       2.56417795       2.90816680      -0.00924873       0.01787543      -0.01960012
C        6.65378847       2.72774766       3.56388435      -0.01016884      -0.00246481      -0.01744745
Cl      13.03421978       5.59544408       9.53658054      -0.00939173      -0.01012786      -0.01005250
Cl      15.09417356       4.86718291       7.61871750       0.00439829       0.01176983      -0.00011145
Cl      14.49582289       7.65789504       8.14046000      -0.02182052       0.00771976       0.00275624
Cl      12.59622489       6.00909256       6.70067941       0.00246668      -0.00315848      -0.01257074
C       13.81092882       6.03060783       7.99222151      -0.00585815       0.00178923      -0.00522828
Cl       1.60513087      -0.17489242      11.28563918      -0.00385828      -0.02845661       0.01857129
Cl       2.16195135       0.88863099      13.92681434       0.00501648      -0.00371163       0.00672898
Cl       3.52468810       1.96676337      11.62076263      -0.02775212      -0.00446424      -0.01529886
Cl       4.16667694      -0.69887741      12.54136236       0.01285130       0.01223592       0.00492694
C        2.87127323       0.50041219      12.35764100      -0.00372957      -0.00605050       0.00362685
Cl      -1.19871774      10.33645742       7.61364553       0.01731299      -0.01804444       0.02041137
Cl       1.45551573       9.51511692       6.77579552       0.01076519      -0.02213684       0.00222167
Cl      -0.27637324      10.93532080       4.92618900       0.01246018       0.00834653       0.02450147
Cl      -0.86760509       8.19758033       5.66801739      -0.00028491       0.00257337      -0.00407436
C       -0.21890994       9.72133289       6.22895886       0.00986376      -0.00696819       0.01083007
Cl       3.87801713       4.06673840       7.15031480      -0.01092631       0.00199726      -0.00284981
Cl       3.84417093       6.88151853       7.82246251      -0.00310299       0.00021017       0.00432965
Cl       1.38078285       5.35058522       7.88293763      -0.00906944       0.00994566      -0.01127020
Cl       2.63225039       5.97697332       5.34941255       0.00579872       0.01021035      -0.00417072
C        2.92702628       5.57032941       7.04491511      -0.00440271       0.00558403      -0.00344780
Cl      14.48802235      10.79397586       1.41256397      -0.00818992      -0.01201945       0.00011614
Cl      17.04402192       9.46820953       1.35265311      -0.00429273      -0.00593883      -0.01342064
Cl      16.89833983      12.35974494       0.98344332      -0.01118961      -0.00241432       0.02283929
Cl      15.94185829      10.56363509      -1.08891194      -0.00499526       0.02020838      -0.00046521
C       16.09394862      10.76416546       0.68051800      -0.00729944      -0.00034001       0.00206718
Cl       3.21205608      11.43432268      14.88345782      -0.01734431      -0.02658723       0.01841518
Cl       3.11048556      10.37742171      12.18987462      -0.00625698       0.00592598       0.00461304
Cl       5.23839155       9.56271264      13.98038516       0.00002085       0.00391376      -0.00365026
Cl       5.18999893      12.25893670      12.93535230      -0.02723651       0.01773413       0.02856284
C        4.18071388      10.90285237      13.50500650      -0.01251170      -0.00040315       0.01178315
Cl       7.06433440      13.82474811      10.63451625      -0.00856082       0.00083706      -0.01049870
Cl       7.24899701      12.94201754       7.88418815       0.00593479       0.00554528      -0.01144552
Cl       9.15145895      14.87584178       8.92215432       0.00886517      -0.00729067       0.00612486
Cl       6.38973670      15.65089529       8.48795934       0.01399963       0.00737339      -0.01224773
C        7.43983102      14.32007073       8.98752844       0.00529909       0.00201726      -0.00707497
Cl      14.43364016       8.64388825      12.95640208      -0.00945784      -0.00187880       0.00400266
Cl      16.80387042       9.84285848      11.78760637      -0.00992233      -0.01865165      -0.01202603
Cl      15.08146365      11.41606005      13.50114105       0.00288515      -0.00162995      -0.01302072
Cl      14.17466258      10.63047820      10.85567965      -0.01030248      -0.01027204      -0.00450236
C       15.12637354      10.11660041      12.28177343      -0.00636724      -0.00822140      -0.00669307
Cl       6.86420226       1.50315138      10.24654302      -0.00282724      -0.00173115      -0.01287481
Cl       7.03116625       2.02477421      13.09985944      -0.01400341       0.00687002      -0.01315793
Cl       9.41706379       2.10842743      11.46871221      -0.00798130       0.00304869      -0.00333728
Cl       8.11099161      -0.43799065      12.00680474      -0.00793634       0.00424343      -0.00358830
C        7.85363759       1.30623560      11.70538449      -0.00843102       0.00322264      -0.00812574
Cl       1.82526010      15.10570975      14.44087119       0.00724912      -0.00607714       0.00280565
Cl      -0.92519211      15.64088973      13.70650103       0.00587836      -0.00889947       0.00465593
Cl      -0.29656094      13.38922649      15.41728267       0.00891003      -0.00464639       0.00926173
Cl       0.45459775      13.32098780      12.61784009       0.00442193      -0.01055759       0.00914633
C        0.27265903      14.35710672      14.05857738       0.00689544      -0.00744858       0.00661284
Cl       8.67369428       7.12088649       5.83004442      -0.00480485      -0.00669113      -0.01413915
Cl       8.23394112       9.31292303       3.97899523      -0.01180588       0.00414412      -0.00148669
Cl       7.19619738       9.46071026       6.69150825       0.00141625      -0.00986952       0.00236848
Cl       6.01589530       7.63114593       4.77884998      -0.00715750      -0.00291495      -0.00116657
C        7.53059488       8.37884843       5.31130364      -0.00603194      -0.00370524      -0.00384523
Cl      -0.23849428       3.54551319       4.43391215      -0.00032169      -0.00614160       0.00089724
Cl       0.14609475       0.81173208       3.53967126       0.01012748      -0.00740290       0.00576049
Cl       0.91303192       1.57351208       6.24349186      -0.00545087      -0.00183433       0.00811291
Cl       2.44948867       2.51240934       3.98361186       0.00262678      -0.00078282       0.01269984
C        0.79957299       2.13499584       4.54251300       0.00169674      -0.00416531       0.00703165
Cl      16.77934047       1.74759220      12.29263615      -0.00052798      -0.00394684      -0.01127599
Cl      14.24302076       2.18992170      10.96402944      -0.01833045      -0.01118803       0.02378780
Cl      15.61030494       4.40246205      12.24265135      -0.01588570      -0.00838718       0.01373584
Cl      14.42513147       2.33440318      13.87670219       0.02026853      -0.01864562       0.02536315
C       15.26043719       2.68997836      12.36198171      -0.00378281      -0.01069051       0.01379687
Cl      11.66901612      10.87322807       3.61236388      -0.01387921       0.00328853       0.00868911
Cl      13.95641846      10.70054506       5.36639441       0.00151241       0.01118554      -0.01013606
Cl      11.38878345       9.68709596       6.23700753       0.01698548      -0.01797801       0.00295082
Cl      11.80207473      12.54857671       5.99008403      -0.01120882      -0.01323199       0.01969159
C       12.21459904      10.93209416       5.29638590      -0.00188483      -0.00435555       0.00491640
Cl       6.49851994       6.18622587      12.90820442      -0.00964962      -0.00660655       0.00476897
Cl       4.80247479       4.95916466      10.90391494      -0.00450087      -0.00161961      -0.00234418
Cl       7.39619770       6.02528224      10.15578981      -0.00295076      -0.00121929       0.00647855
Cl       5.23087774       7.81552410      10.87314254      -0.00313979      -0.00128943       0.00475667
C        5.98689713       6.24283434      11.20815948      -0.00537235      -0.00270146       0.00339746
Cl       9.85883942      15.18815050      14.42458674      -0.00110836       0.00841767       0.01445225
Cl      12.05001074      13.28865200      14.35819636       0.00894707       0.01793417       0.00628859
Cl      10.30113911      13.56314821      12.06829057      -0.00172430       0.01263830       0.01245880
Cl       9.31953256      12.33719812      14.50219817       0.01787531       0.00503850       0.01732446
C       10.37177314      13.57822905      13.84603323       0.00613177       0.01150894       0.01205565
