194
Lattice="12.33171122128072 0.0 0.0 0.0 12.33171122128072 0.0 0.0 0.0 12.33171122128072" Properties=species:S:1:pos:R:3:forces:R:3 energy=-170342.140625 stress="-0.00609227130189538 -0.00017458519141655415 -0.0005292033310979605 -0.00017458519141655415 -0.00411815894767642 0.0006953175470698625 -0.0005292033310979605 0.0006953175470698625 -0.005259907338768244" pbc="T T T"
N        5.69248037       1.73857161       4.48622700       0.00046134       0.00585398      -0.00366482
N        4.08492501       2.72181955       5.56174722       0.00151023       0.00681126      -0.00430971
C        7.76643928       2.07952804       3.16261477       0.00106876       0.00556242      -0.00128216
C        8.20070561       3.42590079       3.72590335       0.00087546       0.00466658      -0.00004607
C        7.01836434       1.19833451       4.15265516      -0.00012350       0.00546271      -0.00292628
C        8.90874421       4.27704871       2.67658930       0.00539382       0.00331081       0.00223887
C        9.46442564       5.60973906       3.17142517       0.00967867       0.00033569       0.00413245
C        5.33690464       2.26548300       5.65920085       0.00039715       0.00523784      -0.00386274
C        4.63781454       1.85583027       3.60975804       0.00143623       0.00780357      -0.00412375
C       10.46919122       6.21123010       2.19650333       0.00504798       0.00154775       0.00077575
C        3.62725567       2.47002851       4.28675872       0.00209779       0.00837062      -0.00438672
C        3.35583651       3.42961240       6.61299205       0.00181133       0.00537929      -0.00353163
H        7.16571758       2.21248612       2.25884282       0.00238103       0.00606155      -0.00175568
H        8.65150621       1.52482588       2.84821901       0.00104657       0.00558589      -0.00054711
H        8.86304352       3.28478559       4.58164511      -0.00233358       0.00377447       0.00192735
H        7.33066584       3.95030246       4.13294292       0.00049940       0.00615066      -0.00330100
H        7.56089207       1.10277102       5.09178766      -0.00111414       0.00443710      -0.00267744
H        6.85699496       0.19488717       3.75714108      -0.00032330       0.00617793      -0.00394177
H        9.72366104       3.68770057       2.24081410       0.00377721       0.00113484       0.00293403
H        8.22544856       4.45223190       1.84200966       0.00728619       0.00709021       0.00165908
H        8.64735617       6.32291600       3.31947249       0.01201174       0.00109434       0.01087046
H        9.92530091       5.48217426       4.15583526       0.01429342      -0.00397233       0.00097835
H        5.97546431       2.34863214       6.52162116      -0.00026538       0.00311929      -0.00347840
H        4.71815482       1.52745574       2.58433081       0.00134586       0.00738445      -0.00366509
H        2.64074759       2.76372551       3.96909893       0.00251920       0.00869260      -0.00469406
H       10.01828088       6.37840256       1.21425974      -0.00125541       0.00889653       0.00523958
H       10.85993127       7.16452469       2.55685795       0.01118837      -0.00215718       0.00311121
H       11.30503583       5.52599509       2.04272399       0.00089765      -0.00087833      -0.00905046
H        2.70718223       2.74477184       7.15317107       0.00096199       0.00518489      -0.00539565
H        4.07003874       3.88377805       7.29585842       0.00185804       0.00319041      -0.00249991
H        2.75997215       4.21815453       6.15683787       0.00296511       0.00666487      -0.00213391
N        4.69043757       5.77673355       3.78997351       0.00568318       0.00613430      -0.00176632
N        3.22276012       5.69539458       2.19310606       0.00361729      -0.00010538       0.00136033
C        6.61479507       6.42471790       5.32826609       0.00356746       0.00776678       0.00042421
C        6.77202418       7.89730008       5.00534075       0.00084341       0.00818667       0.00214651
C        5.22324210       5.84976360       5.16291218       0.00577787       0.00468895      -0.00190908
C        8.10938869       8.47804672       5.44309260      -0.00143066       0.01019946       0.00512308
C        8.19661754       9.96684125       5.13748155      -0.00071493       0.00884563       0.00131443
C        3.39471979       5.92204856       3.49470817       0.00504059       0.00036025       0.00068486
C        5.36341669       5.43885612       2.63854870       0.00508469       0.00964776      -0.00271565
C        9.47866372      10.60279905       5.64133082      -0.00391999       0.01073404       0.00628580
C        4.44291637       5.39146074       1.63597716       0.00367081       0.00583479      -0.00088435
C        1.95027349       5.77155904       1.48194886       0.00173438      -0.00744692       0.00460887
H        7.33941143       5.83034835       4.77632880       0.00571944       0.01004516       0.00125360
H        6.88485862       6.24815906       6.37133500       0.00219066       0.00727959       0.00056538
H        5.96860437       8.46166033       5.49098833      -0.00113918       0.00616184       0.00078136
H        6.65488126       8.04603581       3.92584848       0.00257390       0.00896489       0.00232559
H        4.48996340       6.42390114       5.72490892       0.00411451       0.00110145      -0.00109532
H        5.22369320       4.83757375       5.56095447       0.00820818       0.00400847      -0.00415884
H        8.24824314       8.30984184       6.51383807      -0.00507083       0.01324700       0.00587812
H        8.93404939       7.95129399       4.95334803       0.00044861       0.00922260       0.00969546
H        8.12270213      10.10478025       4.05096120       0.00441266       0.00580690       0.00076360
H        7.32546818      10.47307006       5.57127781      -0.00296834       0.00978543      -0.00454991
H        2.60399995       6.15313812       4.19082149       0.00513954      -0.00399478       0.00199190
H        6.42151112       5.25161194       2.62288154       0.00578729       0.01481092      -0.00463477
H        4.55370978       5.16061483       0.59174484       0.00265027       0.00719235      -0.00098262
H       10.35531633      10.08131025       5.26096652      -0.00176503       0.01019014       0.01234480
H        9.55856622      11.65051241       5.33836353      -0.00254053       0.00968312       0.00427833
H        9.52970704      10.55454076       6.72485008      -0.00974764       0.01286296       0.00646725
H        1.60828971       4.76650205       1.21898912       0.01003072      -0.00887483       0.00071989
H        1.21759706       6.23919862       2.13462763      -0.00050797      -0.01746482       0.00872791
H        2.07896148       6.35682318       0.57238278      -0.00523669      -0.00202742       0.00748280
S       13.23611294       2.34184349       0.33386829       0.01338911      -0.00927152      -0.00184532
S       11.29765875       2.36415003       0.14048735       0.01291511       0.00782901       0.00465933
O        5.90169690       2.04814239      10.72440686       0.00586894      -0.02080582      -0.00247067
O        4.01603229       2.30620395      11.86578172       0.01532844      -0.00103608       0.00731435
O        5.72142819       1.20864843      12.81003530       0.00706315      -0.02241856      -0.00320026
C        4.99458423       2.65152180       9.77542161       0.00951569      -0.00459474       0.00474644
C        3.70082114       2.85335966      10.56881913       0.01489437       0.00450411       0.00998922
C        5.26841768       1.81293874      11.87326158       0.00863168      -0.01507887      -0.00012797
H        4.87003511       1.94950667       8.95071887      -0.00092948       0.00235933       0.00073096
H        5.43603090       3.58257804       9.42973797       0.01794662      -0.00721502       0.00926032
H        3.43001037       3.90214464      10.69171677       0.02436831       0.00622585       0.01330552
H        2.84820068       2.30523901      10.16690020       0.00875959       0.01295263       0.01227121
O       12.31956680       8.40619409       9.14917704      -0.00969975      -0.02114790      -0.00317937
O       11.19002524      10.16372793       8.38640331       0.00353606      -0.01656002      -0.01016676
O       11.96145426       8.61749073       6.93660268       0.00438318      -0.01836306      -0.00330949
C       11.86678912       9.10254292      10.32081398      -0.01124021      -0.01897410      -0.00553834
C       11.45479199      10.45675099       9.76271255      -0.00934114      -0.01920134      -0.00817003
C       11.82069263       9.02266716       8.04913086       0.00000950      -0.02042225      -0.00848418
H       12.67376090       9.13205089      11.04243305      -0.01271531      -0.01799349      -0.00433809
H       11.02352139       8.55706887      10.74487558      -0.01215008      -0.01643643      -0.00628747
H       10.55685634      10.85647708      10.22803172      -0.01336911      -0.02054677      -0.01421545
H       12.23423746      11.21521238       9.80865600      -0.01175120      -0.01790887      -0.00036064
O        2.67829843      12.81486035       6.93227010       0.00344258       0.00386366      -0.01727708
O        0.72594691      11.77235508       7.05277056       0.00903022      -0.00205754       0.00833912
O        1.09829526      13.58389948       8.33288569       0.01506667       0.00634715      -0.00505197
C        2.85893440      11.60424566       6.16361633      -0.00011301       0.00060716      -0.01210776
C        1.43227813      11.13016103       5.95778531       0.00005031      -0.00571334       0.00496471
C        1.46445847      12.78360436       7.51301987       0.01002289       0.00180045      -0.00568137
H        3.46023859      10.91661270       6.75048902       0.00871979       0.00656086      -0.01446307
H        3.38935275      11.86123832       5.25014845      -0.01046143      -0.00239439      -0.01864913
H        0.98060277      11.48765361       5.03500023      -0.01050684      -0.01286015       0.00764707
H        1.29134775      10.05809153       6.05092998       0.00486287      -0.00549832       0.01174924
O       10.41539296      10.07218954       2.37146030      -0.00331040       0.00296217       0.00057927
O       10.08323058      12.25266884       2.12583689       0.00122704       0.00318637      -0.00040728
O       11.63428454      11.52832738       3.56561249      -0.00384000       0.00000507       0.00089589
C        9.53512889      10.16031234       1.24135161      -0.00462314       0.00413606       0.00228843
C        9.27937416      11.67038163       1.08924252       0.00105816       0.00444144      -0.00042692
C       10.77804964      11.30262824       2.75725398       0.00010896       0.00248268       0.00254390
H        8.64400494       9.57380001       1.46419792      -0.00618032       0.00834863       0.00522582
H       10.04841198       9.73542179       0.38189102      -0.00782795       0.00038365       0.00253835
H        9.63694564      12.07357149       0.14329571       0.00398110       0.00142473      -0.00032660
H        8.24626573      11.97799077       1.25409771       0.00214770       0.00844156      -0.00270527
O       11.73246439       3.34541117       5.59841939       0.00619600      -0.00090906      -0.00166565
O       12.84594320       3.42809598       3.67701897       0.00104603      -0.00073615      -0.00399055
O       13.03958784       5.12179250       5.13376210       0.00228275      -0.00120366      -0.00596750
C       11.51219521       2.04605825       4.99757751       0.00376686      -0.00011694      -0.00108311
C       12.08998767       2.19671847       3.59518792       0.00483370      -0.00259236      -0.00077134
C       12.56563294       4.06181140       4.82988306       0.00381319       0.00083160      -0.00331722
H       10.44288693       1.84807509       5.00214382       0.00354487       0.00225051      -0.00171372
H       12.02079554       1.29823849       5.60423592       0.00155547      -0.00088161      -0.00057897
H       12.76620784       1.39889427       3.30524649       0.00732577      -0.00142026       0.00257315
H       11.33789105       2.31045554       2.81503179       0.00582778      -0.00705254      -0.00193253
O        9.44086675       3.47836960       8.62589645       0.00889894      -0.00091094      -0.00128376
O        8.40380071       2.50096467       6.91907227      -0.00009082      -0.00610475       0.00775307
O        8.92497715       4.69324904       6.80537961      -0.00170714      -0.01805717       0.00439328
C        9.36608451       2.09015727       9.00999759       0.01313156       0.00045057       0.00169379
C        8.49180388       1.46866485       7.91874344      -0.00025019      -0.00041711       0.01286352
C        8.92856471       3.66343593       7.40165322       0.00167547       0.01008284      -0.00815439
H        8.92572166       2.04049605      10.00377783       0.02490245       0.00249107       0.00613973
H       10.38023511       1.68997976       9.02923860       0.01258573       0.00069091      -0.01038435
H        8.93245231       0.58211972       7.46272152      -0.01067258      -0.00542721       0.01494330
H        7.48151862       1.24360908       8.26218289       0.00133789       0.01041375       0.02261205
O        8.23664772       9.13681875      10.69451350      -0.01404509      -0.00228253       0.01111960
O        8.13628788      10.20781854       8.74100245      -0.00226880       0.00216360       0.01384550
O        9.13750974       8.18782998       8.85574876      -0.02154949       0.02112380       0.02718627
C        7.35550179      10.25543598      10.89333404      -0.01424280      -0.00286803       0.01192445
C        7.71803698      11.15936748       9.73846155      -0.00915205       0.00048667       0.01242271
C        8.55522244       9.09118695       9.36489652       0.00943452      -0.02889234       0.00060499
H        7.53847263      10.69779642      11.86795430      -0.01728591      -0.00469829       0.01037309
H        6.32574930       9.90075237      10.82941222      -0.01299214      -0.00219056       0.00498640
H        6.89118158      11.73482192       9.34418003      -0.00643054      -0.00259960       0.00922786
H        8.56358925      11.80859612       9.97994822      -0.01071218      -0.00065789       0.01818035
O        4.53666274       8.54844208       2.55909948       0.00485975       0.00401145      -0.01011698
O        5.23363592      10.44484555       3.48905137      -0.00489704       0.00314993      -0.00237066
O        3.68906162       9.18675110       4.53740017      -0.00235883      -0.00521362      -0.01166138
C        5.57420395       9.00179978       1.67994208       0.00865325       0.00857003      -0.00277498
C        5.92191771      10.39119061       2.22383042      -0.00323167       0.01037011      -0.00135034
C        4.43692949       9.37400451       3.62106315      -0.00225103      -0.00021656      -0.00671601
H        5.18001786       9.00824583       0.66593261       0.01689197       0.00586206      -0.00550075
H        6.40350427       8.29591425       1.73751054       0.01184663       0.01326044       0.00427473
H        6.98239057      10.50823629       2.42637105      -0.00479212       0.01941541      -0.00004241
H        5.57236130      11.21693869       1.60132592      -0.00930586       0.00756478      -0.00094657
O       12.84791174       5.37027805      10.77236875       0.01198530       0.00822143       0.00007772
O       13.75673860       5.77491356       8.79033523       0.01587440      -0.00453092       0.00001208
O       14.56579562       6.81335506      10.61965627       0.02315015      -0.00582808      -0.00294736
C       12.26588882       4.39675770       9.86367775       0.00393954       0.01160467       0.00220174
C       12.54587426       5.01467946       8.51406847       0.00952819       0.00563938       0.00109583
C       13.78448850       6.05379479      10.09992561       0.01724896      -0.00138178      -0.00148696
H       11.21935598       4.28173628      10.11435145       0.00321007       0.02078612       0.00222605
H       12.79027944       3.45211191      10.01596819      -0.00431091       0.00763729       0.00453731
H       12.76548432       4.29146245       7.73584317       0.00390705       0.00165027       0.00345606
H       11.77729737       5.71030308       8.17499391       0.01652476       0.01168439      -0.00064281
O        7.16840251       4.92328552      11.89861245      -0.00451756      -0.01226947       0.00245535
O        9.28977756       4.67552028      11.28395968      -0.00522996      -0.01218361       0.00264276
O        8.18390985       2.92075449      12.13787524      -0.00283016      -0.01335180       0.00733346
C        7.62706160       6.24929359      11.54809287      -0.00456181      -0.01248407       0.00198305
C        8.90520068       5.97060406      10.77650529      -0.00546861      -0.01202764       0.00170350
C        8.21698613       4.06567230      11.79848790      -0.00325136      -0.00726259       0.00288223
H        7.80809039       6.80569546      12.47192965      -0.00463206      -0.01231652       0.00197002
H        6.86385531       6.73635028      10.95039263      -0.00493932      -0.01244520       0.00237715
H        8.74223304       5.89200100       9.70403562      -0.00574861      -0.01244315       0.00241125
H        9.70937857       6.66992839      10.98315386      -0.00570181      -0.01219621       0.00119630
O        5.94670413       7.66420062       8.79288518      -0.00817430       0.00284692       0.01637562
O        4.25930970       6.36725098       8.15032819       0.00154163       0.00810987      -0.01607799
O        6.22634906       5.43525060       8.69961789      -0.00789833       0.00594437       0.00251835
C        4.83060420       8.56389534       8.64783539      -0.00530048       0.00367594       0.00704348
C        3.74707650       7.71218442       7.99556271       0.00265938       0.00813177      -0.01118198
C        5.53280509       6.40435015       8.56026949      -0.00208196       0.00179213       0.00171822
H        5.15289806       9.40947946       8.04447830       0.00272518       0.00601122       0.01510236
H        4.53844829       8.89271547       9.64652113      -0.01735479      -0.00178244       0.00488806
H        2.78969359       7.76445484       8.50165505      -0.00255314       0.00320122      -0.02169105
H        3.62824428       7.91844457       6.93162480       0.01454743       0.01577353      -0.01067525
O        1.45603132      11.69410808       1.48061091      -0.01093694      -0.01302534      -0.00509392
O        0.69688592       9.61588048       1.27320309      -0.00677398      -0.01375759      -0.00612980
O       -0.20825730      11.25708286       0.04140394      -0.00710586      -0.01541111      -0.00811306
C        2.25063178      10.91628108       2.38568598      -0.01119250      -0.01102985      -0.00366145
C        1.50733637       9.58521873       2.46658114      -0.00767326      -0.01256612      -0.00558126
C        0.57703447      10.88874249       0.86729353      -0.00756595      -0.01466446      -0.00606224
H        2.31402724      11.44766529       3.32980904      -0.01508638      -0.01131704      -0.00360990
H        3.24550605      10.82394484       1.94979745      -0.01021856      -0.00835190      -0.00143674
H        2.15630139       8.71985204       2.41147962      -0.00533801      -0.01064336      -0.00558675
H        0.84718668       9.52632401       3.32985525      -0.00804645      -0.01503902      -0.00631732
O        4.68746455      11.85627659      10.59875933      -0.01256168      -0.00868517       0.00017710
O        3.07943432      11.07288435       9.28205198      -0.01120907       0.00756425      -0.00952774
O        4.97205241      11.89329317       8.37789647      -0.00255233       0.00147805      -0.00003359
C        3.70412823      11.35881265      11.51890111      -0.02017264      -0.00504754      -0.00639081
C        2.53783626      10.96078903      10.61685029      -0.01906270       0.00847237      -0.01273605
C        4.29394069      11.63652931       9.33160847      -0.01102084      -0.00064754       0.00026432
H        3.45534877      12.15319100      12.21803716      -0.01713191      -0.00528499      -0.00473320
H        4.14008958      10.50828154      12.04447949      -0.02970353      -0.00990084      -0.00695533
H        2.22318569       9.92907854      10.75927398      -0.02867956       0.01128450      -0.01725312
H        1.69823245      11.64503443      10.70808364      -0.01334631       0.01544011      -0.01489588
