200
Lattice="12.945158471163266 0.0 0.0 0.0 12.945158471163266 0.0 0.0 0.0 12.945158471163266" Properties=species:S:1:pos:R:3:forces:R:3 energy=-114426.1484375 stress="-0.004185911267995834 -0.0002781668008537963 0.0004646414454327896 -0.0002781668008537963 -0.004811412189155817 0.00040596591134089977 0.0004646414454327896 0.00040596591134089977 -0.004766969941556454" pbc="T T T"
N        5.88764792       8.42149255       7.76652492      -0.00011843      -0.00136775      -0.00135130
N        5.37358058      10.48388950       7.38132138      -0.00588627      -0.00153154       0.00651735
C        7.58827651       6.76797499       7.09008789      -0.00153413       0.00051194      -0.00707138
C        8.74120767       7.69810000       6.74253449      -0.00380716       0.00163978      -0.00974244
C        6.65667167       7.25263714       8.18079779       0.00180046      -0.00045383      -0.00412047
C        9.58902022       7.06902967       5.64842674      -0.00481558       0.00330973      -0.01081885
C       10.78123060       7.88417253       5.17690819      -0.00663005       0.00502044      -0.01132753
C        6.24902503       9.68415078       7.99172244      -0.00472760      -0.00114912       0.00519669
C        4.75585540       8.41001058       6.99056333       0.00208968      -0.00059907      -0.00394765
C       11.50122688       7.14147272       4.05854199      -0.00556955       0.00633797      -0.01108071
C        4.42750921       9.70961563       6.75308620      -0.00101483      -0.00218171       0.00122958
C        5.41132322      11.93379973       7.39966255      -0.01102044      -0.00188887       0.01462762
H        6.99854613       6.55772828       6.19162990      -0.00382058       0.00043787      -0.00533089
H        7.98862363       5.80644276       7.41578680       0.00019538       0.00094318      -0.00853433
H        9.34781163       7.88189357       7.63752404      -0.00263822       0.00312725      -0.01106167
H        8.36690798       8.67096614       6.40236023      -0.00592513       0.00064421      -0.00909701
H        7.20424374       7.54038453       9.07868522       0.00457181      -0.00040530      -0.00618088
H        5.93861604       6.47733154       8.44753099       0.00340983      -0.00085142      -0.00172104
H        9.94377891       6.09117369       5.99272362      -0.00341995       0.00366259      -0.01190342
H        8.94840695       6.86033799       4.78443457      -0.00559062       0.00319803      -0.01013139
H       10.45506879       8.86995623       4.82894338      -0.00834735       0.00406906      -0.01086873
H       11.45199555       8.06026539       6.02645017      -0.00642355       0.00581022      -0.01170981
H        7.10420250      10.00530552       8.56431623      -0.00729696      -0.00120974       0.00836320
H        4.29343247       7.48788981       6.68732192       0.00586408      -0.00120923      -0.00927476
H        3.62484404      10.15381237       6.19510475      -0.00104698      -0.00188683       0.00029031
H       10.82512727       6.98693851       3.21446241      -0.00554410       0.00383018      -0.01052354
H       12.37600015       7.66885671       3.67865054      -0.00747868       0.00831547      -0.01198930
H       11.82002965       6.15092370       4.39222391      -0.00282380       0.00786072      -0.01059562
H        4.84802657      12.32701190       8.24457232      -0.00488202      -0.00923172       0.02160484
H        6.44541889      12.26361785       7.46881084      -0.01228368       0.00205553       0.00756126
H        4.97861751      12.30398413       6.47636347      -0.02055691       0.00155985       0.02072728
N        0.99511305      10.51252584       5.46002149      -0.00298983      -0.00053698      -0.00634651
N        1.19099802       8.46360854       6.15461863      -0.00327249       0.00000882      -0.00609905
C        2.51446953      12.16430045       4.39758247      -0.00172949       0.00031966      -0.00121918
C        3.32489793      11.17905488       3.56670449       0.00114647       0.00212458       0.00011992
C        1.07041368      11.70191101       4.59820943      -0.00173870      -0.00081384      -0.00636899
C        4.82234865      11.43423748       3.44947388       0.00147611       0.00134683       0.00765790
C        5.51035751      10.30073370       2.68956354       0.00377932       0.00266194       0.00830832
C        1.19336769       9.24774835       5.06937737      -0.00222537      -0.00020081      -0.00609660
C        0.86504823      10.52867040       6.82927273      -0.00441146      -0.00052315      -0.00697529
C        7.02227015      10.43230178       2.60865772       0.00368866       0.00153480       0.01418727
C        0.97907911       9.24430975       7.26469348      -0.00449961       0.00009319      -0.00690132
C        1.34137643       7.01637388       6.15277286      -0.00297128       0.00042307      -0.00582319
H        2.97175013      12.33628357       5.37864427      -0.00489694      -0.00053658      -0.00000387
H        2.49631357      13.13977071       3.90890118      -0.00084506       0.00083596      -0.00004032
H        2.88621329      11.13574332       2.56229686       0.00575653       0.00512962      -0.00160429
H        3.21172805      10.17441915       3.98643386      -0.00158944       0.00129169      -0.00320850
H        0.58606009      11.45723680       3.65126722       0.00142337      -0.00158103      -0.00775135
H        0.46271431      12.46609826       5.08243562      -0.00374795      -0.00132105      -0.00818366
H        5.01374992      12.39223945       2.96150852       0.00421942       0.00199527       0.01071085
H        5.26658480      11.50723305       4.44944290      -0.00336558      -0.00122348       0.00969154
H        5.24778784       9.35047100       3.17292544       0.00079466       0.00189823       0.00466558
H        5.08946577      10.25099741       1.67771861       0.00810319       0.00566226       0.00664094
H        1.32383256       8.90854193       4.05680317      -0.00095772      -0.00027601      -0.00562780
H        0.69920482      11.43921227       7.37628101      -0.00509632      -0.00049677      -0.00746815
H        0.96071312       8.82709378       8.25596571      -0.00522611       0.00011375      -0.00687351
H        7.46706510      10.45942654       3.60673805       0.00005576       0.00066821       0.01555200
H        7.45494993       9.57791240       2.08163558       0.00495658       0.00155109       0.01552463
H        7.32847733      11.34145426       2.08658255       0.00628234       0.00124544       0.01523694
H        0.37550683       6.53949332       6.32523640      -0.00255188       0.00044313      -0.00507824
H        1.73303835       6.69993313       5.18820846      -0.00361256       0.00032858      -0.00574720
H        2.02971060       6.73257128       6.94703566      -0.00241071       0.00085003      -0.00646046
P        9.62768448       0.57425796       1.65954966      -0.02847481      -0.02602988      -0.01524083
O       10.02419659      -0.28240740       3.00049601      -0.00892869      -0.00095844      -0.00075573
O        9.83080784       2.01689247       1.94502340      -0.00505665       0.00895488       0.00014701
O        8.34803958       0.05614685       1.09884816       0.01462030       0.00218916       0.00266492
O       10.83882064       0.08754542       0.67295892      -0.00214672      -0.00104472       0.00020045
H        9.81981290       0.26142397       3.76897410      -0.00083183       0.00235595      -0.00261249
C        8.70925947       9.64364344      10.50084965       0.00407407       0.00118210       0.00173086
C        7.57019581       9.73764710      11.29729403       0.00910127       0.00495505       0.00791873
C        9.09932128      10.72811781       9.71973646       0.00157100      -0.00107757      -0.00213522
C        6.83151884      10.91634397      11.32634672       0.01185876       0.00628752       0.01017852
C        8.35308760      11.90395375       9.74342538       0.00415361       0.00019793       0.00002516
C        7.22461274      12.00349964      10.55250155       0.00942628       0.00381260       0.00606705
H        9.30195131       8.73745336      10.50564866       0.00219120       0.00044002       0.00019858
H        7.27382120       8.89849442      11.91650218       0.01131648       0.00701668       0.01124418
H        9.99389845      10.66244265       9.11271952      -0.00230743      -0.00379479      -0.00687096
H        5.96856796      11.00115908      11.97552683       0.01678894       0.00957999       0.01549879
H        8.67034900      12.75410874       9.15301597       0.00254497      -0.00160648      -0.00297011
H        6.67945730      12.93796664      10.60826066       0.01205118       0.00489064       0.00802031
C       10.31632521      10.69532160      13.43722806       0.01256967      -0.00575497       0.00971681
C       11.11787599       9.60743264      13.28154389       0.01390170      -0.00508440       0.00305729
C       10.56186362      11.94766148      12.69573905       0.00200117      -0.00696525       0.00654531
C       12.18924358       9.63761335      12.37812592       0.00453725      -0.00229010      -0.00589369
C       11.68377650      11.89682293      11.73839925      -0.00235606      -0.00280058       0.00118396
C       12.44947866      10.77877409      11.60152498      -0.00157619      -0.00155705      -0.00678906
H        9.47564546      10.70223017      14.11695014       0.01851976      -0.00792730       0.01644118
H       10.92641359       8.70857799      13.85961369       0.01978699      -0.00492522       0.00351277
H        9.62624643      12.20725168      12.17090578      -0.00126988      -0.01633239       0.00826001
H       12.83374709       8.77413938      12.29790994       0.00467065      -0.00199105      -0.01294018
H       11.89697279      12.79375787      11.16713402      -0.00741822      -0.00154749       0.00131688
H       13.28146515      10.77861326      10.90389398      -0.00764251       0.00049421      -0.01160322
C        9.41101252       6.27754411      11.49904182       0.00247308      -0.00526982      -0.00642077
C        9.09578072       5.79708937      10.23540508       0.00439264      -0.00328091      -0.00723229
C       10.72835925       6.26425395      11.93475353       0.00243317      -0.00116815      -0.00677256
C       10.09251009       5.30280652       9.40408053       0.00596176       0.00316520      -0.00828397
C       11.72995844       5.77379283      11.10613280       0.00399762       0.00533177      -0.00795320
C       11.41133773       5.29470392       9.83999274       0.00553111       0.00757919      -0.00874898
H        8.62837708       6.63635155      12.15570657       0.00137843      -0.01026502      -0.00552054
H        8.06196441       5.74471135       9.92791178       0.00458851      -0.00642378      -0.00718933
H       10.96521296       6.62185428      12.92804632       0.00100444      -0.00281609      -0.00600723
H        9.83890098       4.89043608       8.43462036       0.00742684       0.00472947      -0.00930439
H       12.75748346       5.76654204      11.44671758       0.00394607       0.00844018      -0.00799109
H       12.18607520       4.89182173       9.19843683       0.00717809       0.01251580      -0.01001443
C        3.78931420       7.27680907       1.20790800       0.00116231       0.00315744      -0.00558538
C        2.84456985       8.14668803       1.73499875       0.00219338       0.00525798      -0.00828449
C        3.37686512       6.17178341       0.47582138       0.00014143       0.00112758      -0.00126578
C        1.48780880       7.91232840       1.53818124       0.00222836       0.00510785      -0.00603572
C        2.02398408       5.91775884       0.30426360       0.00024090       0.00106861       0.00053861
C        1.07932390       6.78601946       0.83624256       0.00115834       0.00297445      -0.00159813
H        4.84459401       7.46964111       1.36114943       0.00114717       0.00336196      -0.00771944
H        3.17385027       9.01847401       2.27613817       0.00284493       0.00715649      -0.01202057
H        4.10726275       5.49650553       0.05254635      -0.00065350      -0.00042120       0.00025154
H        0.74596345       8.62054252       1.89323420       0.00318376       0.00647616      -0.00805358
H        1.70715136       5.03755574      -0.24104915      -0.00055399      -0.00025176       0.00377955
H        0.02509446       6.59051030       0.69399339       0.00124326       0.00285605       0.00002666
C       12.60667315       3.37206927       1.03866580      -0.00614946      -0.00012075      -0.00335754
C       12.56913068       4.05233638       2.25000369      -0.00494757       0.00127637      -0.00432602
C       13.05690824       2.06179986       0.99016371      -0.00362638       0.00091550      -0.00276607
C       12.98799238       3.42252844       3.41120703      -0.00093631       0.00365110      -0.00453550
C       13.45888771       1.42308144       2.15687968       0.00058725       0.00347741      -0.00273610
C       13.42807919       2.10352853       3.36528679       0.00191476       0.00497314      -0.00393021
H       12.24655626       3.85393641       0.13753824      -0.00884859      -0.00210510      -0.00282882
H       12.19841922       5.06717475       2.29344979      -0.00695056       0.00001810      -0.00489513
H       13.05625615       1.51862236       0.05623693      -0.00452659      -0.00008344      -0.00142804
H       12.94656430       3.94085437       4.36282673      -0.00015355       0.00477877      -0.00554543
H       13.77543064       0.38839007       2.10938375       0.00308197       0.00472236      -0.00236630
H       13.74301054       1.62422169       4.28360190       0.00530927       0.00690344      -0.00441291
C        3.48992809       3.06408616       7.65263137      -0.00501900      -0.00205010       0.00971743
C        4.60189057       2.26470135       7.42577285      -0.00454070      -0.00088945       0.00958896
C        2.74371337       3.53649519       6.57772734      -0.00420864      -0.00126904       0.00996696
C        4.95809108       1.92370118       6.12544387      -0.00341907       0.00108281       0.00978305
C        3.09766297       3.19036701       5.27921100      -0.00282998       0.00124747       0.01003511
C        4.19459034       2.36607261       5.05643809      -0.00222092       0.00254201       0.00974531
H        3.18836361       3.28702592       8.66684149      -0.00610910      -0.00341000       0.00940453
H        5.17941037       1.90625310       8.26928216      -0.00531560      -0.00193456       0.00947447
H        1.86740983       4.14892094       6.75981619      -0.00463188      -0.00242810       0.01026602
H        5.84698604       1.33791259       5.92963449      -0.00392437       0.00066684       0.00986088
H        2.52382376       3.54850660       4.43488156      -0.00205147       0.00211406       0.01025218
H        4.46474273       2.08328580       4.05023322      -0.00098014       0.00469588       0.00983171
C        0.55379903       2.08938524       9.27061425      -0.01229641      -0.00204606       0.00972414
C        1.10745041       2.65631123      10.41234548      -0.00604899      -0.00188314       0.00622853
C        1.09697556       0.92252294       8.74557206      -0.01534431      -0.00229797       0.00769072
C        2.20378594       2.05895925      11.02715587      -0.00341376      -0.00190003       0.00073294
C        2.17610938       0.30900120       9.37140159      -0.01240109      -0.00208124       0.00210703
C        2.73266132       0.88015917      10.51225447      -0.00637056      -0.00189042      -0.00120692
H       -0.29409826       2.55580993       8.78406407      -0.01498631      -0.00256871       0.01446105
H        0.68198043       3.56187753      10.82689241      -0.00377719      -0.00191045       0.00804955
H        0.68263217       0.51865684       7.82956851      -0.02055081      -0.00348214       0.01104440
H        2.63948959       2.50388716      11.91306780       0.00112104      -0.00187498      -0.00168006
H        2.59355820      -0.60822850       8.96997147      -0.01499536      -0.00211363       0.00028315
H        3.58082031       0.41402549      11.00028213      -0.00429683      -0.00176610      -0.00558601
C        3.71471474       2.95981601       1.62626893      -0.00042713       0.00251754       0.00513962
C        4.23845255       1.73949679       1.20765652      -0.00089613       0.00295741       0.00607492
C        4.54249083       3.88364655       2.25488743      -0.00020305       0.00258940       0.00535785
C        5.58279557       1.44598152       1.41602398      -0.00162518       0.00150099       0.00621736
C        5.88102549       3.58502346       2.47132694      -0.00084303       0.00140249       0.00582309
C        6.40272407       2.36482896       2.06224817      -0.00124672       0.00182695       0.00671120
H        2.66509686       3.18395642       1.47859188       0.00026047       0.00346804       0.00444638
H        3.59108837       1.01846689       0.71879643      -0.00095560       0.00318905       0.00555479
H        4.13511435       4.82586975       2.59416555       0.00034779       0.00266796       0.00411911
H        6.03112620       0.52300581       1.07038435      -0.00190265       0.00214681       0.00668850
H        6.52275416       4.30541221       2.96211118      -0.00076856       0.00126618       0.00601631
H        7.44970292       2.13384087       2.20540110      -0.00209227       0.00106928       0.00680131
C        6.51505427       3.59605372      10.89351005      -0.00404206      -0.00141596      -0.00666692
C        7.33213325       2.90056945      10.00891358       0.00072566       0.00093834      -0.00324775
C        6.96474600       3.86024183      12.18084861      -0.01053481      -0.00200017      -0.00419582
C        8.58617356       2.46034248      10.41723134      -0.00063450       0.00264147       0.00148047
C        8.21130353       3.40493261      12.59251384      -0.01137694      -0.00032971      -0.00026008
C        9.01834078       2.69509484      11.71479909      -0.00693090       0.00268583       0.00351310
H        5.52917654       3.92478434      10.58121807      -0.00294466      -0.00269243      -0.01062180
H        6.99032908       2.71963265       9.00021566       0.00544839       0.00093680      -0.00462878
H        6.33274031       4.39383972      12.87866817      -0.01442168      -0.00481802      -0.00659900
H        9.23511110       1.94119833       9.72308100       0.00272930       0.00405384       0.00420099
H        8.56380534       3.55628243      13.60318853      -0.01644068       0.00003067       0.00150901
H        9.97601008       2.32481452      12.05984232      -0.00783634       0.00388909       0.00705085
C        9.36762882       3.47240461       4.48365300       0.00914646      -0.01004694       0.00476243
C       10.11068704       2.39658018       4.95880875       0.00746647      -0.01056320       0.00243008
C        8.26578390       3.91579332       5.19760503       0.00963335      -0.00947516       0.00496157
C        9.73877214       1.75662057       6.13389559       0.00703746      -0.01219057       0.00191119
C        7.89237926       3.28178240       6.37654639       0.00946993      -0.01067682       0.00394282
C        8.61974682       2.19253021       6.83675101       0.00835313      -0.01155728       0.00254232
H        9.64148983       3.91797735       3.53742054       0.00919272      -0.00862143       0.00510317
H       10.95551210       2.05627304       4.37786243       0.00750440      -0.01085788       0.00286206
H        7.68167159       4.75005408       4.83225783       0.01075210      -0.00873049       0.00635761
H       10.30831542       0.90780878       6.49653095       0.00590803      -0.01309983       0.00017475
H        7.01768896       3.62341405       6.91451485       0.01000349      -0.01030929       0.00435678
H        8.31361810       1.67928505       7.73795573       0.00790670      -0.01226509       0.00179192
C        4.18569232       7.07454578      10.39418497       0.01215128       0.00830162       0.00294066
C        3.85062720       8.31822135      10.91428288       0.00482051       0.00785542      -0.00165088
C        3.21182754       6.27445807       9.80830032       0.01814262       0.00233641       0.00226332
C        2.52955763       8.74774368      10.89491837       0.00318417       0.00169531      -0.00767546
C        1.89090519       6.70665586       9.78186852       0.01640329      -0.00437372      -0.00295705
C        1.54665026       7.93312258      10.34159010       0.00900583      -0.00432824      -0.00816000
H        5.20263873       6.71409274      10.47893866       0.01344408       0.01358696       0.00697531
H        4.61456374       8.93448508      11.37041932       0.00022747       0.01285087      -0.00165893
H        3.47198051       5.30682602       9.39746311       0.02368171       0.00232908       0.00644766
H        2.26594028       9.69857090      11.34214443      -0.00250896       0.00163949      -0.01186859
H        1.12058891       6.07772285       9.35236866       0.02108687      -0.00996898      -0.00215437
H        0.50658529       8.23988048      10.36053132       0.00785775      -0.00947452      -0.01169532
