197
Lattice="14.251765616342688 0.0 0.0 0.0 14.251765616342688 0.0 0.0 0.0 14.251765616342688" Properties=species:S:1:pos:R:3:forces:R:3 energy=-1647154.875 stress="0.002585299778729677 0.00022739628184353933 -0.0001411646808264777 0.00022739628184353933 -0.00020347957615740597 6.571247831743676e-05 -0.0001411646808264777 6.571247831743676e-05 0.00032783806091174483" pbc="T T T"
Ac      11.99080828      12.60214735       9.97085717       0.01728705       0.01731774      -0.00942752
Ac       6.68486919      13.68086443      10.25629828      -0.00179610      -0.00543745      -0.01249013
S       14.56687304      13.21321567      10.73654657       0.01699191      -0.01107370       0.00718389
O       15.91247105      13.48253010      11.17229340       0.02319694      -0.02751084       0.01644345
O       14.19813248      11.73696662      10.72206961       0.00731867      -0.00704372      -0.00624503
O       13.47356736      13.82303063      11.57987767       0.02191883      -0.00882822       0.00985503
O       14.23328107      13.67315091       9.34960707       0.03101844       0.00550675       0.01246858
S        9.26548197      13.22414124      11.92584888       0.00513452       0.00017200      -0.01956613
O        9.64942796      14.16873097      12.91960636       0.00776263       0.00231700      -0.01984561
O       10.19097696      12.08108286      11.76344293       0.00573995       0.00280958      -0.02109002
O        7.84728176      12.72888646      12.13529135       0.00549476      -0.00013302      -0.01347104
O        9.17717444      13.85758286      10.51498873      -0.00169474       0.00103376      -0.01784780
S       14.52158028      13.67529779       4.65305920       0.01169516       0.00147641       0.03252470
O       14.30774448      14.25137720       6.01378120      -0.00078899       0.00534201       0.02958441
O       15.76294985      14.23805233       4.07632576       0.01817870      -0.00114024       0.04555535
O       14.65935608      12.20440384       4.77957061       0.00670262       0.00028706       0.03534402
O       13.36054458      14.01131899       3.80973743       0.02144718       0.00225985       0.01855659
O       10.33391445       1.84330363       3.38601134       0.00014007      -0.00145170       0.00079538
O       12.15976653       2.47631757       4.34747394      -0.00011042      -0.00123468       0.00117332
O       11.90799244       2.88220863       2.13100277       0.00209129      -0.00438797       0.00017190
C        9.53133272       1.70162496       2.19646543      -0.00017869      -0.00089484       0.00079814
C        8.29521530       0.93626572       2.59468778      -0.00065163      -0.00025263       0.00113674
C       11.51799467       2.43779681       3.18304279       0.00108540      -0.00237876       0.00084805
C       13.54329005       2.85979608       4.25077278       0.00032234      -0.00145384       0.00216953
H        9.29164533       2.69756968       1.81499237       0.00043172      -0.00078398       0.00070712
H       10.11407066       1.17689511       1.43753440      -0.00050223      -0.00118515       0.00062832
H        7.65643362       0.77800757       1.72451563      -0.00082739       0.00059167       0.00118706
H        8.56470343      -0.04110622       2.99572004      -0.00131012      -0.00070451       0.00121656
H        7.72600333       1.48039462       3.34903751      -0.00032274       0.00020401       0.00108141
H       14.04352039       2.25565358       3.49774370       0.00127420      -0.00396755       0.00477427
H       13.96018703       2.63560723       5.22732136      -0.00129134       0.00150486       0.00365907
H       13.62055762       3.92266490       4.01332749       0.00060037      -0.00208950      -0.00080197
O        5.46995882       6.63422099       3.23250933      -0.00165349       0.00234670      -0.00220770
O        7.13355187       6.55123897       1.86433483      -0.00156161       0.00533301      -0.00224860
O        7.39979361       5.68174292       3.94320711      -0.00062716       0.00332427      -0.00280899
C        4.88642214       6.40210643       4.53839898      -0.00180817       0.00038636      -0.00247221
C        3.51530627       7.02055703       4.52445786      -0.00127572       0.00176212      -0.00095834
C        6.73681237       6.23701092       3.10267773      -0.00147027       0.00375292      -0.00264907
C        8.52156725       6.30013094       1.58830215      -0.00129457       0.00726116      -0.00280964
H        4.85829108       5.32650054       4.72353341      -0.00283225      -0.00000089      -0.00452652
H        5.54002916       6.84975559       5.28674993      -0.00117934      -0.00170335      -0.00165173
H        3.04911743       6.87051372       5.49686702      -0.00144415      -0.00012574      -0.00125501
H        3.56282796       8.09071390       4.32386223      -0.00019785       0.00225198       0.00142585
H        2.89287185       6.55668953       3.75872772      -0.00182347       0.00418311      -0.00207272
H        9.13411956       7.06230239       2.07153823      -0.00241826       0.00913605      -0.00395092
H        8.61960741       6.35811562       0.51078167      -0.00201385       0.00634259      -0.00303414
H        8.81468450       5.31168825       1.93399471       0.00081412       0.00816387      -0.00202873
O        8.76952035       4.05415458      13.60377331       0.00393882      -0.01321907       0.01419400
O       10.74529586       4.90742705      13.71436097       0.00252473      -0.00987438       0.01675172
O       10.43246778       3.09662750      12.39051480      -0.00159386       0.01439548      -0.01414150
C        7.85559799       3.00845138      13.23424475       0.00178725      -0.00559482      -0.00186524
C        6.47167665       3.60862239      13.19249716       0.00407779      -0.00028336      -0.00472049
C       10.02950298       3.93068584      13.16323744       0.00134867      -0.00158221       0.00328332
C       12.16474346       4.82170988      13.47546940       0.00123665      -0.00259458       0.00813594
H        8.16923325       2.58727316      12.27764560       0.00658680       0.00257819      -0.00376195
H        7.93494531       2.21486819      13.98117725      -0.00571925      -0.01265711      -0.00870436
H        5.72620848       2.82117998      13.05923547       0.00259468       0.00373628      -0.01907213
H        6.25022035       4.12516906      14.12708923      -0.00129849      -0.01040105      -0.00065097
H        6.37933118       4.33023903      12.37878462       0.01235824       0.00905675       0.00285922
H       12.58001812       4.02358831      14.08749586       0.00690497      -0.00887841      -0.00431904
H       12.56397386       5.78515420      13.77954153       0.00026958      -0.00597179       0.01892272
H       12.36464849       4.63923083      12.42131024      -0.00345603       0.01188345       0.00513121
O       10.05724084       8.29978773       5.93547930       0.00039149       0.00165200      -0.00114770
O        9.24027971      10.25390796       6.37239705       0.00061908       0.00256371      -0.00537618
O        7.99041978       8.81114800       5.15326866       0.00306827       0.00116153      -0.00495356
C       10.00345411       7.03617617       5.20540296       0.00261772       0.00127761      -0.00188535
C       11.39566748       6.46793599       5.17505240       0.00251108       0.00072117       0.00431007
C        9.00148499       9.08306653       5.74873320      -0.00043488       0.00008869      -0.00529397
C        8.25470302      11.26470972       6.12077851       0.00018397       0.00196965      -0.00738557
H        9.27997355       6.38364057       5.69554302      -0.00008816       0.00172678      -0.00537536
H        9.62458555       7.24588842       4.20945132       0.00738154       0.00222871      -0.00353700
H       11.37298415       5.49335350       4.68476800       0.00437099       0.00094861       0.00346635
H       12.05838051       7.12586170       4.61365370       0.00541787       0.00081986       0.00771374
H       11.79910255       6.33313868       6.17973181      -0.00209826       0.00002868       0.00598225
H        8.08122622      11.36740825       5.05129371      -0.00310650      -0.00344554      -0.00728744
H        8.68053145      12.18385308       6.51735521       0.00288902       0.00322805      -0.01349820
H        7.31619254      11.02867460       6.62328676       0.00200340       0.00513658      -0.00311391
O        2.68578547       8.80939353       1.65395424      -0.01055393       0.00023666      -0.00262485
O        2.96667747      10.71852119       2.59515920      -0.01670218       0.00162101      -0.00278470
O        4.41606998      10.10158421       0.95724138      -0.01057720       0.00292598       0.00195134
C        3.11584865       7.76551293       0.76109049      -0.00591576       0.00121605      -0.00164142
C        1.98239140       6.77457725       0.67550789      -0.00123900      -0.00435701      -0.00023999
C        3.45853250       9.90782655       1.67357838      -0.01260716       0.00184053      -0.00092852
C        3.67121315      11.95989034       2.79449407      -0.01755068       0.00207384      -0.00092511
H        3.34544702       8.20350091      -0.20998347      -0.00857483       0.00139517      -0.00224838
H        4.02864991       7.31862571       1.16049551      -0.00358325       0.00589418      -0.00160998
H        2.26471973       5.93075316       0.04604593       0.00249282      -0.00313398      -0.00030515
H        1.72449304       6.39205260       1.66261664       0.00158008      -0.00542828       0.00018036
H        1.09387840       7.24272882       0.25065340      -0.00393926      -0.00897031       0.00012367
H        4.56288932      11.76780131       3.39284281      -0.01332980       0.00145002      -0.00724356
H        2.97506746      12.60778030       3.32084070      -0.01505941      -0.00146702       0.00677329
H        3.95942998      12.38554516       1.83486500      -0.02469698       0.00670796      -0.00104848
O        6.35656771      10.04693733      10.94051461       0.00002402       0.00226927       0.00581932
O        8.35810409       9.59666564      10.25726453      -0.00141242      -0.00113130       0.00406986
O        7.36288163      11.47386475       9.51480864      -0.00371572      -0.00661361      -0.00622487
C        5.23260729      10.96993887      11.06757913      -0.00224158       0.00062323      -0.00033054
C        4.04984830      10.25541664      11.65736646      -0.00122556       0.00124446       0.00193880
C        7.36161471      10.43383566      10.19610605      -0.00097352      -0.00293726       0.00062683
C        9.55290875       9.87649547       9.49585148      -0.00500381      -0.00804417      -0.00521201
H        5.56026296      11.75645330      11.77741130      -0.00709253       0.00668434      -0.00419790
H        4.99138212      11.36783529      10.06806517      -0.00130226      -0.00514317      -0.00268286
H        3.21473838      10.95562539      11.72589982      -0.00043833       0.00192291       0.00303707
H        3.75258466       9.42912537      11.01371916      -0.00309417       0.00139654       0.00260906
H        4.28016535       9.89364956      12.65812761       0.00037404       0.00120813       0.00162807
H        9.42858982      10.77244496       8.89176370       0.00224003       0.00119124       0.00858998
H        9.73139907       9.02538584       8.84490196      -0.02383540      -0.00029847      -0.01911093
H       10.35916926       9.95573122      10.22712400       0.00320175      -0.03067875      -0.01386531
O        4.94601107      10.42401896       7.62553496       0.01356567      -0.00537291       0.00435048
O        3.90708682      12.33543739       7.51795816       0.02220654      -0.00011438       0.01002304
O        3.45958055      10.75804194       5.94923951       0.01383644       0.00521961       0.00631928
C        5.15213083       9.09007481       7.07295921       0.00812626      -0.00529510       0.00197014
C        6.19649926       8.40264232       7.90814650       0.00759533      -0.00912227      -0.00038475
C        4.03843142      11.13876801       6.92624483       0.01626867       0.00027075       0.00670445
C        2.83920359      13.15135458       6.93343305       0.02013396       0.00243186       0.01577154
H        4.20127704       8.55821206       7.09533339       0.00640449      -0.00234097       0.00294008
H        5.46887408       9.19575506       6.03557488       0.00709033      -0.00498752       0.00158197
H        6.34465219       7.39090658       7.53132066       0.00426030      -0.00914779      -0.00188486
H        7.14907833       8.93063633       7.84682729       0.00869088      -0.01111124      -0.00179263
H        5.88774659       8.32943768       8.95016386       0.00927161      -0.00938128       0.00028773
H        3.16897693      13.59169923       5.99521446       0.01788928       0.00741285       0.01739666
H        2.61161413      13.91135181       7.67387082       0.02006119      -0.00197423       0.02025969
H        1.96119837      12.54531497       6.73703833       0.02074939       0.00207782       0.01393569
O       11.01974776       7.79004088      11.45395115      -0.00144187      -0.00097895      -0.00166209
O       10.68600101       6.78457618       9.58422403      -0.00558749       0.00398589      -0.00390046
O        9.11742179       6.57213541      11.22002211       0.00594348      -0.01414168       0.00508884
C       10.57520057       8.28301871      12.75206582       0.00218189      -0.00862908       0.00232893
C       11.66556044       9.18034114      13.26689760       0.00205782      -0.00877693       0.00346597
C       10.16703851       7.00009518      10.80944044       0.00072962      -0.00445724      -0.00020260
C        9.81456188       6.13222858       8.65417154      -0.00455493      -0.00094202      -0.00125403
H        9.63511973       8.81934418      12.60370844       0.00076127      -0.00939426       0.00817306
H       10.38697833       7.42843122      13.40093141       0.00600136      -0.01240784      -0.00147152
H       11.33798413       9.71197332      14.15841285       0.00473665      -0.01809964       0.00986914
H       12.56397866       8.61471515      13.51311637       0.00567029      -0.00751399      -0.00657701
H       11.93636010       9.93570975      12.52724513      -0.00552455      -0.00145914       0.00865507
H        9.12940475       5.47750587       9.17997632      -0.00287230      -0.00061174       0.00162114
H       10.44865341       5.58094907       7.96615056      -0.00410709      -0.00225176      -0.00001255
H        9.24403598       6.88171988       8.10290833      -0.00633094      -0.00394034      -0.00354420
O       10.31670277       9.88509091       2.77207915      -0.00280842       0.00140828      -0.00025488
O       12.35833409       9.23639869       3.14227421      -0.00249693       0.00821665       0.00911447
O       12.02267590      11.03729085       1.81574453      -0.00257748       0.00476551       0.00475216
C        9.39881341      10.87776603       2.24589507      -0.00370735      -0.00162062      -0.00513750
C        8.03295843      10.25480226       2.12452750      -0.00169164      -0.00502941      -0.00860177
C       11.61383734      10.15303831       2.51853640      -0.00231826       0.00514007       0.00384510
C       13.78022785       9.42031012       2.93310728      -0.00160796       0.01225881       0.01471105
H        9.41042695      11.72693223       2.93562904      -0.00842996      -0.00072622      -0.00556207
H        9.78173570      11.23271366       1.28945708      -0.00096598      -0.00152330      -0.00377542
H        7.31469512      11.00429437       1.78803363      -0.00301765      -0.00674355      -0.00951396
H        8.03271020       9.44481329       1.39416061       0.00184966      -0.00463845      -0.00923225
H        7.68863904       9.85046723       3.07512429      -0.00280703      -0.00637772      -0.00957358
H       14.00894908       9.35012591       1.87123692       0.00269800       0.01478106       0.01588708
H       14.25523103       8.60465671       3.47179026      -0.00155205       0.01308826       0.01550710
H       14.09927901      10.38626852       3.32091822      -0.00571734       0.01252586       0.01760331
O       12.35667350      11.03943785       7.66885619       0.00010367       0.01902568      -0.01258296
O       11.47335041      13.01205366       7.37453965       0.00282608       0.01367923      -0.01307207
O       11.76928671      11.67262208       5.55868078      -0.01021034       0.00439465      -0.03372592
C       12.99956308       9.82508524       7.06952979      -0.00084166       0.01593141       0.00197160
C       13.37347872       8.86505633       8.16174782      -0.00196713       0.01475921       0.00034270
C       11.87639224      11.87779007       6.71628380       0.00346590       0.01916240       0.03804123
C       11.20069093      14.14521097       6.47042120      -0.00463795       0.01221022      -0.00683981
H       12.26541772       9.41175128       6.38298046      -0.00261325       0.01304758      -0.00005811
H       13.84932428      10.20647371       6.50508965       0.00064304       0.01123402      -0.00231510
H       13.88656108       8.02334911       7.69303397      -0.00299332       0.01424313       0.00395922
H       14.05934205       9.30560375       8.88646994      -0.00248714       0.01707561       0.00096360
H       12.50291654       8.45972447       8.67962758      -0.00334235       0.01829207       0.00194412
H       12.15082268      14.46241409       6.04524410      -0.00835076       0.01315638      -0.01589325
H       10.75635701      14.90723882       7.10333950      -0.00593015       0.01422415      -0.01296520
H       10.51607604      13.81564645       5.69653876      -0.00871466       0.00628787      -0.00568083
O        6.98124616       2.13775853       9.74511416      -0.00441247      -0.00244540      -0.00710419
O        4.91334465       1.52315060       9.98562477      -0.00351992      -0.00468016      -0.00389487
O        5.34641147       3.66067915       9.35447624      -0.00653228      -0.00145638       0.00147989
C        7.99508868       3.19221743       9.45807986      -0.00595525      -0.00122648      -0.00843772
C        9.35143333       2.56330480       9.41233456      -0.00514835       0.00048743      -0.00717878
C        5.70221740       2.57096593       9.66087828      -0.00455195      -0.00410688      -0.00237793
C        3.46545922       1.78038281       9.88757588      -0.00394201      -0.00445145       0.00159752
H        7.68986334       3.64416584       8.51729715      -0.00669164      -0.00272365      -0.00914103
H        7.89686929       3.92664626      10.25698369      -0.00698891      -0.00030546      -0.00930624
H       10.07722208       3.33598407       9.16349135      -0.00655770      -0.00008225      -0.01352102
H        9.64109687       2.15879815      10.37699680      -0.00284739       0.00631861      -0.00530094
H        9.41095948       1.79522982       8.64080906      -0.00577238      -0.00452103      -0.00205566
H        3.24096244       2.68765501      10.43945365      -0.00156081      -0.00361764       0.00129637
H        2.97092475       0.90985464      10.30694574      -0.00192852      -0.00401004       0.00487401
H        3.21963261       1.91442829       8.83905823      -0.00829465      -0.00577230       0.00242487
O        3.05820410       5.43679217       9.75611893      -0.00694664      -0.00186425      -0.00339430
O        2.30182411       4.21003366       8.14810968      -0.00390781      -0.00550598      -0.00237752
O        3.77575108       5.85774499       7.64972039      -0.00527042      -0.00403124      -0.00364131
C        4.00106896       6.41984200      10.23799225      -0.00793934      -0.00070326      -0.00394106
C        3.87357405       6.46962375      11.73594203      -0.00689940      -0.00101256      -0.00376666
C        3.11001529       5.23293757       8.43893390      -0.00560313      -0.00404388      -0.00336546
C        2.28870957       3.83056273       6.76031141      -0.00419234      -0.00918424      -0.00257201
H        5.00117243       6.12079663       9.92091215      -0.00778139       0.00056092      -0.00461254
H        3.76788511       7.37943312       9.77130509      -0.00925235      -0.00075683      -0.00366710
H        4.61269575       7.15853776      12.14652793      -0.00825940       0.00063871      -0.00409694
H        2.88106330       6.80727681      12.03297766      -0.00754748      -0.00332747      -0.00308779
H        4.04898879       5.48520333      12.17180604      -0.00375171      -0.00067440      -0.00414275
H        1.87128974       4.63286308       6.15339981      -0.00678210      -0.00987932      -0.00246873
H        1.66854097       2.94095321       6.70160493      -0.00024223      -0.01090917      -0.00052774
H        3.30173237       3.61467187       6.42128153      -0.00264212      -0.00359176      -0.00221870
