193
Lattice="13.822386648270346 0.0 0.0 0.0 13.822386648270346 0.0 0.0 0.0 13.822386648270346" Properties=species:S:1:pos:R:3:forces:R:3 energy=-1685784.25 stress="-0.0002093813382089138 -0.0008119814738165587 0.0005441258253995329 -0.0008119814738165587 -0.0010744077153503895 -9.617707473807968e-05 0.0005441258253995329 -9.617707473807968e-05 -0.0027651451528072357" pbc="T T T"
Ac       7.06115523      13.93419901      11.98896152       0.00386088       0.00051624       0.00339848
Ac       5.38387641      13.42617456       7.52390116       0.00770463      -0.00530865      -0.01672120
S       13.26386925      13.75685946       9.58636212      -0.01416048       0.01183251      -0.01329992
S       11.77750397      12.68701067      10.40046001      -0.01672441       0.01947641      -0.00655359
O       12.76760471      14.49437149       8.42601592      -0.00569731       0.00268972      -0.01679611
O       14.25312103      12.65862715       9.01904212      -0.01565814       0.00404400       0.00299487
O       13.99388440      14.51804245      10.56811828      -0.01485032       0.02288330      -0.01216733
S        7.42829262      11.32010564       5.88458629      -0.00278025      -0.00397211      -0.00297427
S        8.22926304      12.31943798       7.63515676       0.00891355      -0.02221656      -0.01247002
O        8.16522837      12.02260514       4.86774022      -0.03161210      -0.00744501      -0.01296327
O        5.99314048      11.78729054       5.91269028      -0.00611839      -0.01448572      -0.01209156
O        7.54806903       9.91197851       6.03519916      -0.04066328      -0.01483995      -0.01555369
S        6.00683333      11.77670862      13.71514235       0.00323604       0.00356450      -0.00167283
S        4.63685372      11.87639377      12.24440864      -0.00241417       0.01104346       0.00352073
O        5.79301824      10.79613680      14.73672238      -0.00857477       0.00404012       0.00345296
O        6.11877800      13.18920524      14.23071773       0.01471885      -0.00054687      -0.00048968
O        7.31211160      11.55706701      12.98815184      -0.00252444      -0.01013072      -0.00272942
O        7.48501781       4.05538619       6.12351032       0.00138921      -0.00297404       0.00280868
O        8.70620162       5.81466590       6.77601939      -0.00248210      -0.00480062       0.01541102
C        9.77002909       4.11394276       5.48782366       0.00242549       0.00300646       0.00935212
C        8.61415068       4.74775629       6.18418201       0.00019896      -0.00209379       0.00926402
H       10.40760739       3.61625353       6.22306216       0.00082038      -0.00006481       0.00850500
H        9.44688241       3.38239396       4.75414977       0.00516619       0.00683717       0.00423883
H       10.38643802       4.87189874       5.01681928       0.00288285       0.00596905       0.01493423
H        6.74484949       4.58469167       6.56323818      -0.00082518      -0.00532416       0.00148280
O        6.67486047       7.34727277       7.27350901      -0.00028139      -0.00852999       0.02756843
O        5.48771079       5.45257909       7.11759982      -0.00278362      -0.00390494      -0.00549333
C        4.35398764       7.56516364       7.01326690       0.00229096      -0.00185961       0.00231942
C        5.55468467       6.67961447       7.14676695      -0.00067818      -0.00462121       0.00828088
H        4.40610157       8.37790400       7.73442166       0.00211548       0.00211269      -0.00230722
H        4.37204524       8.01977726       6.02035361       0.00562479      -0.00830333      -0.00062135
H        3.43936563       6.99208236       7.13771996       0.00062110       0.00068237       0.00184536
H        7.46135727       6.72658867       7.15996535      -0.00123570      -0.00893006       0.02385968
O       12.88575974       9.59949373       8.37673951       0.01623148      -0.00365999       0.00830743
O       10.68442413       9.78289438       8.72178466       0.01453739      -0.00491419      -0.00329459
C       11.72901157      11.30373527       7.20807147       0.01835008      -0.01131976      -0.00540555
C       11.71795093      10.17166835       8.17252524       0.01590353      -0.00697288      -0.00042015
H       12.72838904      11.50484830       6.83512229       0.01666965      -0.02212102      -0.01551323
H       11.05167928      11.05750076       6.39084291       0.00632650      -0.00529825       0.00301468
H       11.34822868      12.18566439       7.72015814       0.03300732      -0.00585434      -0.00325900
H       12.79577760       8.90061674       9.09284391       0.01382515      -0.00089421       0.01064542
O        7.39399987       7.52962748       3.94240993      -0.02845439      -0.00573146      -0.01067859
O        6.74762602       7.49575101       1.79783483       0.00069511      -0.02424926      -0.01949430
C        7.93394215       9.41475497       2.64510201      -0.00062087      -0.02199018      -0.02036130
C        7.31147846       8.05759261       2.72185578      -0.00846052      -0.01711422      -0.01556337
H        7.14244653      10.13983868       2.84469284       0.00296097      -0.01634391      -0.02778357
H        8.70349289       9.54647461       3.39981393      -0.00486803      -0.02374531      -0.01550166
H        8.31156189       9.58427774       1.63920255       0.00718549      -0.02857547      -0.01838015
H        6.77074305       6.76603698       3.97372686      -0.02654600      -0.00813262      -0.01064339
O        4.89294966       3.98081766       1.83099654       0.02686727      -0.00243315       0.00194317
O        6.06383893       2.57421023       0.54434383       0.01978174       0.00038715      -0.00661041
C        4.43787055       1.70103800       2.11547531       0.01185259      -0.00173557      -0.01874095
C        5.21782988       2.75973967       1.41303950       0.02129301      -0.00055116      -0.00790495
H        3.40521789       2.02063608       2.24801758       0.00642866      -0.00689454      -0.04809733
H        4.50153825       0.75839457       1.58158543       0.03179878      -0.00388256      -0.01297998
H        4.86096286       1.57159429       3.11462019      -0.01493178       0.00862338      -0.00601518
H        5.49829073       4.64213478       1.45561295       0.03203839      -0.00263244       0.01034427
O       11.50091162       8.51045872       3.45740278       0.00028875       0.00546724       0.00474679
O       10.39108267       9.90557308       4.80808881      -0.01596516      -0.00693309       0.00257483
C       11.11405388       7.80301259       5.69140942       0.00153010      -0.00014132       0.00249350
C       10.94671825       8.84448868       4.63789633      -0.00683445       0.00109780       0.00361207
H       11.25834758       6.81405841       5.26682811       0.01395039       0.00250450       0.00111240
H       12.00448332       8.05125331       6.27626590      -0.00307493       0.00850059       0.00554140
H       10.25554065       7.81873065       6.35566432      -0.00046630      -0.01069881      -0.00000259
H       11.41756829       9.29704805       2.88023095      -0.00310653       0.00609034       0.00590914
O       10.50254970       7.86335767      10.40094606       0.00882000       0.00276041       0.00403962
O       12.73671487       7.78937129      10.26938716       0.00938511      -0.00062686       0.01013845
C       11.61798841       6.28541863      11.75264186       0.00153293       0.00144386       0.00719571
C       11.67548339       7.38192338      10.73994671       0.00637630       0.00094932       0.00786525
H       11.15795836       6.66726905      12.66568086      -0.00556991       0.00077377       0.00378026
H       10.99606883       5.47003363      11.38118270       0.00509544       0.00080609       0.00254034
H       12.61026192       5.90254792      11.96349167       0.00032118       0.00231084       0.01374356
H       10.62226347       8.62006087       9.72065347       0.01121387       0.00013193       0.00200137
O        8.84557683       1.08486611       5.71711102       0.02030754      -0.01945299      -0.00963080
O        6.62677428       0.93181730       5.82493056       0.02079749      -0.00298373       0.00636009
C        7.68855706       1.10028697       3.67776576      -0.00543106       0.01036822       0.00018108
C        7.66255118       1.02516490       5.15695638       0.01614818      -0.00277172      -0.00172414
H        8.69197053       0.93438251       3.29985722      -0.01117900       0.01138338      -0.00971562
H        7.02020848       0.34652529       3.26349567      -0.01171380       0.01501006       0.00289063
H        7.33547103       2.08804831       3.37255865      -0.00652985       0.01350221       0.01594561
H        8.76874812       0.96237035       6.67916345       0.02346835      -0.02753863      -0.00831127
O        4.82232261       7.20209118      10.16650295      -0.00430024       0.01803160       0.00563307
O        3.76398148       5.22778247      10.17406428       0.00446755       0.01522350       0.00813266
C        2.46712068       7.25348864      10.31619926      -0.00366771       0.00894132       0.00487483
C        3.71100721       6.43336637      10.20718245      -0.00045928       0.01070756       0.00689248
H        2.46274244       7.78315471      11.27040879      -0.00558544       0.01194674       0.00298657
H        2.43661165       8.01239699       9.53455361      -0.00649436       0.00647864       0.00269112
H        1.58919141       6.61986121      10.24701610      -0.00155061       0.00594781       0.00692644
H        5.57817683       6.60125409      10.09792052      -0.00050128       0.02228880       0.00795701
O       11.49188313      13.39159043      13.69358427      -0.00024182       0.02533054      -0.00068498
O        9.40345985      13.52789401      12.95263543      -0.00329980       0.00497375       0.00791680
C       10.43797793      11.35206896      13.16294015       0.01164774       0.01501441       0.01259845
C       10.38348357      12.83358096      13.24684416       0.00105575       0.01570241       0.00658116
H       11.19845565      11.07985709      12.42878294       0.00580055       0.01799024       0.00554061
H       10.75814404      10.92704530      14.11472553       0.02373200       0.02048136       0.01068950
H        9.47726582      10.94326053      12.87765123       0.01157299       0.00760844       0.02310986
H       11.45002267      14.34919681      13.53125853      -0.00695404       0.02385026      -0.00845146
O        3.58948384       6.74491121       3.54184695       0.00509191      -0.00837153       0.01585281
O        5.47348427       5.70745306       4.20440484       0.00261694      -0.02573726      -0.00435235
C        3.35662237       4.67098400       4.61318803      -0.00157070      -0.01519179      -0.00119925
C        4.26261474       5.74508405       4.10313840       0.00222862      -0.01667605       0.00342329
H        2.76848266       5.05538155       5.44854845       0.00136133      -0.01825266       0.00210461
H        2.65737701       4.36863335       3.83300930      -0.00385256      -0.00668620      -0.00234859
H        3.94201953       3.82954137       4.96810278      -0.00511225      -0.02044088      -0.00809845
H        4.13888205       7.54030612       3.32370815       0.00794894      -0.01193063       0.01011226
O        9.51861315       0.83657528      10.42615699      -0.01033424       0.01985800       0.01397041
O       11.00863859       2.19081505      11.45062682      -0.00778961       0.01180431       0.03490432
C        8.70862034       2.84156474      11.38919948      -0.01071993       0.02118951       0.01248053
C        9.89344573       1.94906554      11.08350995      -0.02140641       0.01491933       0.01837928
H        7.84998830       2.65835058      10.73652037      -0.00986795       0.01950448       0.00933667
H        8.42541302       2.70633952      12.44322139      -0.01181806       0.03052209       0.01329446
H        8.99701942       3.88588329      11.30170660      -0.00595990       0.01949522       0.00508428
H       10.35453511       0.19514075      10.34673466      -0.00964582       0.01910155       0.01162087
O        3.18750533      10.80162427       1.66694333      -0.00679269      -0.01618862       0.01443821
O        4.11641621       9.30590473       3.04303183       0.01329339      -0.01964890      -0.00386858
C        3.69095843       8.68300578       0.75960356      -0.00956404      -0.00881892      -0.00278562
C        3.71312127       9.60190863       1.93182796       0.00045991      -0.01605040       0.00265592
H        2.78633111       8.07306392       0.82031194      -0.01058453      -0.00714140      -0.00044530
H        3.68399126       9.24833122      -0.16809988      -0.01568556      -0.00254627       0.00115110
H        4.56799627       8.04076405       0.81025476      -0.01089773      -0.01119594      -0.01341370
H        3.30331037      11.36524939       2.44515301       0.00147139      -0.02097374       0.01652485
O        1.52107021       2.93562561      14.04330622       0.00200623      -0.01506025      -0.00067984
O       -0.44394702       3.99985436      14.12528729       0.00840837      -0.01546818       0.01198810
C        1.54300071       5.25851807      13.59141564      -0.00019082      -0.01325792       0.00783140
C        0.74797646       4.03949809      13.93051596      -0.00467408      -0.01619610       0.00821792
H        2.19691440       5.49388580      14.43348553       0.00092719      -0.01489899       0.00687477
H        2.18202698       5.08066939      12.72714961      -0.00251766      -0.01054733       0.00628701
H        0.87243420       6.09378558      13.41486744      -0.00212580      -0.01400515       0.01247601
H        0.91923697       2.20138315      14.24197472       0.00229645      -0.01568085       0.00128652
O        6.02625953      11.15286430       8.66934803       0.00490189      -0.00800952       0.00656593
O        6.81846495      13.00743028       9.72955099       0.03239387      -0.01545340       0.01093537
C        8.00473497      10.89703152      10.04405489       0.01120564      -0.01949167      -0.00912979
C        7.20080423      11.82383854       9.17807163       0.00491315      -0.01681545       0.00821716
H        7.39044423      10.56999361      10.88265313       0.01555319      -0.00905354      -0.00503133
H        8.33994476      10.04229016       9.46357022      -0.00460520      -0.02233993      -0.01075168
H        8.89056569      11.41387043      10.41826830       0.01751076      -0.02608065      -0.01831333
H        5.62692620      10.67141398       9.41079230       0.00437132      -0.00194901       0.00942957
O        4.35441384       3.54188580      12.50753807       0.00792873       0.01731533       0.00836101
O        5.11016371       1.73818293      11.47492515       0.01540729       0.00135408       0.00414510
C        2.81405320       2.43889239      11.12057579       0.01513439       0.01117376       0.01625289
C        4.17794895       2.53468222      11.68279940      -0.00191464       0.01606561       0.02550048
H        2.35769019       3.42119498      11.06937979       0.01199631       0.01562038      -0.00872783
H        2.76953945       1.98078464      10.14381976      -0.02051788       0.00431657       0.01259622
H        2.21658700       1.81439181      11.78519663      -0.00313759       0.01666272       0.01114544
H        5.21420791       3.41254128      12.96169718       0.00563037       0.00834188       0.00119753
O        0.25787207      10.67532593       1.15043221      -0.00487481      -0.00168988      -0.01348853
O        0.72186859      12.55206384       2.27796357      -0.02244712      -0.00158501      -0.00795165
C        0.64118232      10.47235616       3.47685754      -0.02939102      -0.00170991      -0.00969672
C        0.54339493      11.35352348       2.26951399      -0.01893674      -0.00044239      -0.01002353
H        0.33664617       9.45608901       3.25302961      -0.03465024       0.00048494      -0.01186608
H        1.67200772      10.46242080       3.83578127      -0.03109348      -0.00781892      -0.00548915
H        0.03147932      10.88696485       4.27806563      -0.03095536       0.00119382      -0.01266995
H        0.23648608      11.32169941       0.42946282       0.00510406      -0.00143427      -0.01360115
O        7.26214847       8.61017280      12.70920001       0.00308922       0.01306236      -0.02212901
O        9.27264594       8.25644993      13.65237783       0.00222039       0.01480746      -0.02123189
C        8.08071856       6.41297273      12.66624367      -0.00597365       0.00859582       0.00325824
C        8.29117338       7.83848286      13.08496506       0.00031936       0.01273310      -0.01413792
H        7.09409288       6.07671884      12.98333307      -0.01216720       0.02037038      -0.00441353
H        8.13331614       6.36543625      11.57627984       0.00864756      -0.00734467       0.00442034
H        8.85501748       5.78375400      13.09433914      -0.01541750       0.01015157       0.02271754
H        7.41114659       9.51952678      13.02937744       0.00916278       0.01796848      -0.03697199
O        0.09673909       5.39238068       2.66672364      -0.00133771       0.01791149      -0.00837368
O       -1.09039627       4.85890103       4.49354670      -0.00440294       0.00656271      -0.01431763
C        0.36989359       6.77484301       4.54293822       0.00320458      -0.00069171       0.00415793
C       -0.28342618       5.57303678       3.94754723      -0.00178450       0.00739682      -0.00762168
H        1.37978268       6.91135138       4.16668475       0.00402229      -0.00185043       0.00642662
H       -0.22863345       7.63162549       4.23072578       0.00763865       0.00513868       0.01224086
H        0.35199354       6.71661470       5.62545871       0.00216674      -0.01136158       0.00335312
H       -0.45951437       4.70387529       2.26594253      -0.00087208       0.02061912      -0.01523563
O        9.66736306      12.46097394       2.41002499      -0.00326368      -0.00377709       0.00509575
O       11.42211710      11.06984888       2.38557213       0.00605249       0.00720322       0.01363702
C       11.50535150      13.04262762       3.75833714      -0.00813437       0.01537049       0.00295234
C       10.89849445      12.08421750       2.79513674      -0.00206354       0.00794744       0.00789313
H       11.32277425      14.07181568       3.45344809      -0.01832075       0.01276724       0.00047101
H       11.01117100      12.89067150       4.72009834      -0.00466189       0.01400494       0.00455743
H       12.57043786      12.86485112       3.85774435      -0.00630462       0.02490196       0.00111637
H        9.24796738      11.71844019       1.94806903       0.00200122      -0.00862336       0.00846127
O        3.10123305      13.32324692       7.14145767       0.01990521       0.00973317      -0.01850820
O        1.04799632      12.82700492       6.42519482       0.00784624       0.00188547       0.02471334
C        2.77918500      13.19564284       4.80499492      -0.02565932      -0.00372200      -0.00952178
C        2.21849983      13.10964192       6.20893924       0.00287062       0.00491432       0.00000125
H        3.43040149      14.07048404       4.71713339      -0.03568837       0.00057745      -0.03014972
H        3.41612438      12.31757361       4.64347840      -0.02285247      -0.00076649      -0.01382299
H        2.00240781      13.22535933       4.04571231      -0.04099342      -0.01738226       0.00760089
H        0.60316639      12.79365205       8.03980204       0.00087277       0.00537646       0.00481830
O       12.60247225       3.27623880       8.34207005       0.00888550       0.00542885      -0.01123443
O       14.78806690       3.32783965       7.79611615       0.01128626      -0.00028408      -0.01372615
C       13.54990496       5.38366452       7.99672260       0.01556052       0.00308192      -0.00191452
C       13.73771536       3.89412812       8.02143078       0.00715637       0.00498021      -0.00771901
H       12.69690773       5.63987844       7.36734242       0.02444489       0.00748305      -0.01224804
H       13.32995606       5.74566765       9.00166207       0.00243665      -0.00112267      -0.00339985
H       14.45099634       5.87084627       7.63584238       0.02119082       0.00266327       0.01192004
H       12.76075282       2.29581930       8.39436698       0.00402489       0.00442350      -0.01646804
