199
Lattice="13.20186007192599 0.0 0.0 0.0 13.20186007192599 0.0 0.0 0.0 13.20186007192599" Properties=species:S:1:pos:R:3:forces:R:3 energy=-154243.328125 stress="-0.0013931054854765534 2.8168100470793433e-05 -4.227073077345267e-05 2.8168100470793433e-05 -0.0007402713526971638 -0.00032833177829161286 -4.227073077345267e-05 -0.00032833177829161286 0.0005921695264987648" pbc="T T T"
N       11.03433325      12.06326113      11.10378570      -0.01452293       0.00227797       0.01061791
H       10.86975919      12.82053735      10.43433307       0.01491118      -0.00062209       0.01431039
H       11.31082103      12.92156884      12.31824131      -0.00086828      -0.01684505       0.01001958
H       10.24797087      11.42843210      11.14636320      -0.01457176       0.01966873       0.00703925
H       11.86562876      11.54974245      10.84007654      -0.01165122      -0.02293572       0.01116614
N        9.45079213      11.11891208       5.54719065      -0.00599277      -0.01739191      -0.01914082
H        9.93934226      10.66898952       6.34224933      -0.00872841      -0.02322620      -0.02364039
H        9.03772863      10.44987638       4.88130041      -0.00146809      -0.00872147      -0.03512132
H        8.69791006      11.68396759       5.92681450      -0.01435393      -0.02674741      -0.01885399
H       10.10545807      11.74685973       4.97341139      -0.00839853      -0.01069134      -0.00866881
O        9.68778390       0.64050786       1.79576356      -0.00442445       0.02785319      -0.01607555
O       11.02454340       2.86172212       0.98742543       0.01759470      -0.00152773      -0.01776214
O        9.20631624       1.57920815      -0.59786039       0.01604611       0.00058889      -0.02061629
O       11.54924849       0.39056962      -0.10393954      -0.00077920      -0.01813911       0.01578279
Cr      10.31983347       1.38715600       0.52459270       0.00259203      -0.00726812       0.01542769
Cr      10.84613379       4.45124132       1.87713794       0.02748141      -0.00119531       0.00254089
O       11.98044726       5.45049371       1.31439560       0.00175011      -0.00642693       0.00695273
O        9.38852989       5.03187586       1.59675460       0.00406420      -0.00392246      -0.01372786
O       11.04482190       4.21787407       3.44374296      -0.00110970      -0.01331878      -0.02093911
O        1.35085904       6.43386265       8.03707789      -0.00496244       0.00311051      -0.00171220
C        2.49510032       6.51118070       8.89171206      -0.00453579       0.00024280      -0.00238705
C        3.71283519       7.02839530       8.15671183      -0.00368118       0.00036168      -0.00097066
C        2.17981777       7.36619370      10.11071152      -0.00367332      -0.00232738      -0.00042713
H        2.69802921       5.48789032       9.23310284      -0.00546361      -0.00062984      -0.00438835
H        4.58018279       7.03654375       8.81735868      -0.00405668      -0.00161092      -0.00074105
H        3.94930745       6.40331457       7.29447928      -0.00377827       0.00167681      -0.00201812
H        3.53796422       8.04839925       7.80689980      -0.00261025       0.00124077       0.00063028
H        3.00908628       7.34248114      10.81901567      -0.00435904      -0.00575044       0.00009632
H        1.28666236       7.00557867      10.62167248      -0.00473872      -0.00193009      -0.00233925
H        2.00959509       8.40219175       9.81017857      -0.00154240      -0.00111611       0.00217276
H        1.52008232       6.92037048       7.21713870      -0.00511964       0.00231546      -0.00231998
O        7.14107187       3.05629694      11.15558720       0.00894773      -0.00161974       0.00763935
C        6.33465175       1.99927305      10.62139738      -0.00090386       0.00406092       0.00114019
C        7.14251919       1.14611064       9.66214673      -0.00240374       0.00660771      -0.00145370
C        5.71083498       1.18397802      11.73862143       0.00226125       0.00107837       0.00007254
H        5.54625546       2.51456594      10.06268026       0.00148067       0.00673011       0.00533950
H        6.49001400       0.41679050       9.17962624      -0.00376747       0.00873552      -0.00362887
H        7.61607223       1.76857341       8.90422732      -0.00414236       0.01169229       0.00132762
H        7.91942918       0.60380079      10.20730213      -0.00228803       0.00305635      -0.00653636
H        5.05324724       0.41184810      11.33371828       0.00186712       0.00198744      -0.00234062
H        5.11261874       1.81903470      12.39009136       0.00269008      -0.00008397       0.00176157
H        6.49556235       0.70114566      12.32742267       0.00265291      -0.00058566      -0.00248355
H        7.81531460       2.66233334      11.73004759       0.00140267       0.00219442      -0.00439220
O       12.04122722       7.89500181       2.62046608       0.01013005      -0.00159544       0.00361753
C       11.55258904       8.77671469       1.61052266       0.01042062       0.00082141       0.00635612
C       12.66086890       9.17909615       0.64702158       0.00748622      -0.00385442       0.00044510
C       10.38501675       8.15504084       0.85509358       0.00582647       0.00365585       0.01017293
H       11.21122951       9.66805562       2.15128641       0.01630211       0.00217617       0.00736785
H       12.30729340       9.94954889      -0.04502817       0.00725888      -0.00125307       0.00365710
H       13.52719611       9.56845287       1.17863107       0.01170464      -0.00811628      -0.00346565
H       12.98296477       8.31241785       0.06496289       0.00017091      -0.00422768      -0.00193918
H        9.94498790       8.87719809       0.16368735       0.00892847       0.00313272       0.00780009
H        9.61382965       7.78187344       1.53416793       0.00406373       0.00995888       0.01225698
H       10.72635052       7.29246516       0.28140010       0.00062202      -0.00005576       0.01398015
H       12.10798903       7.00952960       2.21405458       0.00886329      -0.00007719       0.00337528
O       11.01391007      -0.57933626       4.01551849      -0.00173065      -0.00453461      -0.00553262
C       11.44557462       0.68992996       4.58452376      -0.00133968      -0.00856298      -0.00743815
C       12.44927216       1.33271831       3.65336825       0.00221452      -0.00600675       0.00196490
C       10.23792850       1.56758641       4.83746049       0.00430137      -0.00804454       0.00619939
H       11.93242362       0.41749756       5.52476631       0.00100210      -0.01905280      -0.00509661
H       12.65767299       2.35782185       3.96166438       0.00331091      -0.00814839       0.00593168
H       13.37295148       0.76106190       3.61760591       0.00120270      -0.00697844      -0.00196335
H       12.03953530       1.40989169       2.64909586       0.00302974       0.00012107       0.00006257
H       10.53714472       2.54935091       5.20147679       0.00748762      -0.01155032       0.01115052
H        9.55342604       1.11176955       5.56030744       0.00448254      -0.01092234       0.00368402
H        9.70807339       1.72806603       3.90198055       0.00188373       0.00029241       0.00697444
H       10.59176681      -0.35110693       3.16472657      -0.00738281       0.00701806      -0.01512122
O        5.44114399       3.27784186       5.02257751       0.00575349       0.01348021      -0.00403786
C        6.09974175       3.65757623       3.80597949       0.00256768       0.00651300      -0.00781354
C        6.01505802       5.15648758       3.57616457       0.00906027       0.00628901      -0.01130665
C        7.52315107       3.15082514       3.80016769      -0.00032294      -0.00035781      -0.01262524
H        5.53251320       3.14515876       3.02301604      -0.00347233       0.00743270      -0.00395396
H        6.50798155       5.42619014       2.64073888       0.00584103       0.00222352      -0.01419640
H        4.97537395       5.48205318       3.53958180       0.01080397       0.01174732      -0.00652253
H        6.51720158       5.69556208       4.38304418       0.01626676       0.00522869      -0.01551877
H        8.03937612       3.40739183       2.87522686      -0.00471956      -0.00856576      -0.01699680
H        7.53854406       2.07032933       3.93938995      -0.00403097       0.00044060      -0.00688686
H        8.09459546       3.61850408       4.60975488       0.00729043       0.00137668      -0.01941995
H        6.01118712       3.52448430       5.75911924       0.01295960       0.00539868      -0.00742064
O        8.31711726       9.98818590       3.14751042       0.01033399      -0.00837731       0.00565794
C        7.50964311      10.84702112       2.30757225      -0.00015202       0.00367028       0.01793911
C        7.27629110      12.10685986       3.11238787      -0.00317534       0.00594187       0.00973234
C        8.18603212      11.11017103       0.97245778      -0.00369003      -0.00284065       0.01691496
H        6.54782772      10.34815760       2.12771330       0.00252634      -0.00225988       0.02574719
H        6.68900027      12.82413975       2.54132089      -0.01097071      -0.00575449       0.00581695
H        6.73842561      11.87712133       4.03550381       0.00094865       0.01474153       0.01413690
H        8.22659637      12.58710983       3.34446807      -0.00668550       0.01766706       0.00007827
H        7.68013125      11.92086582       0.44485568      -0.01611423      -0.01880358       0.00659190
H        8.15816704      10.22093689       0.33963867       0.01209094      -0.01088098       0.03048241
H        9.22347999      11.40998974       1.12338448      -0.00973919       0.01644951       0.01244345
H        8.58976725       9.21643913       2.63826575       0.01655566       0.01981264       0.02102074
O        2.60786418       2.53014728      11.52967769      -0.00986648      -0.00449800       0.00839001
C        1.99883560       3.48513415      12.41377735      -0.00797938      -0.00363672       0.00851941
C        2.97025400       4.60688171      12.73581414      -0.00638795      -0.00485104       0.00834994
C        0.68722658       3.99337953      11.83837534      -0.00701737      -0.00141194       0.00921530
H        1.78643718       2.91348213      13.32175033      -0.00803028      -0.00356314       0.00850880
H        2.51218210       5.33105491      13.41213718      -0.00493996      -0.00516650       0.00951545
H        3.87929561       4.21723359      13.19587626      -0.00641061      -0.00642510       0.00705376
H        3.26926568       5.13295751      11.82584834      -0.00700802      -0.00435176       0.00847808
H        0.20189318       4.68708101      12.52739369      -0.00602854      -0.00116052       0.00981225
H        0.00721279       3.15970653      11.65872625      -0.00841357      -0.00052428       0.00941102
H        0.86449145       4.50915514      10.88934854      -0.00723281      -0.00167695       0.00935148
H        2.95557096       3.02641746      10.78108304      -0.00951530      -0.00434600       0.00766478
O        1.48140003       1.62727368       5.83724001       0.01014096      -0.00543715       0.00247283
C        2.52123379       2.55142309       5.46946791       0.00368108      -0.00085390       0.00062300
C        2.41819113       2.93580711       4.00255189       0.00192598      -0.00126424       0.00101817
C        2.48816922       3.77134355       6.37019222       0.00102884      -0.00100374       0.00065935
H        3.44683936       2.00293757       5.63368719       0.00680411       0.00256833       0.00009964
H        3.25448108       3.57683879       3.72551788      -0.00085084       0.00192027       0.00060863
H        2.42766511       2.05088102       3.36484308       0.00483774      -0.00112715       0.00083085
H        1.49538205       3.49074321       3.81126297      -0.00028825      -0.00479324       0.00154433
H        3.33527177       4.42042759       6.14639714      -0.00034201       0.00079155       0.00083764
H        2.53578057       3.48020504       7.42072612       0.00148802      -0.00087924       0.00047433
H        1.57105237       4.34586150       6.22235332      -0.00031060      -0.00313517       0.00032417
H        0.65228658       2.00919733       5.53491936       0.00516935      -0.00823951       0.00145740
O        8.48804038       3.65765913       7.70789197      -0.00535371      -0.00138640      -0.01900715
C        8.34589436       5.08198229       7.83038723       0.00258774      -0.00214911      -0.01015818
C        9.29742609       5.79031419       6.88222196       0.00347486      -0.00034139      -0.00690082
C        6.90419343       5.50222329       7.61611735       0.00422060       0.00620513      -0.00202332
H        8.61896191       5.29552980       8.86845025       0.00647315      -0.01038411      -0.00876868
H        9.13931708       6.86902789       6.91721126       0.00900282      -0.00015338       0.00059465
H       10.33883459       5.57456185       7.12478322       0.00314821      -0.00678331      -0.01108865
H        9.11934624       5.46903750       5.85133237      -0.00038529       0.00742291      -0.00854813
H        6.78148259       6.57456521       7.78217455       0.00965625       0.00503132       0.00766331
H        6.24205789       4.97597507       8.30306799       0.00348787       0.00348049      -0.00514007
H        6.59628359       5.30163371       6.58644342      -0.00001230       0.01655942      -0.00264545
H        8.60889076       3.45997647       6.77308620       0.00360319       0.00468624      -0.02121253
O       11.12399401       1.35934069       9.77221205      -0.02800453       0.02424523       0.01336911
C       12.24994745       1.71614703       8.94327249       0.00330494      -0.00834733       0.00843406
C       12.72564074       0.42344602       8.31474398       0.00660643      -0.00107640       0.00498469
C       11.83596513       2.76111740       7.92944229       0.00877932       0.00077879       0.01448691
H       13.05036655       2.11720339       9.57603078      -0.00545615      -0.01041237       0.02057913
H       13.54205047       0.61170694       7.61803972       0.00983275       0.00040994       0.01455830
H       13.08509480      -0.26675201       9.08056591      -0.00209481      -0.00745157       0.00536485
H       11.90089846      -0.04993540       7.77387306       0.00831081       0.00262818      -0.00299636
H       12.67440022       3.02903422       7.28474561       0.01545733       0.00319806       0.02274314
H       11.49430474       3.67130852       8.42643917       0.00656446      -0.00169902       0.01659574
H       11.01195747       2.38574054       7.32498368       0.01435228       0.00553572       0.00514789
H       10.69421121       2.15876309      10.09579695       0.01444433      -0.04759058      -0.00006824
O        5.86676835       5.51119466      10.92893668      -0.00171989       0.00056708       0.00578770
C        6.72734475       6.53304146      11.42453468      -0.00171694       0.00321859      -0.00078148
C        5.88682600       7.52410871      12.21004575      -0.00171292       0.00616175      -0.00384045
C        7.84909317       5.95386957      12.26213134       0.00012773       0.00854632       0.00001800
H        7.17149838       7.06167958      10.56291719      -0.00382143      -0.00051287      -0.00394714
H        6.50084898       8.35770101      12.55930518      -0.00263478       0.00880320      -0.00844881
H        5.07793920       7.92557301      11.59860800      -0.00337628       0.00096446      -0.00455396
H        5.44514450       7.02848926      13.07695186       0.00055311       0.00948767      -0.00113818
H        8.49070796       6.73926157      12.65949381      -0.00021627       0.01123269      -0.00493219
H        8.46944898       5.27477714      11.67504217       0.00008034       0.00647843       0.00242816
H        7.44774253       5.39305111      13.10702822       0.00221884       0.01188256       0.00334689
H        6.33420983       4.66157901      11.02933319       0.00071704       0.00112163       0.00620218
O       10.64340325      10.17652123       7.91804847      -0.00668417      -0.00365549      -0.01813442
C       11.09001931       8.84153745       8.28665371       0.00160425       0.00280045      -0.00813538
C       12.52302072       8.87481016       8.75669353       0.00048429       0.01504394      -0.00721592
C       10.16011338       8.22720728       9.31742682       0.00318924       0.00546253      -0.00489640
H       11.02403678       8.27929562       7.35312964       0.00588708      -0.00468731      -0.00352383
H       12.89960344       7.86204829       8.89391918       0.00664237       0.01857510      -0.00132849
H       13.16395541       9.36322640       8.02254908      -0.00271147       0.01601630      -0.00942755
H       12.60445345       9.39688428       9.71618258      -0.00381684       0.02068708      -0.01015362
H       10.46738046       7.20172226       9.53111800       0.00551246       0.00759140       0.00091511
H        9.12770496       8.20749376       8.96752100       0.00334038       0.00141344      -0.00507532
H       10.20187721       8.78401289      10.25816349       0.00087286       0.01091284      -0.00802478
H       10.89770829      10.78615117       8.62088800      -0.00720032       0.00441635      -0.02519274
O        1.14894073       7.81036511       5.36968982      -0.01322967       0.00418460      -0.00099322
C        1.89310186       8.35759119       4.26358919      -0.00758243       0.00015906       0.00077633
C        3.02627141       9.16730580       4.86016568      -0.00481042      -0.00624433       0.00373441
C        2.38382010       7.24743821       3.35296111      -0.01168302      -0.00185740       0.00112763
H        1.22610492       9.01674619       3.69801415      -0.00266412       0.00404549      -0.00040358
H        3.59864565       9.66125661       4.07157209      -0.00128255      -0.00743042       0.00559343
H        2.63847628       9.93352822       5.53272037      -0.00221364      -0.00590570       0.00468804
H        3.70933200       8.52016340       5.41382099      -0.00858552      -0.01034869       0.00331205
H        2.94066310       7.65435603       2.50574700      -0.00770346      -0.00446154       0.00247815
H        1.54395994       6.67832847       2.95153284      -0.01397818       0.00328176      -0.00079853
H        3.03407731       6.57131629       3.91071089      -0.01647041      -0.00586883       0.00184582
H        0.35035989       7.42086093       4.99506295      -0.01472601       0.00976823      -0.00373091
O        6.15095374       9.43836601       7.66782659       0.00594696       0.00745502      -0.00650501
C        6.29857402       9.87910719       9.02802888       0.00132045       0.00232270      -0.00529143
C        7.48069505      10.82586591       9.12913108      -0.00092071       0.00462854       0.00088246
C        5.02061715      10.50192156       9.55477218      -0.00078279      -0.00320825      -0.00479713
H        6.51657166       8.97039857       9.59737702       0.00286590       0.00052363      -0.00843444
H        7.63819179      11.14752019      10.16205548      -0.00395585       0.00016776       0.00292259
H        8.38692555      10.34676459       8.76466908       0.00040188       0.00837108       0.00057182
H        7.29677573      11.72054005       8.53117387      -0.00187793       0.00637898       0.00437170
H        5.14102455      10.79835606      10.59818093      -0.00370223      -0.00782373      -0.00342651
H        4.18643584       9.80328257       9.49403664       0.00118466      -0.00502403      -0.00947180
H        4.77121112      11.40208222       8.98328051      -0.00206828      -0.00133632      -0.00116886
H        5.52612463      10.02819707       7.23592792      -0.00347328       0.00323236      -0.00363651
O        2.87106368      10.19841020       1.05521940      -0.00099975      -0.00018889       0.00363797
C        2.72647595      11.62278165       0.96055904      -0.00175788      -0.00057673      -0.00100181
C        1.82873163      12.16680340       2.05813863      -0.00410321       0.00206733      -0.00458151
C        4.08623813      12.29699537       0.96806231      -0.00192052      -0.00005034       0.00021213
H        2.24634437      11.77953437      -0.00825841       0.00058097      -0.00385238      -0.00245363
H        1.67249843      13.23784437       1.92000579      -0.00453010       0.00160639      -0.00805090
H        0.85538530      11.67678356       2.05427900      -0.00391909       0.00175497      -0.00506486
H        2.29028749      12.02061919       3.03969363      -0.00605652       0.00529448      -0.00327145
H        3.99288732      13.37143387       0.80355406      -0.00177460      -0.00048772      -0.00145856
H        4.73054696      11.88123480       0.19252479      -0.00063452      -0.00125688       0.00177698
H        4.56630918      12.14587034       1.93907323      -0.00370484       0.00099524       0.00110349
H        3.30193885      10.00998316       1.89473028      -0.01027390       0.00220011       0.00872029
