200
Lattice="13.078248953800843 0.0 0.0 0.0 13.078248953800843 0.0 0.0 0.0 13.078248953800843" Properties=species:S:1:pos:R:3:forces:R:3 energy=-153503.9375 stress="0.0002834411570802331 0.0002951913484139368 0.0007560611120425165 0.0002951913484139368 0.001317146117798984 0.00031124883389566094 0.0007560611120425165 0.00031124883389566094 0.0006792995845898986" pbc="T T T"
N        4.68571116      11.47053288       3.31627579       0.00730321       0.00955697       0.00953329
H        3.93652772      10.88474741       3.77272499       0.00568867       0.01362053       0.00672507
H        5.08183004      10.96666225       2.52823802      -0.00208452       0.01863033      -0.00001228
H        4.35017377      12.41052522       3.00010106       0.01083636       0.01191133       0.01648390
H        5.41857268      11.58815321       4.02038571       0.00971448      -0.00615542       0.00908887
N        0.58393521      11.73650275       5.70542635       0.00729360      -0.00271662      -0.00577556
H        0.96462415      11.47726426       4.76212638       0.01331371      -0.00174055      -0.00441003
H        0.09055523      12.66120517       5.65292879      -0.00334883      -0.01017255      -0.01196539
H       -0.03279619      10.97951892       5.98584107       0.01337028      -0.00797713      -0.00698924
H        1.32988327      11.85963866       6.41363749       0.00344288       0.00703515      -0.00262803
S        9.78441342       6.03954096       2.97562282       0.01447088       0.02950231       0.01196170
S       12.38614630       2.52002577       1.48635554      -0.00198477       0.01334953      -0.00649810
S       11.19609122       5.68267532       1.31454392      -0.01288843      -0.00378934      -0.00206338
S       12.62144973       4.56825795       2.21365809      -0.00353159      -0.00260431      -0.00266819
O       10.65922401       6.21271452       4.11696468      -0.02372134      -0.00302082      -0.02486914
O       12.23691428       2.62654336       0.05177052      -0.00079262      -0.00329563      -0.00540793
O        8.92103763       4.88026508       2.99947027      -0.00097787       0.01841569       0.01468950
O        9.13585133       7.27918286       2.51142832       0.01138419      -0.03878981       0.01442519
O       13.68373075       2.05043538       1.96081843      -0.00087070      -0.00633952      -0.00029939
O       11.24635528       1.92901645       2.17773384      -0.01392353      -0.00674319      -0.00168961
O       10.26499038       7.79726719      11.44510253      -0.02214783      -0.00166792      -0.00511330
C       10.98441978       8.55455602      10.47818851      -0.00315964      -0.00334743       0.01014198
H       11.38646495       9.47327157      10.91532806      -0.00552200      -0.00609380       0.01914935
H       10.35664253       8.79935811       9.61705259       0.01524103       0.00078679      -0.00294039
H       11.81153596       7.93493869      10.13024612       0.00064655      -0.00591613       0.02275837
H        9.53742200       8.37588266      11.74061554      -0.01704030       0.00376475      -0.00399612
O        5.96693510       2.34292839       5.84261256       0.00785221       0.00956583      -0.00864914
C        6.73320689       3.46587809       6.29803100       0.02085182      -0.00457297      -0.00619724
H        7.24746319       3.96570822       5.47799252       0.02768885      -0.00346190      -0.00228998
H        7.45870235       3.15455290       7.05008403       0.01759663      -0.01807527      -0.00929326
H        6.03531591       4.16532173       6.75856928       0.03141455       0.00206341      -0.00160767
H        6.46789983       1.83725895       5.17103056      -0.00846428       0.01713893      -0.02794302
O        2.06944551       8.54339728       7.88698266       0.00049359       0.00577551       0.00799179
C        3.42291351       9.02461429       7.99016197       0.00248579      -0.00022468      -0.00153416
H        3.71039029       9.13492953       9.03744829       0.00870058       0.00575374      -0.00392300
H        3.54541797       9.97466238       7.46835138       0.00551569      -0.00479364      -0.00881919
H        4.05447045       8.26505924       7.53860385      -0.00410697      -0.00643881       0.00025152
H        1.52360001       9.08843826       8.46271062       0.00571534       0.01151213       0.00739071
O        6.79954312       0.85455823       3.65144377      -0.00702810       0.03169856       0.00889922
C        7.83067119       1.57186217       2.94326472       0.00080292       0.02147817       0.00800934
H        7.69245726       2.65163890       3.02142041       0.01029198       0.02537721      -0.00422072
H        7.86000507       1.28261693       1.89123201       0.01007364       0.00801654       0.01147577
H        8.78634580       1.31176058       3.39098134      -0.00368458       0.02273386       0.01616776
H        5.96970194       0.98654744       3.15479324      -0.00108030       0.02497333      -0.00386220
O        8.62378789      10.01299268      11.91021346      -0.01043448      -0.00973034       0.00091198
C        8.78505979      11.21700841      11.16790787       0.00091011      -0.00723943       0.00838785
H        8.10415501      11.99466188      11.52633744       0.00111544      -0.00615728       0.00547844
H        8.61993016      11.05448983      10.09616411       0.00864341      -0.00271796       0.00753203
H        9.79909352      11.57756831      11.32570986       0.00213221      -0.01747552       0.01774332
H        7.67832119       9.76437773      11.89604562      -0.00631458      -0.01839963      -0.03003912
O        7.82153843       9.75061472       4.17282184       0.01181588      -0.00378412       0.00668706
C        9.15258355       9.95631228       4.65990709       0.01146474       0.00471658       0.00202490
H        9.88548939       9.65113530       3.91261557       0.01255439      -0.00435374       0.00749120
H        9.30913423       9.39450225       5.58251110       0.01239036       0.01851447       0.00958303
H        9.25791420      11.02301893       4.85622281       0.01112073       0.00681695      -0.01233814
H        7.76452777       8.80511211       3.97643288       0.00956971      -0.00921345       0.03298892
O       10.30137331       5.38601812      10.14268212      -0.01838687       0.00041467       0.00604917
C       10.79747599       4.25339537      10.84796600      -0.00177968       0.00456282       0.00531840
H       10.08450273       3.89080025      11.59349958       0.01250502       0.00191898       0.01601645
H       11.73593107       4.45981531      11.36602015       0.00289148       0.00967003      -0.00886279
H       10.96992632       3.45979427      10.12048840      -0.00817388       0.00514199       0.00634193
H       10.20516511       6.14350088      10.75356548      -0.01049839       0.00067557       0.00712000
O        2.06868325       8.91962732       1.65331642      -0.02403039      -0.01772290       0.00128810
C        2.55800311       7.58387682       1.54783256      -0.00418001      -0.01052028       0.00257822
H        3.27069146       7.49535145       0.72212074      -0.01365067      -0.00582577      -0.00602180
H        1.74299579       6.87540033       1.38318086       0.00772166      -0.02803643       0.01968763
H        3.06146321       7.30889317       2.47286982       0.01156060       0.00757678      -0.00170609
H        1.21825168       8.92604904       1.16998692      -0.02042794      -0.02808864      -0.00673209
O        6.74476639       2.31598089       9.35390902      -0.00620037      -0.01153874       0.00357881
C        6.91445997       3.65347128       9.84321407      -0.00702477      -0.00925300      -0.00451907
H        7.94162999       4.00589037       9.71822812      -0.00789624      -0.00857110      -0.00757714
H        6.63115978       3.72461333      10.89762764      -0.00568871      -0.00352011      -0.00461814
H        6.25279721       4.28972643       9.25738595      -0.00850560      -0.01382139      -0.00741254
H        7.34967691       1.74724338       9.83616205      -0.00749680      -0.00871725       0.00847027
O        6.07704773       9.01617700      -0.96715695      -0.01892734      -0.01888609       0.00359866
C        5.20467720       9.79289407      -0.16748737       0.00193956       0.00074114       0.00789611
H        5.71704536      10.67710760       0.23781822       0.01663870      -0.00514346       0.00136612
H        4.79084421       9.20772401       0.65860559      -0.00520956       0.01473248       0.01383373
H        4.37062382      10.13388534      -0.78234669       0.00479081       0.01325664       0.01129271
H        6.56576410       8.37787949      -0.39080324      -0.00558219       0.00072190       0.01098841
O        3.25997975       4.60719993      12.93338241       0.01102602      -0.00121075      -0.00208966
C        1.95366947       4.31964568      12.43419915       0.00832234      -0.00661586       0.00231646
H        1.95895209       4.15059980      11.35249096       0.00672298      -0.02151249       0.00470087
H        1.24222507       5.11943134      12.66338158       0.00882742      -0.00493169      -0.00727247
H        1.60579692       3.41591264      12.92589507       0.01038542       0.00126317       0.01513860
H        3.57718298       5.40418203      12.50160185       0.00409273      -0.00078075      -0.00624052
O        7.38090034       8.66857479       7.28020821      -0.00650863       0.00902480      -0.00416133
C        7.08867973       8.08632737       8.55185290      -0.00427691       0.00638729      -0.00356835
H        6.16134708       7.50751032       8.51860712       0.00047290       0.00042503      -0.00641768
H        7.01368593       8.84478204       9.33591071      -0.01139120       0.00624540      -0.00482526
H        7.91784850       7.42105523       8.77959479       0.00009191       0.01323201      -0.00339634
H        6.73462740       9.36007915       7.07219511      -0.02128981      -0.00617408      -0.01008026
O        4.03253349       1.44836689       8.54721460       0.00286561      -0.01233493      -0.00057143
C        3.60647749       2.25786733       9.64153053      -0.00338645      -0.00468791      -0.00840661
H        4.12241948       3.21788808       9.63546738      -0.01065862      -0.00090390      -0.01719030
H        3.78324276       1.76550150      10.60369832      -0.00122090       0.00677203      -0.00318247
H        2.53937990       2.44067503       9.52796928      -0.00427550      -0.01324270      -0.01019918
H        4.99091457       1.56522918       8.47670426       0.00198543      -0.00496688      -0.00073641
O        3.31006559       9.72788535       4.77060965      -0.00905770      -0.00080935      -0.00813245
C        4.18990389       8.61368328       4.71823873      -0.00941440      -0.00019025       0.00156257
H        3.71190377       7.71073143       5.10410208      -0.01091029       0.00205505       0.00619653
H        5.07282958       8.82272600       5.31902449      -0.01009765       0.00358211       0.00144300
H        4.50570285       8.41585151       3.68862271      -0.00719319      -0.00554931       0.00347906
H        2.38395315       9.39883931       4.88447083      -0.00707847      -0.00186153       0.00335063
O        7.60258839       7.29155454      13.37397617       0.00093792       0.00066221       0.00377935
C        7.59095184       5.98502910      12.81429440       0.00148812      -0.00083178       0.00562653
H        7.00571835       5.29056687      13.42418123       0.00067636      -0.00159045       0.00448340
H        8.60533736       5.59308768      12.70909960      -0.00047967      -0.00169308       0.00308295
H        7.14288289       6.06016173      11.82294803      -0.00109565      -0.00388717       0.00501591
H        8.12546558       7.28158263      14.20670010      -0.00171020       0.00014514       0.00172282
O        1.52039542       4.76848960       7.45826375      -0.01965618       0.00677496      -0.00719726
C        0.59797513       4.93588426       8.53556145      -0.00821449      -0.01135892       0.00559595
H        0.16589838       3.98217443       8.84857526       0.00202192      -0.01718393       0.00206355
H       -0.20597349       5.62170815       8.26976890      -0.01620468      -0.01461363       0.02106740
H        1.15277148       5.35800493       9.37085813      -0.00185706      -0.01509105       0.00320522
H        1.02533083       4.43111239       6.70300878      -0.02664113       0.00859292      -0.00353771
O        9.82365416      12.91486993       0.82082427       0.00015454      -0.00216442      -0.00599891
C        9.53003506      11.91089335       1.76838697       0.00068761       0.00627059       0.00076696
H       10.39519446      11.67009221       2.39748715       0.00044042       0.01095926       0.00296003
H        9.24117697      11.01365987       1.21957728      -0.00001724       0.00203156       0.00928396
H        8.69997294      12.18064628       2.43424336       0.00122115       0.01101157       0.00081462
H       10.27805172      13.64882261       1.26773860       0.00253884      -0.00058578      -0.01092188
O        1.37486699      11.11646711       3.16761220       0.01464345       0.00969982       0.00137116
C        0.96573384      12.01632446       2.12648704       0.00703826       0.00397783      -0.00211832
H        0.79929796      11.48454000       1.18931633       0.00845288      -0.00505665       0.00322798
H        1.72291030      12.78328526       1.96996417       0.00424448       0.00583768      -0.00495286
H        0.04600555      12.51778473       2.42708775       0.00617644       0.00317629      -0.00322647
H        1.69220501      10.28240761       2.77372413       0.00695404       0.00550766       0.00494827
O        4.22507511       0.99106468       2.55655001       0.00044879      -0.00768107      -0.00405917
C        3.79251008       1.49103746       1.27723659       0.01802879      -0.00624773      -0.00966407
H        4.13164955       0.79142598       0.51413602       0.01131983      -0.01256859      -0.00672004
H        4.22392849       2.47368572       1.08058638       0.03352876      -0.01247084      -0.00228845
H        2.70551634       1.57122543       1.25079740       0.02024940       0.00727016      -0.02204801
H        3.97097928       1.67643259       3.23876155       0.00988717      -0.00300978      -0.00820654
O       11.78929665       3.69069230       5.57484697       0.00664508       0.01586813       0.00435674
C       10.48923518       3.68262829       6.18452811       0.00394847       0.00703285      -0.00428893
H        9.83856439       2.95425265       5.69369651       0.00982134       0.00493607      -0.01037207
H       10.02417805       4.66679149       6.13443014      -0.00318243       0.00490391      -0.00261488
H       10.62823058       3.39660192       7.22697613      -0.00527196       0.00315601      -0.00365674
H       11.69623514       4.12154822       4.71023930       0.00661723       0.01592706       0.00409648
O        2.13783992      -0.53702720       7.96767890       0.00185716      -0.00176953      -0.00832753
C        1.11403208       0.07257704       8.75853651      -0.00207694      -0.00819267      -0.00827623
H        0.85386602       1.06339883       8.37711719      -0.00870330      -0.00984365      -0.00807670
H        1.41433550       0.14899682       9.80675302      -0.00390455      -0.00764050      -0.00802153
H        0.22765748      -0.55963315       8.70604705       0.00182180      -0.01318908      -0.00872438
H        2.91683424       0.05033930       8.03589744      -0.00125736       0.00265163      -0.00755460
O        0.96387265       8.73027005       5.40667456      -0.00568371      -0.00923090       0.00930154
C        0.70026300       7.52671379       4.66505327      -0.01521733      -0.00058481      -0.00135386
H       -0.25789149       7.09050173       4.93903618      -0.01764998       0.00477588      -0.00238295
H        1.49476642       6.79246289       4.82238276      -0.02002400      -0.00678490      -0.00871860
H        0.67191893       7.79657380       3.61133913      -0.01655196       0.01104960       0.00226361
H        1.28291384       8.49849491       6.30513177      -0.00810582      -0.01533106       0.00825965
O        3.82652847       2.78205484       4.37577565      -0.00436637       0.00452203       0.00823796
C        3.43460010       4.12793530       4.15271882       0.00330715       0.00530113      -0.00330221
H        3.07804669       4.58253903       5.08306893       0.00810197       0.01796813      -0.00769839
H        2.62167893       4.12276063       3.42622075       0.00247118       0.00458685      -0.00197347
H        4.25573738       4.73069620       3.75374251       0.00628218      -0.00325094      -0.01091303
H        4.60774454       2.73249881       4.98428276      -0.01499824       0.01046261       0.02107865
O       12.70182769       8.54672804       0.48604639      -0.01168475      -0.00111765      -0.00262528
C       11.61869081       9.21890171       1.15803962       0.00162758       0.01662968      -0.00289849
H       11.82735459      10.28395071       1.11315488       0.01338968       0.01354036      -0.01418457
H       11.55153687       8.88833704       2.19594590       0.00158545       0.03228671       0.00325695
H       10.67682083       9.01149104       0.65348723      -0.00456688       0.02217787       0.00416812
H       12.45350696       7.60586312       0.46963314      -0.03081855       0.00359941      -0.00678297
O        4.12258665       5.72026710       8.31516977      -0.00565860      -0.00599223      -0.00905281
C        3.84718020       6.12560385       9.64463773      -0.00047252      -0.00276603      -0.00823861
H        3.01526755       6.83661382       9.69321774      -0.00058427      -0.00361183      -0.00621397
H        4.73832858       6.61695375      10.03767987       0.00073928      -0.00093751      -0.01421059
H        3.61555534       5.27009403      10.29021158       0.00380818      -0.00147671      -0.00569335
H        3.30082243       5.37097603       7.93467863      -0.00707875      -0.00765696      -0.00445272
O        6.05150463      10.88557994       6.01841542      -0.00234365      -0.00359882      -0.01887381
C        6.16789058      12.09983961       6.76496478       0.01658710      -0.01057061      -0.00824021
H        5.83043578      12.96264985       6.18806929       0.03226998      -0.00190613      -0.00428537
H        7.19195653      12.28066737       7.09772400       0.01937622      -0.03117731      -0.00634898
H        5.52633586      12.00283642       7.64086762       0.01333262      -0.00466682      -0.00967237
H        6.82777538      10.71761219       5.45337615       0.00723010      -0.02441165      -0.00144635
O        9.99208404       6.82324620       7.82936821      -0.00468504       0.00427881       0.00833786
C       11.11865570       7.20112618       7.07638527      -0.00609675      -0.00297797       0.00259113
H       11.62691016       6.34266384       6.62500776      -0.00829573      -0.00700071       0.00849867
H       11.85174230       7.76844585       7.67198460      -0.00400245       0.00183894      -0.00497082
H       10.77535298       7.82948224       6.25664845      -0.00716342      -0.00930315      -0.00126714
H       10.25411840       6.20636797       8.53436922      -0.00685790       0.00056614       0.00634592
O        0.71308075      10.43627562      11.81783240      -0.00770938       0.00556667       0.00817317
C        1.29663136       9.93889092      10.63989698      -0.00058897       0.00042003       0.01450613
H        0.53208228       9.51172922       9.97115006       0.00380757       0.01067463       0.00225516
H        2.05011528       9.16378641      10.83420935      -0.01113671      -0.00875476       0.01976913
H        1.78461803      10.76807655      10.12432889       0.01418163      -0.00560436       0.02080198
H        0.29278598       9.69312646      12.28268331      -0.00840911       0.00519320       0.00653980
O        7.77240275       6.67189434       5.35059454       0.00598538       0.02817509      -0.01904750
C        6.57690935       6.42703252       4.64869103       0.00212628       0.00604695      -0.01057860
H        6.32607552       7.23448071       3.94696847      -0.01062812      -0.00175625      -0.01238996
H        5.72159488       6.27329400       5.31844905       0.01086503      -0.00203221      -0.00409481
H        6.72489468       5.52847874       4.05116422       0.01338556       0.00517556      -0.00459349
H        7.61583843       7.33654583       6.04614669      -0.00493248       0.01290886      -0.00475288
O       -0.01826788       1.27276669       5.68482502      -0.00934774      -0.00253672      -0.00638101
C        1.25628644       1.75371236       5.25148151      -0.00466760      -0.00117182       0.00760284
H        1.89939163       0.89917941       5.03890007      -0.00353953      -0.00096643       0.01261030
H        1.74792414       2.34681968       6.02738540      -0.01359275      -0.00257336       0.01344705
H        1.16061851       2.32577369       4.32941565       0.00545109       0.00189757       0.00926101
H       -0.63958515       2.02419573       5.57740325      -0.00324982       0.00170252      -0.00190450
