197
Lattice="13.649023174703448 0.0 0.0 0.0 13.649023174703448 0.0 0.0 0.0 13.649023174703448" Properties=species:S:1:pos:R:3:forces:R:3 energy=-645037.375 stress="0.0002452467742841691 -0.0003242439415771514 -0.00016279450937872753 -0.0003242439415771514 -0.0007804445922374725 0.00047570440801791847 -0.00016279450937872753 0.00047570440801791847 -0.0018935019616037607" pbc="T T T"
Ce       8.08083242      13.14276810      11.52645555      -0.02301547       0.03482109      -0.01128748
Ce       5.52758384      13.06004276       1.36029619       0.02069933      -0.00038157       0.01314341
S        8.53349799      10.55404180      11.23248057      -0.02265752       0.03917482       0.02064465
S        6.54782506      11.04402175      10.93545009      -0.01562447       0.04128280      -0.02200714
S        5.82844204      14.36914676      12.57700465      -0.00434932       0.02204497       0.02277546
S        7.53091345      14.47957934      13.81028340       0.00700844       0.01895532       0.00530896
S        7.38722351      11.64009936       4.99545957       0.00231558      -0.00238205       0.02081275
S        6.38843626      11.92945335       3.34042017       0.00590175      -0.00501055       0.01854461
O        4.85102099       3.08687931      10.37427793       0.03159213       0.00670187       0.00459468
C        4.85331315       4.41461405       9.82273322       0.01269391       0.00132187      -0.00215763
C        3.47715202       5.01254094       9.64388788       0.00627327      -0.01533931       0.00228365
H        5.47447929       5.06742322      10.44829435       0.00894618       0.01319978      -0.01145789
H        5.34742064       4.31158772       8.85506573       0.00828886       0.00078266      -0.00536737
H        3.55913567       5.96996512       9.12726168      -0.00859635      -0.02013266      -0.00712702
H        2.83912839       4.36518347       9.04106434       0.01012474      -0.02899891       0.01365966
H        2.99466689       5.18627811      10.60864368       0.01125346      -0.01193461       0.00378171
H        4.31349482       3.08643652      11.17629631       0.02733186       0.00351287       0.00600484
O        9.94950679      11.65821017       6.52892977       0.01231104      -0.02442861       0.01260012
C       10.13133150      11.55648568       7.93520762       0.01217419      -0.00369376       0.00716317
C       11.54335529      11.89898358       8.36326947       0.01016909       0.00444350       0.00605485
H        9.38734510      12.18218604       8.46199860       0.00955082      -0.00830546       0.00572945
H        9.89478236      10.52313825       8.19153586       0.01934449      -0.00714093       0.01572506
H       11.71790102      11.61572628       9.40304514       0.00944534       0.01610399       0.00920135
H       12.25749098      11.34348143       7.75522536       0.01328456       0.00354564       0.01150186
H       11.75883934      12.96299520       8.23842425       0.00432204       0.00491160      -0.00357325
H        9.90867609      12.58516583       6.27490608      -0.00569973      -0.01015334       0.00303884
O        7.37158066       7.44546697       2.84885744       0.00095922      -0.02447449       0.00421163
C        6.20664340       8.02026057       3.41789298       0.00601286      -0.01109816      -0.00528699
C        6.17004740       7.93873595       4.93122758      -0.00240821      -0.00434556      -0.00521195
H        6.09528496       9.06696356       3.10645785       0.01438568      -0.01279920      -0.01077151
H        5.36773171       7.46024694       2.99388431       0.00197545      -0.00666898      -0.00635679
H        5.18765889       8.22583128       5.31341682      -0.00138585       0.00542062      -0.01085119
H        6.37727103       6.91887152       5.25344587      -0.01290358      -0.00425759      -0.00025478
H        6.89767557       8.61703967       5.37044993       0.00141723      -0.00888462      -0.00450446
H        8.10808269       8.06855334       2.89002212       0.00622587      -0.02222127      -0.00622480
O        3.98828595       5.19503343       4.16419008      -0.00639459      -0.02225053       0.00314116
C        2.94748496       4.21820943       4.13491419      -0.01183537      -0.00681427       0.00358975
C        2.00478425       4.33299389       5.31443933      -0.00957936       0.00148690       0.00473922
H        2.40500318       4.28244977       3.18532301      -0.01199159      -0.01341974       0.00563127
H        3.45304576       3.24958919       4.15950404      -0.01629306      -0.01307926       0.01058144
H        1.29648278       3.50111299       5.30945647      -0.01528873       0.00634012       0.00852425
H        2.56989348       4.31140799       6.24667565      -0.01005496       0.00316741       0.00419919
H        1.43638131       5.26124836       5.27485842      -0.00518259       0.00418332      -0.00052837
H        3.63002171       6.00765955       3.79626931       0.00113417      -0.01983160      -0.04315675
O        1.33733767      12.95200446       6.95229989      -0.00020683      -0.00368011      -0.00385487
C        1.69628641      12.93123698       5.57603751       0.00121567       0.00307002       0.00033715
C        3.18694329      13.07753101       5.36032915      -0.00033987       0.00858570      -0.00287768
H        1.33280719      12.00709344       5.10177143       0.00189693       0.00684476      -0.00632283
H        1.14909224      13.75740864       5.11815292      -0.00192793       0.00626665       0.00515921
H        3.43124727      13.04269720       4.29378835      -0.00221273       0.01553626      -0.00303246
H        3.54378954      14.02534447       5.76678368      -0.00137005       0.00649977       0.00270419
H        3.73808433      12.25841017       5.82827097       0.00212226       0.00663914      -0.00840549
H        1.95191029      12.38423163       7.42654137       0.01023430      -0.00968279      -0.00320706
O       11.62000354       7.16310661       5.92625540      -0.00221780       0.00512743      -0.00321957
C       10.84063831       8.26802485       6.43901528      -0.00089085      -0.00228525       0.00000623
C        9.45973809       8.32953978       5.84648822      -0.00386268       0.00037321       0.00944781
H       10.77424706       8.18653308       7.52722185       0.00854482       0.00664505      -0.00120121
H       11.41508308       9.16386741       6.19570730      -0.00160430       0.00297496      -0.00950402
H        8.92029324       9.18413516       6.25621201      -0.00139973       0.00078692       0.00958876
H        9.48872495       8.44717363       4.76537873      -0.01283458      -0.00528161       0.00922589
H        8.89668653       7.42836897       6.09205506      -0.00194777      -0.00017457       0.01787822
H       11.15201517       6.35435917       6.15677386      -0.00501823      -0.00105324       0.00198971
O       12.45574350       8.70893904       9.35935859      -0.00285268       0.00159952       0.01411241
C       12.59993119       7.66950858      10.32442465      -0.00106290      -0.00384089       0.00611246
C       11.77394190       6.44726332       9.98213165       0.00053945      -0.00305256       0.00071625
H       13.65924597       7.39996010      10.43740239      -0.00105244      -0.00292884       0.00548805
H       12.27537788       8.10703200      11.26999616      -0.00221626      -0.00866857       0.00873420
H       11.87075188       5.68998275      10.76334239       0.00134854      -0.00655662      -0.00305901
H       10.71919743       6.70321197       9.87099739       0.00030500      -0.00397015       0.00148514
H       12.11916854       6.00245375       9.04398942       0.00134194       0.00165609      -0.00126342
H       12.62718430       8.32442761       8.49287307       0.00124730       0.00568911       0.00896101
O        8.51089253       2.83130055       6.47203657      -0.00426102      -0.00882953      -0.00596415
C        7.73449242       4.01058287       6.68241480      -0.00311553      -0.01130410      -0.00558379
C        6.46030840       4.05565454       5.87374419      -0.00100243      -0.00418087      -0.00801480
H        7.49723861       4.10200452       7.75284498      -0.00408652      -0.00955266      -0.00685731
H        8.39206854       4.84069475       6.41211233       0.00079894      -0.01086235      -0.00378975
H        5.86101412       4.93043936       6.12862547      -0.00077631      -0.00555927      -0.00506970
H        6.67355022       4.10027077       4.80750069       0.00009950      -0.00016398      -0.00759283
H        5.84224607       3.17598476       6.08083641      -0.00229903      -0.00485978      -0.01246829
H        7.90828019       2.08071948       6.49474821      -0.01017725      -0.01186405      -0.01317298
O       13.20470423       6.31585540       3.71819598       0.00375344      -0.00948069       0.00807786
C       12.79742125       6.25597641       2.36353473       0.00017944      -0.00284743       0.00979003
C       11.67793142       5.25952712       2.12408365      -0.00156981      -0.00032538       0.00768106
H       12.49906793       7.24605086       1.99043978       0.00203373      -0.00115776       0.01417886
H       13.68917439       5.96310043       1.80271027      -0.00134379      -0.00271994       0.00641930
H       11.46174441       5.18483793       1.05545211      -0.00365044       0.00446875       0.00802177
H       11.96969762       4.27860054       2.50524562      -0.00220183      -0.00233774       0.00261756
H       10.75466826       5.56518669       2.62054484      -0.00011396      -0.00157593       0.01127972
H       12.49884853       6.67220312       4.28030931       0.00638190      -0.00285229       0.01029639
O        2.87854910       7.22161061       7.05741895       0.00152349       0.00232165       0.00772458
C        1.74742246       7.74111371       7.73609662       0.00112890       0.00240326       0.00717643
C        2.11361005       8.84849498       8.70946415       0.00084567       0.00327951       0.00612807
H        0.99687385       8.09230867       7.01065488       0.00116533       0.00133547       0.00679603
H        1.29408246       6.89842443       8.26588376       0.00154336       0.00271326       0.00790140
H        1.22329265       9.27873648       9.17058752       0.00098589       0.00176869       0.00792631
H        2.76658008       8.46285384       9.49396303       0.00301635       0.00444509       0.00471909
H        2.66010383       9.64020933       8.19106311      -0.00174893       0.00402623       0.00493434
H        3.19386290       7.93712757       6.48553606      -0.00002264       0.00014864       0.00519561
O        8.00620220       2.88323353       2.85874719      -0.01220551      -0.00628191      -0.02625972
C        7.33597412       1.74710982       3.37237185      -0.00927269      -0.00096634      -0.01576952
C        5.84558849       1.76780834       3.05069639      -0.01188403       0.00075948      -0.00324589
H        7.79550549       0.81417041       3.01642205      -0.01193151      -0.00368971      -0.01079357
H        7.47677292       1.76385534       4.45128192      -0.00347602       0.00052611      -0.01459178
H        5.34859586       0.87463733       3.47246900      -0.00945225       0.00057799       0.00171331
H        5.36533177       2.65028747       3.47369854      -0.00868494       0.00044176      -0.00144514
H        5.68975991       1.85699985       1.96283765      -0.01987120      -0.00063705      -0.00243756
H        8.15722667       2.73758077       1.91647470      -0.02319307      -0.00417274      -0.02009608
O       11.55393861      11.23651592      12.69213200      -0.00473252       0.00504255      -0.00303495
C       10.83368097      12.39916226      13.03075828       0.00044782       0.00941911      -0.00006807
C       10.86842579      13.44540178      11.92472077      -0.00038925       0.00634235      -0.00182183
H        9.78786280      12.13523617      13.31169848       0.00133505       0.01351369       0.00082559
H       11.28794395      12.81726566      13.92861923       0.00465854       0.00674935      -0.00174931
H       10.31202423      14.35156119      12.22250991       0.00280486       0.00786303      -0.00266830
H       11.89407443      13.76164030      11.72923743      -0.00066879       0.00398539      -0.00756679
H       10.51644901      13.01862271      10.96197236      -0.00539681       0.00304060       0.00248796
H       11.04101292      10.73134816      12.04893803       0.00246334       0.01723029      -0.01298833
O       10.16895768       8.72945050       2.55877439      -0.02120647      -0.00054252       0.00117034
C       10.33563479      10.06158036       2.05168561      -0.00783022      -0.00639439       0.00249088
C       10.77355564      11.03226730       3.12622198       0.00031596      -0.00813088      -0.00096995
H       11.04272970      10.05410331       1.21587694      -0.01125425      -0.01109356      -0.00027016
H        9.35538934      10.33728230       1.65761915      -0.00838619       0.00728539       0.00051856
H       10.84425291      12.04223271       2.71566228       0.01099608      -0.00996342      -0.00027134
H       10.06641884      11.04769057       3.95574656       0.00229689      -0.00157298       0.00067040
H       11.76408487      10.77060662       3.51184873      -0.00128452      -0.01902614      -0.00126015
H       10.93449679       8.53393837       3.10914601      -0.02614442      -0.01059910      -0.00400580
O        3.67331768       5.83551419       1.14072247      -0.00392222       0.00206714       0.02161038
C        5.02146972       5.36239881       0.96869730      -0.00784394       0.00930774       0.00937656
C        5.04605064       4.02809767       0.26199725      -0.00143613       0.02098382      -0.00812864
H        5.62174360       6.09977032       0.42408897      -0.00651383       0.01807171       0.02728117
H        5.42914476       5.28226982       1.97475153      -0.00403254      -0.00838089       0.01272899
H        6.06880985       3.66149238       0.15441763      -0.00366321       0.01855399      -0.01050295
H        4.44623998       3.29209070       0.79878668      -0.00447057       0.01316293      -0.02325428
H        4.62495395       4.12070843      -0.74366026       0.00023621       0.03839295      -0.00800318
H        3.28905264       5.91185979       0.26222927      -0.01059560       0.00844844       0.02550444
O       10.71790291       1.87154476       0.87895061      -0.00099140      -0.00378090       0.00722399
C       10.94132899       1.45617264       2.23605713      -0.00180846      -0.00079545       0.00089385
C       12.38790209       1.09011840       2.49910247      -0.00178504       0.00105816       0.00541593
H       10.59508926       2.23085966       2.92519526      -0.01015781      -0.01385787       0.00564262
H       10.29440423       0.58860096       2.38367445       0.00196323      -0.01268297      -0.00528068
H       12.50836785       0.74477069       3.52805320      -0.00208973      -0.00559302       0.00303607
H       12.72115297       0.29304816       1.83132991       0.00617976       0.01061681       0.00040685
H       13.04356722       1.95230262       2.35602530      -0.00695421       0.00782558       0.01497536
H       11.02929535       2.77847694       0.79906259      -0.00908726       0.00805923       0.01341847
O        8.23450461       7.92399226      13.18826915      -0.01930261       0.00111556      -0.01694790
C        9.48829438       7.25569372      13.08991422      -0.01648962       0.00579196      -0.01127431
C        9.23255821       5.77547803      12.91784557      -0.01205935       0.00440818       0.00113977
H       10.05129282       7.64080645      12.22966752      -0.01853384       0.00053498      -0.01479638
H       10.08335648       7.43989517      13.99366459      -0.01666719       0.01518139      -0.01338398
H       10.17135959       5.23004966      12.79248928      -0.01019570       0.00781396       0.00769800
H        8.71230127       5.37206289      13.78815913      -0.01319405       0.01175118       0.00372227
H        8.61359811       5.59744798      12.03911150      -0.00965098      -0.00502619       0.00080138
H        8.33354765       8.79239665      12.77530366      -0.01750611       0.00722916       0.00103992
O        2.89853960       9.67767108       5.52533444      -0.00181699       0.00302030       0.00025722
C        2.80255971       9.56463882       4.10034695      -0.00056362       0.00510639       0.00201084
C        1.74512831       8.56929937       3.68585173       0.00403696       0.00255841      -0.00298030
H        2.60713938      10.55371729       3.66715827       0.00080183       0.00485867       0.00116189
H        3.79531044       9.25437478       3.77438401       0.00223374       0.00692324       0.00445667
H        1.73207737       8.43005930       2.60288058       0.00784617       0.00406649      -0.00295562
H        1.91150428       7.59781547       4.15186586       0.00638004       0.00264047      -0.00368610
H        0.74863652       8.90016140       3.98920032       0.00226650      -0.00051602      -0.00503101
H        2.01822036       9.88798738       5.85674462      -0.00865424       0.00131367       0.00006831
O        7.59024418       3.09689551      11.53153149       0.01800328      -0.03318365      -0.00719641
C        8.36226461       3.23631211      10.35731928       0.00533533      -0.01269987      -0.01532543
C        8.50341419       1.90102529       9.63309029       0.01294446      -0.00792846      -0.01661533
H        7.92982923       3.98901806       9.69071434      -0.02294496      -0.02771074      -0.00754550
H        9.34292643       3.61262393      10.65653531      -0.00165677       0.01009171      -0.02130994
H        8.91986791       2.01737814       8.63044572       0.00337076      -0.00798160      -0.02131552
H        9.20595034       1.25237895      10.18693985       0.02877919       0.00250792      -0.02555102
H        7.51340190       1.42141871       9.53869184       0.01645010      -0.01799059       0.00144519
H        6.65976935       3.00311250      11.26093575       0.01300734      -0.01109016       0.00646561
O        4.88034894      11.27108193      -0.09147550       0.00868213       0.00789896       0.01005048
C        4.09724535      10.26186015       0.59398189       0.01051977      -0.00377454      -0.00723353
C        4.60478048       8.86495281       0.36642933       0.02230224       0.00415540      -0.02107671
H        4.16344487      10.53446899       1.65956108       0.00287469      -0.01501982      -0.00468110
H        3.05759664      10.37685960       0.27380559       0.01224563      -0.00819048      -0.01248185
H        4.00366854       8.16439489       0.94821850       0.03045771      -0.00715607      -0.02723117
H        4.51735974       8.58946867      -0.68627506       0.02572269       0.01488731      -0.02401747
H        5.64461179       8.74552520       0.67280493       0.02393726       0.01223370      -0.02360361
H        5.34109267      10.95780621      -0.91693750      -0.02369678       0.03009480      -0.01293722
O        2.18266659       1.70086072      12.63306717       0.01655829       0.00953422      -0.01253664
C        0.89922996       2.33306279      12.72659394       0.01110210      -0.00493437      -0.00039779
C        1.01790512       3.84351894      12.70094217      -0.00450173      -0.00425100       0.00496267
H        0.24654669       1.98317358      11.92033302       0.00866978      -0.00882714       0.00382763
H        0.45785326       2.00252711      13.66906499       0.02204607      -0.01265810       0.00186846
H        0.03840466       4.31243878      12.82224446      -0.00793780      -0.01503773       0.01467014
H        1.66361123       4.18102718      13.51404922      -0.00179006      -0.00113600       0.00106031
H        1.43756684       4.17944214      11.75148698      -0.01556245       0.00352154       0.00320593
H        2.33096150       1.44990078      11.71803289       0.00969446       0.01052874      -0.01468658
O        8.37533810       6.75980422       8.67067563       0.00186528      -0.00951451       0.01426911
C        7.31847559       7.38815946       9.40457500       0.00663894      -0.00483140       0.00880826
C        6.11297965       7.69225257       8.54273126       0.01122990       0.00673488       0.00969416
H        7.03789470       6.76274703      10.26111188       0.00084716       0.00190893       0.01093408
H        7.74955809       8.30362899       9.80605354       0.01147552      -0.00143489       0.01465431
H        5.31969902       8.14348382       9.14081746       0.01185857       0.01010357       0.00516237
H        6.36828454       8.38455693       7.74107047       0.01742496       0.00420876       0.00911680
H        5.70174906       6.78647395       8.08754110       0.00829093       0.00719894       0.00746873
H        7.99049624       6.02093265       8.19046301       0.00099871       0.00289541       0.01045907
