200
Lattice="13.893261291450342 0.0 0.0 0.0 13.893261291450342 0.0 0.0 0.0 13.893261291450342" Properties=species:S:1:pos:R:3:forces:R:3 energy=-641049.8125 stress="0.0005339765921235085 0.00037277331284713 0.0004629437025869265 0.00037277331284713 0.000210018566576764 -0.000653165829135105 0.0004629437025869265 -0.000653165829135105 -0.0002652505354490131" pbc="T T T"
Ce      12.22729405      12.35926522       0.55181262      -0.00644504       0.00153044       0.00154151
Ce       9.74172274      12.66866305       1.18998608      -0.00511762       0.00264985       0.00333104
S        5.78560154      14.23050421      -0.28108165      -0.00127977      -0.01852936      -0.00623965
S        7.21254803      13.73772717       0.99250380      -0.00721824      -0.00918072       0.00393510
S        6.71111721      14.00839335       3.00207710      -0.01167600      -0.00298737       0.00224820
S        8.56664340      13.29973361       3.61035385      -0.01525949      -0.01123097       0.00238459
S       10.31942785      10.77428472      13.23157328       0.00287496       0.00183880      -0.00153939
S       12.13425687      11.04294349      12.17984749      -0.01772577       0.03978378      -0.02141298
O       10.79796019       0.17685329      13.08017680      -0.02151650      -0.00172020       0.00362879
C       11.63420204       1.28266471      12.56604623      -0.01290196      -0.00853012       0.00534493
C       10.75760294       2.39704571      12.04440779      -0.00640467      -0.00068524       0.01067092
C       12.54834312       1.72526683      13.68312355      -0.00454104      -0.01649943       0.00394163
H       12.22896695       0.85215981      11.75230422      -0.01810472      -0.01029737       0.00247496
H       11.38272565       3.17327650      11.60067646      -0.00243555       0.00086011       0.01915513
H       10.07055970       2.02861817      11.28462898      -0.00459117       0.00676192       0.00538819
H       10.17319066       2.83852703      12.85184093      -0.00812298      -0.00606112       0.01220021
H       13.25500591       2.46596220      13.30368369      -0.00379518      -0.01862504       0.00581042
H       13.16594147       0.90071320      14.07876581      -0.00851478      -0.02284352      -0.00047742
H       11.99179647       2.18354800      14.50160881      -0.00189742      -0.02059735       0.00842997
H       10.21676742      -0.12386717      12.32772286      -0.01555204      -0.00369932      -0.00301099
O       14.55509362       6.60099523       7.24008074       0.00813210       0.00617135      -0.00510091
C       13.52782532       6.48961604       6.23585593       0.00827894       0.00124550      -0.00435105
C       12.15058614       6.47195208       6.87093242       0.00847071      -0.00347129      -0.00413328
C       13.65874444       7.59504022       5.20296153       0.00402665       0.00046188      -0.00596723
H       13.72298499       5.52814898       5.75469709       0.01188480       0.00138837      -0.00353643
H       11.37102245       6.34991454       6.11819622       0.00876477      -0.00613681      -0.00386061
H       12.05797126       5.66129244       7.59382710       0.01140005      -0.00374998      -0.00401269
H       11.95228383       7.41643769       7.38534683       0.00546647      -0.00409137      -0.00405443
H       12.93882667       7.44593822       4.39706870       0.00461467      -0.00372837      -0.00605664
H       14.66192302       7.60439931       4.77626812       0.00391920       0.00399082      -0.00571741
H       13.46348734       8.56755917       5.66764714      -0.00058344       0.00011588      -0.00727537
H       14.40456414       7.43217697       7.70220365       0.00434886       0.00609151      -0.00495077
O        4.89580876       4.96649859       5.15949217       0.00328960      -0.00074819       0.00707132
C        4.78679320       6.03049766       4.19494624       0.00379884      -0.00256634       0.00481242
C        3.33813922       6.45395397       4.03386830       0.00389880      -0.00119698       0.00569181
C        5.68725088       7.19065924       4.58188511       0.00526980      -0.00267839       0.00155315
H        5.15533385       5.59589622       3.26457322       0.00217122      -0.00473803       0.00523454
H        3.25061826       7.25150925       3.29202853       0.00390472      -0.00220080       0.00472424
H        2.70905403       5.62207343       3.71751190       0.00270422      -0.00101963       0.00758958
H        2.95474730       6.83800818       4.98537969       0.00537949       0.00035102       0.00558797
H        5.64685629       7.97828258       3.82689359       0.00669441      -0.00513086      -0.00101975
H        6.72055360       6.85955458       4.67218146       0.00496626      -0.00388768       0.00294224
H        5.36273927       7.61836025       5.53559801       0.00573964       0.00072298       0.00013717
H        4.48563475       5.28664299       5.96984900       0.00191309      -0.00007783       0.00544285
O        9.00305959      13.64824168      11.06264357       0.02214962      -0.00688250      -0.00963825
C        7.83045644      12.78157019      11.06187630       0.01683625       0.00034547      -0.00668168
C        6.64500415      13.46488608      10.41508462       0.01894188       0.00610876      -0.00446737
C        8.16404509      11.46776413      10.39725622       0.01146933      -0.00045806      -0.00732219
H        7.62225213      12.63449918      12.12414248       0.01737840       0.00171151      -0.00634184
H        5.74581935      12.86980533      10.59121046       0.01855242       0.00704838      -0.00252798
H        6.48054311      14.45137447      10.84387900       0.02071393       0.00582165      -0.00333531
H        6.78368937      13.54604151       9.33535261       0.01675045       0.00710112      -0.00454062
H        7.30778388      10.79163566      10.44338482       0.01210044      -0.00104745      -0.00560367
H        9.01086147      10.99546014      10.88885281       0.01308315       0.00026949      -0.00920902
H        8.39864090      11.62404693       9.33993830       0.00976628       0.00076873      -0.00769331
H        9.34026999      13.66980955      10.16031643       0.03291149      -0.02525505      -0.00583029
O        0.70049343      12.13175501       0.35768774      -0.00904748       0.00746794      -0.00966388
C        1.72506381      12.23105405       1.40798128      -0.00960416       0.00173452      -0.00871262
C        2.53566687      10.95533374       1.49039468      -0.01203856      -0.00020581      -0.01375494
C        2.58923069      13.43871486       1.13814590      -0.00711685       0.00143629      -0.00234781
H        1.14441425      12.36816048       2.32804244      -0.01008403      -0.00052954      -0.00847268
H        3.28686049      11.06306177       2.27512104      -0.01216273      -0.00543799      -0.01291685
H        1.92616104      10.07823102       1.71233757      -0.01316451      -0.00042915      -0.01801154
H        3.08763157      10.78834812       0.56554640      -0.01197772       0.00341044      -0.01431233
H        3.35691863      13.53261036       1.90685097      -0.00810619      -0.00316702      -0.00067945
H        2.00423965      14.35999369       1.11504684      -0.00552809       0.00257680       0.00092732
H        3.11859849      13.32642833       0.19124026      -0.00586521       0.00489205      -0.00197007
H        1.11985630      12.00027487      -0.53519244      -0.00922984      -0.00078332      -0.00959596
O        2.54505261       5.26260790      14.34750321      -0.00016373      -0.00394940       0.00819732
C        2.12964414       4.17691182      13.51262885       0.00020510      -0.00196326       0.00575393
C        1.34099101       4.68516968      12.31539682       0.00067097       0.00008136       0.00627071
C        3.31302580       3.31867179      13.10413421      -0.00005651      -0.00170740       0.00458555
H        1.46463247       3.59321403      14.15787166      -0.00048509      -0.00282800       0.00452155
H        1.01134854       3.85768493      11.68359755      -0.00115208       0.00094034       0.00626792
H        0.47802349       5.26812417      12.63968177       0.00175448       0.00142998       0.00695489
H        1.97277906       5.32474375      11.69295417       0.00157021      -0.00071257       0.00633269
H        2.98955392       2.46320876      12.50867695       0.00039287      -0.00029285       0.00257774
H        3.85735067       2.95803501      13.97696900      -0.00061243      -0.00381664       0.00424093
H        4.00158764       3.89646773      12.48000400       0.00057659      -0.00051914       0.00633258
H        3.19314301       5.77029792      13.84816683       0.00198187      -0.00360272       0.00946595
O        1.48225511      11.55307924      11.78843853       0.00395125      -0.01843607       0.00693300
C        1.96064603      12.05902903      10.51129677      -0.00140908      -0.00611836       0.00999718
C        0.81763741      12.12442993       9.51924973      -0.00399673      -0.00001365       0.01338083
C        2.60085883      13.40562010      10.75412752      -0.00327577      -0.00732619       0.02066086
H        2.72229235      11.35510142      10.15251653      -0.00130039      -0.00191790       0.00189807
H        1.17021029      12.49703925       8.55619881      -0.00573020       0.00480923       0.01463257
H        0.37661546      11.13965086       9.34881930      -0.00487928       0.00108249       0.00886740
H        0.03834027      12.79399719       9.88767414      -0.00291349      -0.00132965       0.01814560
H        3.07238214      13.75281613       9.83298260      -0.00874422       0.00393701       0.02218512
H        3.36742593      13.34730135      11.52839388       0.00066891      -0.01334402       0.01628004
H        1.85612632      14.15002487      11.04146406      -0.00379957      -0.01237884       0.03229508
H        0.89137751      10.80779099      11.61813897      -0.00491005      -0.01067877       0.00327486
O        9.23444392       6.98834730       8.24046561       0.00362062      -0.01198491      -0.00165427
C        9.69641325       7.01175647       9.59455540       0.00055753      -0.00946136      -0.00105917
C       10.19923870       8.39204135       9.97352918       0.00183116      -0.00947350      -0.00263202
C        8.61291450       6.52701542      10.54392799      -0.00156492      -0.00630069      -0.00191116
H       10.52954261       6.30454823       9.60544013      -0.00022471      -0.01089835       0.00167273
H       10.57319294       8.41775621      10.99814470       0.00050581      -0.00766046      -0.00238243
H       10.99741779       8.71686214       9.30620623       0.00331490      -0.01183665      -0.00267048
H        9.38291198       9.11328084       9.90211565       0.00299703      -0.00859495      -0.00537059
H        8.98705222       6.48646861      11.56924907      -0.00321471      -0.00615190      -0.00138275
H        8.26030227       5.53645406      10.25538388      -0.00337153      -0.00591154      -0.00141690
H        7.76331613       7.21648875      10.52858077      -0.00020055      -0.00451604      -0.00395668
H        8.50519443       7.61371003       8.17491747       0.00384805      -0.00965951      -0.00428279
O       11.23246230       8.15709086       2.59297730       0.00078893       0.00456883       0.01132882
C       11.38609498       9.49066473       3.06059828       0.00023382       0.00036788      -0.01383814
C       12.56137872      10.17126793       2.35667309      -0.00073591      -0.00080770      -0.01255462
C       10.08921407      10.27767453       2.94682943       0.00512180       0.00570288       0.00645220
H       11.63817544       9.40188658       4.11741577       0.01121535      -0.00260239      -0.00651050
H       12.65260906      11.21348583       2.71348454       0.00627013      -0.00188269      -0.01234023
H       13.50000567       9.66135740       2.58603791      -0.00089914      -0.00486928      -0.02479271
H       12.43223901      10.09123401       1.26033588      -0.01201618       0.00385021      -0.01390164
H       10.25369516      11.30764857       3.30303160       0.00976409       0.00637650       0.00133465
H        9.30098513       9.84585820       3.56510465       0.00860375       0.00914556       0.01263110
H        9.71826466      10.25279031       1.90544011      -0.00677699       0.00534013       0.00771338
H       10.93998488       8.19354587       1.67529579      -0.01722117       0.00713453      -0.02296001
O        5.64282060      10.45800362      14.19727263      -0.00462654       0.00441104       0.00779799
C        5.56948409       9.20164768      13.52386488      -0.00085844       0.00741044       0.00282916
C        4.84831044       9.31889182      12.19052127      -0.00169075       0.00957779       0.00347614
C        6.94981737       8.57886020      13.37089930       0.00099826       0.01213808       0.00023062
H        4.97489455       8.57293179      14.19610029       0.00129879       0.00245857       0.00070283
H        4.73255285       8.33747867      11.72456296       0.00254034       0.01111519      -0.00031632
H        3.86029843       9.76445851      12.31557112      -0.00368564       0.00480144       0.00517250
H        5.42339816       9.94490837      11.50178133      -0.00440879       0.01508336       0.00610696
H        6.87022946       7.56650183      12.96303657       0.00426481       0.01362474      -0.00392396
H        7.45620260       8.53695081      14.33705199       0.00117908       0.00973650      -0.00014231
H        7.57026766       9.16159631      12.68500502      -0.00104721       0.01710808       0.00236765
H        5.89839035      11.15108564      13.57630390      -0.01134723       0.00925775       0.00918263
O        6.34037201       0.59488737       5.98834731      -0.00639942       0.01637480      -0.00144792
C        7.13677053       1.28433415       6.95493159      -0.00430146       0.01295519      -0.00674230
C        8.33440439       1.96648729       6.31897212      -0.00460494       0.01255190      -0.00485060
C        6.27190887       2.25755379       7.73945819       0.00187710       0.00721645       0.00527617
H        7.49269246       0.49180657       7.61952700      -0.00232220       0.00564447      -0.01123354
H        8.93939519       2.46427531       7.08015416      -0.00107974       0.00821568      -0.00571421
H        8.94927508       1.24255354       5.78617811      -0.00802241       0.01483877      -0.01191726
H        8.00199621       2.72431284       5.60552655      -0.00715835       0.01771805      -0.00066564
H        6.83436490       2.72642699       8.54949401       0.00539898       0.00285304       0.00487840
H        5.41213778       1.73185392       8.16150279       0.00264870       0.00636742       0.00570706
H        5.91174156       3.04422252       7.07081405      -0.00084548       0.01225628       0.01017310
H        6.08018443       1.23858296       5.31863391      -0.01272240       0.02911761      -0.00378922
O        2.79376549       2.98936929       9.65779749       0.00354987       0.00130069       0.00117692
C        2.60275074       4.13817564       8.81931285      -0.00164317       0.00044385       0.00130418
C        3.73764703       5.13317521       8.99614415      -0.00455469       0.00422025      -0.00127356
C        2.43805044       3.72878032       7.36606539      -0.00328122      -0.00020310       0.00165600
H        1.67047846       4.58506892       9.16889732      -0.00234765      -0.00234884       0.00326411
H        3.54764902       6.03673290       8.41302585      -0.00920706       0.00361359      -0.00065626
H        3.84893416       5.41285549      10.04448367      -0.00276723       0.00438551      -0.00162238
H        4.68304593       4.69796316       8.65760211      -0.00392164       0.00736462      -0.00370659
H        2.20673572       4.60982341       6.76211342      -0.00488047      -0.00049239       0.00187287
H        1.62859946       3.00258121       7.26800839      -0.00255628      -0.00120170       0.00282852
H        3.35863558       3.27818804       6.98623196      -0.00318699       0.00079009       0.00055284
H        3.66329620       2.62934115       9.45290963       0.00495054       0.00474120       0.00016998
O       12.40863909      11.86028646       5.30461708       0.01014084      -0.00093044      -0.00716829
C       11.30369876      12.27639106       6.12178205       0.00884783      -0.00196134      -0.00742123
C       10.59364049      11.08411837       6.74411879       0.01340190      -0.00313646      -0.00418037
C       11.74125870      13.28200916       7.17186250       0.00803673       0.00046936      -0.00928676
H       10.61448471      12.77097561       5.43141677       0.00718960      -0.00516829      -0.00751895
H        9.69415081      11.41298676       7.27003036       0.01291449      -0.00474235      -0.00348147
H       10.29229399      10.36535529       5.98219353       0.01435582      -0.00546394      -0.00237246
H       11.24147119      10.57726377       7.46317293       0.01573080       0.00020082      -0.00412394
H       10.87214907      13.65979033       7.71598234       0.00766991      -0.00052618      -0.00880997
H       12.25170982      14.12929621       6.71382780       0.00557356       0.00102314      -0.01098883
H       12.41278093      12.81236355       7.89493404       0.00986063       0.00307557      -0.00938907
H       13.18078492      11.69992088       5.86634492       0.00989251       0.00269509      -0.00832197
O        7.31233482       6.03123538       1.90001228      -0.00127408       0.00214309      -0.00636163
C        7.97600700       4.76901860       1.75247900      -0.00094709       0.00140017       0.00107607
C        7.11090954       3.78503393       0.98502744       0.00260508      -0.00067869      -0.00027749
C        9.34010424       4.96212129       1.11012099       0.00277084      -0.00102502       0.00831154
H        8.10785894       4.41307292       2.77742149      -0.00682678       0.00463264       0.00305796
H        7.59308177       2.80848950       0.90387999       0.00203492      -0.00147448       0.00593502
H        6.14799184       3.64673043       1.47683239      -0.00030406       0.00213011      -0.00519320
H        6.92823634       4.15034120      -0.03088288       0.00859553      -0.00390771      -0.00258350
H        9.88271111       4.01557556       1.06616094       0.00268533      -0.00138059       0.01394759
H        9.93646706       5.67735466       1.67721322      -0.00005687       0.00030132       0.00934224
H        9.22515183       5.33026405       0.08543523       0.00867191      -0.00394223       0.00648209
H        7.16010304       6.37867429       1.01548826       0.00559799       0.00057389      -0.00830473
O        1.07340337       3.66729664       4.11159984      -0.00257561       0.00127774       0.00387317
C        1.56108010       2.44105000       3.56222438      -0.00301032       0.00259161       0.00065790
C        3.03677851       2.25129476       3.86978276      -0.00276279       0.00202870      -0.00102235
C        0.71189386       1.27485164       4.04755664      -0.00240073       0.00135148      -0.00119424
H        1.43220264       2.55908412       2.48140100      -0.00407180       0.00513320       0.00107116
H        3.43409137       1.37376682       3.35760634      -0.00329504       0.00262162      -0.00249534
H        3.61125605       3.12668224       3.56836090      -0.00293525       0.00244147      -0.00056662
H        3.18434842       2.10451195       4.94310280      -0.00193506       0.00073938      -0.00131896
H        1.06531794       0.32752138       3.63494976      -0.00273169       0.00234135      -0.00374709
H       -0.33578123       1.41388922       3.77604153      -0.00268552       0.00185325       0.00019560
H        0.77080431       1.19435064       5.13619680      -0.00133969      -0.00119371      -0.00137791
H        1.36067216       3.69755515       5.03054584      -0.00282365      -0.00156340       0.00426592
O        1.31286298      11.01623588       5.97619041      -0.00516349       0.00191873       0.00436836
C        2.70497475      11.30036023       6.24287850      -0.00435314       0.00003481       0.00188580
C        3.57756452      10.14688812       5.78917228      -0.00785115      -0.00304103       0.00312938
C        3.11988990      12.62053836       5.62038025      -0.00326179      -0.00182098      -0.00110191
H        2.75785101      11.38331604       7.33195214      -0.00308521       0.00228163       0.00184375
H        4.62302385      10.33867644       6.03518376      -0.00717492      -0.00759347       0.00157654
H        3.26863886       9.21283419       6.25914225      -0.01001810      -0.00152948       0.00481631
H        3.51682301      10.02276836       4.70347403      -0.00960857      -0.00448022       0.00329174
H        4.14348219      12.88252786       5.89513304      -0.00219105      -0.00284334      -0.00385298
H        2.45613484      13.42286796       5.94262789      -0.00112525      -0.00003800      -0.00117750
H        3.07611653      12.55899681       4.52908912      -0.00567208      -0.00356614      -0.00100052
H        1.26695984      10.63943079       5.09033993      -0.00608239      -0.00347099       0.00536525
