199
Lattice="19.38570660384546 0.0 0.0 0.0 19.38570660384546 0.0 0.0 0.0 19.38570660384546" Properties=species:S:1:pos:R:3:forces:R:3 energy=-2413388.75 stress="7.879356417106465e-05 0.0001871864660643041 9.112719635595568e-05 0.0001871864660643041 -0.00016876994050107896 0.00023874594626249745 9.112719635595568e-05 0.00023874594626249745 -0.00012790760956704617" pbc="T T T"
Ce       2.65352295      18.42318024      12.39031988      -0.00526017      -0.00204384      -0.01020902
Ce      11.53405280      18.13106530       8.09852461       0.00002307      -0.00715726       0.00340459
O        3.60239155      15.46429967      18.55555342       0.01594323       0.00547504       0.01771307
O        2.57652699      17.39349815      18.32371240      -0.01671863      -0.00828600       0.02384019
O        4.41690054      17.27750214      19.48274439       0.01093102       0.02026176      -0.01640582
C        3.53542872      16.70120287      18.79379102       0.00139882       0.00635945       0.00644145
O        1.69249561      18.11519748      14.26390975      -0.00317377      -0.00587344      -0.00830507
O        1.22986712      19.94813813      13.11791283      -0.01007225      -0.01736808      -0.01038510
O       -0.24203442      19.22359215      14.67601198       0.00242841      -0.00776613       0.00100458
C        0.81080636      19.13231865      14.08664483       0.00215477      -0.01196197      -0.01041877
O       13.34903741      18.33016534       1.43100567      -0.00201154      -0.02115107       0.02421188
O       15.29296388      19.20636981       1.90477225       0.00108767      -0.01147437      -0.02573484
O       14.09906621      18.30988538       3.48305956       0.03525969       0.01280379       0.01540923
C       14.24299905      18.61907959       2.26815748       0.00995290      -0.00782246       0.00720317
Cl      -1.94384418      18.33616043       4.53932677       0.00170439       0.01743156      -0.01056835
Cl      -0.80864356      15.69512465       4.93114431      -0.00878535       0.01598048       0.00010829
Cl       0.83235461      18.04227691       5.34972702      -0.00508994       0.01196751       0.01093745
Cl       0.00855508      17.31352888       2.66700554       0.01304583       0.01096280       0.00492114
C       -0.48836512      17.35497921       4.37431484       0.00032542       0.01470435       0.00130355
Cl       8.11170517       3.47564921       2.36095655       0.00208029      -0.00346756       0.00156420
Cl       6.52679784       1.06530839       2.13712974      -0.00082773      -0.00044340       0.00113407
Cl       7.32902958       2.03057442       4.75188204      -0.00068420       0.00227410       0.00269890
Cl       9.31345003       0.90741427       2.95684830       0.00038809      -0.00259197       0.00378696
C        7.81288580       1.86919035       3.04370830      -0.00038865      -0.00261496       0.00232876
Cl      14.99895168       5.37517206       8.85772808       0.00974441       0.00813238      -0.00194296
Cl      12.79285543       7.23952308       8.58294721      -0.00347699      -0.00807309      -0.00305925
Cl      12.72361886       5.19321127      10.64165265       0.01704808       0.00283116       0.00706470
Cl      12.44476340       4.45294720       7.85090542       0.01156032      -0.01420781       0.01195908
C       13.23772372       5.56571907       8.97365508       0.00858208      -0.00342221       0.00343134
Cl       6.89467528       0.61872853      15.20564198      -0.01406910      -0.00678430      -0.02930278
Cl       5.27703595      -1.46580111      13.94419481      -0.03711341      -0.00826779       0.02806940
Cl       4.16606180       1.16814752      14.33358409      -0.02463955       0.00350375       0.00435613
Cl       4.64881212      -0.55193179      16.63211533       0.00033946       0.03968391       0.02664036
C        5.27014594      -0.05049840      15.10103003      -0.02233252       0.00874976       0.00783432
Cl       0.76579605      10.59406293       1.22160802      -0.00378484       0.00336912       0.01367134
Cl       2.20986291      12.77678914       2.47691353       0.00451361      -0.00012958       0.00894140
Cl       3.52832377      10.22676870       2.04061347      -0.00357062      -0.00423956       0.01103486
Cl       1.44624849      10.46334157       4.04354102      -0.00082569       0.00609760       0.01293516
C        1.98886093      11.01515066       2.43651652      -0.00084829       0.00062525       0.01135018
Cl       4.84951180       5.29998379       7.45625450      -0.01500571      -0.01002029       0.00218274
Cl       3.93731991       7.38222019       9.24806038      -0.00215548      -0.00536001       0.00325558
Cl       2.37134034       4.96430089       8.94830812      -0.01636207       0.00287575       0.00315963
Cl       2.51109772       6.86484334       6.77114883      -0.00565842       0.00359628       0.00451082
C        3.41850589       6.13821380       8.09780047      -0.00983505      -0.00216123       0.00362501
Cl      17.70167138      14.07147549       1.25762847       0.01901871       0.01087597       0.02624440
Cl      14.91779668      13.74974114       0.52756496       0.03208140      -0.02272829      -0.00901590
Cl      16.26226210      16.26452482      -0.00881672       0.00669798      -0.00359052       0.01330712
Cl      15.64285199      15.52650989       2.70180029      -0.01614949      -0.01906985       0.00292039
C       16.12901981      14.90808486       1.12875297       0.01078426      -0.00873430       0.00801952
Cl       6.58626430       9.66892032      17.04504075       0.00855768      -0.00138974      -0.00130089
Cl       4.79236424       8.46023701      15.12435115      -0.00734238       0.00577445       0.00797087
Cl       3.98136029       8.71891267      17.89636063       0.01038525       0.00622448       0.01192933
Cl       6.03871665       6.81932030      17.15948734       0.00099593       0.00008076      -0.00139928
C        5.34315480       8.41396888      16.80386946       0.00341220       0.00223268       0.00471876
Cl       9.36395800      15.93622109       7.77669873       0.00834274      -0.00305172      -0.01562651
Cl       7.50625577      17.97950950       8.70563381       0.00150388      -0.00994976      -0.00496719
Cl       9.20887044      18.54758659       6.39507690      -0.00224411       0.00328848      -0.00299669
Cl      12.57233228      18.19529804      10.44105910      -0.01100890      -0.00949063       0.00735655
C        9.07170535      17.70237921       8.02293192       0.00116181      -0.00132231      -0.00897196
Cl      14.65047525       7.68728210      14.59969074       0.00556487       0.00094026       0.00004840
Cl      16.53367864       6.88669616      12.54362904      -0.00616840       0.00221035      -0.01172994
Cl      16.60760419       9.58044668      13.61152954      -0.00118861       0.00245962      -0.01185334
Cl      14.39904892       8.74934429      11.91970506      -0.01013243       0.00128277       0.00145513
C       15.54859544       8.22142738      13.16579631      -0.00294125       0.00152773      -0.00535392
Cl       1.35094261      15.51181803      17.01275152      -0.00384387      -0.01550527      -0.00666090
Cl      -0.23907366      15.58779851      14.63250177       0.00328685      -0.02759963      -0.01384789
Cl      -1.23674438      14.28534142      16.98498245      -0.01529157       0.01003483      -0.00537080
Cl       3.89586496      16.30494904      11.60263322       0.01378265       0.00370377      -0.00957003
C       -0.01075563      15.12057790      16.21510581      -0.00586036      -0.00824217      -0.00765032
Cl      12.00957128      10.58304336       6.41846980       0.01152766       0.00982311       0.01459622
Cl      10.10225106       9.82387489       8.46317996       0.00260519       0.00466850       0.00400880
Cl       9.25939751      10.02431354       5.69482850       0.01567569       0.00614280       0.00002608
Cl       9.90100645      12.42439669       7.19215886       0.00489578       0.00562847       0.00547575
C       10.31689905      10.71252284       6.93238683       0.00874708       0.00668484       0.00579369
Cl       3.28687856       3.71450258       3.67123692       0.00166811       0.00426394       0.00038767
Cl       1.01446288       1.91510569       3.58482356       0.00282621       0.00233810      -0.01665464
Cl       1.97327696       2.92508814       6.12912515      -0.01061684      -0.00471270      -0.00902617
Cl       3.55370208       1.00029005       4.63884611      -0.00077155       0.00201571      -0.00621237
C        2.45360807       2.38711352       4.50507569      -0.00192344       0.00079770      -0.00836720
Cl      15.35331202       4.16402682      14.90363825      -0.00520836       0.00653914      -0.00472778
Cl      14.95490560       1.29340652      15.06696447      -0.02192104       0.00822628      -0.00384855
Cl      17.33418975       2.38069530      13.80012313      -0.00471473      -0.00867428       0.02015236
Cl      14.75049205       2.63831940      12.50478080       0.01136327       0.00504173      -0.00853527
C       15.60456774       2.62271992      14.06715629      -0.00615545       0.00336909       0.00053635
Cl      11.85016016      15.89145342       2.26401081      -0.00802240       0.00059396      -0.01201937
Cl      10.90253428      13.45518001       1.03105682       0.01239765      -0.01625618       0.00569928
Cl       9.86799404      14.24732643       3.62146663       0.00108510      -0.00257873      -0.00269353
Cl      12.59252037      13.31563718       3.38336171       0.00814718       0.01522130       0.01067272
C       11.30030331      14.24221346       2.57547995       0.00322371      -0.00096441      -0.00021969
Cl       7.03121241       6.78919060      11.76011544      -0.00448683      -0.00192712       0.00994840
Cl       8.35999468       8.11811245      13.97188575       0.03594281      -0.00180757       0.00888807
Cl       9.82387382       6.24153795      12.31478200      -0.01480266       0.00718524      -0.01185738
Cl       7.76731163       5.28305491      14.12668012       0.01657158      -0.00827116      -0.01245138
C        8.24962486       6.60799234      13.04473180       0.00102405       0.01293409       0.00742516
Cl      10.23222242      16.53905083      17.66674690       0.00576413      -0.00214095      -0.00848693
Cl      11.18249783      14.70058073      15.62790997       0.01644477      -0.00709715       0.00146842
Cl      12.93771481      15.52575487      17.78894173       0.01032513       0.01345436      -0.00136060
Cl      12.19635776      17.42207446      15.72232083       0.00161634      -0.00259307      -0.01379991
C       11.63669345      16.03919655      16.71251232       0.00867505       0.00087303      -0.00519551
Cl      12.42875814      14.58279407      11.58229677       0.00099081      -0.00485095       0.00084627
Cl      12.31952732      11.82640507      10.69814352       0.00381088      -0.00711355       0.00931151
Cl      13.78848999      12.52737480      13.10524781      -0.00096874       0.00011611       0.01024231
Cl      14.81046113      13.29642183      10.50662681       0.00270373      -0.00646754       0.00807069
C       13.33394724      13.05266322      11.47672057       0.00212550      -0.00473066       0.00733898
Cl      16.57651207       9.44362827       2.52499282      -0.01221232       0.00772789      -0.00124967
Cl      17.79000186       7.13682637       1.24908444       0.00004891       0.00870010       0.00989462
Cl      16.72934944       9.30438229      -0.36597690      -0.00423927      -0.00114429      -0.00059348
Cl      14.92557394       7.54714400       1.07705085      -0.00098944      -0.00399128       0.00092631
C       16.50727384       8.35704946       1.12454185      -0.00440454       0.00304475       0.00200092
Cl       9.99713127       3.72296380      17.54553979      -0.01579806       0.01277396       0.00761280
Cl      10.05477630       6.54980846      16.91616222       0.00310951       0.01045510      -0.00140524
Cl      12.39535951       4.90562770      16.42176465      -0.01030585      -0.00792153      -0.00201279
Cl      11.61393539       5.52478028      19.14407063       0.00167459       0.00626914      -0.00218591
C       11.01673761       5.18084954      17.50169729      -0.00519464       0.00507242       0.00067641
Cl      10.92670349      10.91072964      18.06049714      -0.01026228      -0.01868090      -0.01110858
Cl      13.61521906      11.69855826      17.29883647      -0.02558491       0.01389292      -0.00249793
Cl      11.87657940      10.40966574      15.37217400      -0.02847733      -0.03756425      -0.00052887
Cl      12.95215460       8.89421545      17.60769915       0.00578856       0.01654851       0.01149249
C       12.34192530      10.47499170      17.08511174      -0.01137577      -0.00162911      -0.01479182
Cl      15.82899974       1.12491625       9.03738027      -0.00187713       0.01377081      -0.01024550
Cl      18.50572988       0.05483202       8.67210481      -0.00556755       0.00688237       0.00329898
Cl      18.14461842       2.76989861       9.63128495      -0.00006486       0.00803107      -0.00180227
Cl      17.49529388       2.10119249       6.87873772       0.01252434       0.00869308      -0.00558883
C       17.48732802       1.51406569       8.54194195       0.00088437       0.01041519      -0.00491530
Cl      18.75742620       7.59484617       4.96371854       0.01399481       0.00851238      -0.00545426
Cl      16.16466920       6.31877695       5.19322731       0.00522459       0.02612621       0.00330917
Cl      18.21019159       5.82112073       7.18904237       0.01089722       0.00168213      -0.01039255
Cl      18.50496613       4.74640691       4.51282336      -0.00924291       0.01169604      -0.01403341
C       17.90526313       6.11699983       5.46417529       0.00518395       0.01296169      -0.00685295
Cl       0.79755037      11.60767954      14.54192025       0.00860918      -0.00029248       0.00062954
Cl       3.18858752      10.76742679      13.12850447       0.00888079       0.00665498      -0.00293198
Cl       3.40646657      12.46168365      15.47973170       0.00856635      -0.00070761       0.00093833
Cl       2.34602533      13.52620760      13.00128968       0.00668045       0.00465864       0.00302818
C        2.44284438      12.09340075      14.03739399       0.00760815       0.00277598       0.00070905
Cl       8.53458121      13.68682140      11.08512072       0.00657302      -0.00642878       0.00231752
Cl       5.71860677      12.99320244      11.05322532       0.00510353       0.00058475      -0.01862380
Cl       7.20671033      12.87888152      13.53797577      -0.01559051       0.00477496      -0.00681770
Cl       7.71714080      10.92528883      11.46071928      -0.00375679      -0.00367421       0.00361194
C        7.28813152      12.62593817      11.78378799      -0.00183257      -0.00100306      -0.00525438
Cl      19.64576042       9.83367629       8.18757616      -0.00196721       0.00177681      -0.00735185
Cl      19.81351537      10.40013640      11.03012255      -0.00206091      -0.00723258      -0.00645271
Cl      19.43659670       7.68386702      10.11870060       0.00237239      -0.00528729      -0.01553504
Cl      17.28718030       9.61285885       9.85996485      -0.00160664      -0.00791307      -0.01009686
C       19.04134583       9.38634675       9.79872177      -0.00099717      -0.00449532      -0.00892015
Cl      -0.21895656       5.55034964      15.38340716      -0.00030476      -0.01433501      -0.00472194
Cl       2.67384798       5.57383134      15.59785791      -0.00154871      -0.00983799       0.01008609
Cl       1.38074168       6.71549099      13.26447401       0.00906556      -0.01567659       0.00120285
Cl       1.37713812       3.83284174      13.67138020       0.01005730      -0.01464385       0.00553912
C        1.30608334       5.42337287      14.48611320       0.00441889      -0.01351633       0.00324851
Cl       4.56217342       2.91768822      10.99222290       0.00420336       0.00402493      -0.00940082
Cl       2.43526110       1.14832849      10.08147674      -0.00062671       0.00408046       0.00485775
Cl       5.05579283       0.06911149      10.68105001       0.00028929       0.00246024       0.00295597
Cl       4.68672759       1.74529681       8.34294370      -0.00439760      -0.00643948      -0.00504220
C        4.20837027       1.51662981       9.99974643      -0.00028747       0.00145367      -0.00248456
Cl      12.36353091      16.77878235       5.65919065       0.00698081       0.00100574      -0.00475666
Cl      12.54958770      20.22465698       7.14665544       0.00321707      -0.00691891       0.00921956
Cl      15.02244042      16.84068207       6.88844550       0.00541894       0.00613241      -0.00207662
Cl      12.87247811      15.29056362       8.14203152       0.00345890       0.00669502       0.00083429
C       13.32717474      16.75625260       7.19587705       0.00538051       0.00514072      -0.00362143
Cl       8.99030071      -0.03709158      11.70947648       0.01132694      -0.00569475      -0.00476071
Cl      10.10116097       1.35829361       9.38213489       0.01034123       0.00516655      -0.00094652
Cl      11.02881000       1.98418244      12.06548461       0.00983644      -0.00245778      -0.00435472
Cl       8.36257268       2.75347603      11.22477127       0.00559586      -0.01061422       0.00719840
C        9.61515227       1.51291465      11.12903971       0.00880665      -0.00504166      -0.00099604
Cl       4.00563128      14.75738718       7.73810622      -0.00346416      -0.00060220      -0.00476956
Cl       1.78633753      13.41345917       6.44476036      -0.00709960       0.00150374      -0.00160593
Cl       1.29173223      15.67563680       8.19268918      -0.00255838      -0.00263196       0.00457285
Cl       2.16918470      13.15869871       9.31332375       0.00071897      -0.00429052      -0.00314283
C        2.31469518      14.25432364       7.91931011      -0.00298509      -0.00145626      -0.00144089
Cl       1.89059250       2.29724802      17.16674200      -0.01360106      -0.02378684       0.00654972
Cl       1.90293514       3.97568993      19.52595150       0.00410402      -0.01465848       0.00623795
Cl       4.40170629       3.34392551      18.19280232      -0.00779927      -0.00435811      -0.01950860
Cl       2.98580141       1.27737364      19.64448963       0.01385199      -0.01008654      -0.00691247
C        2.78999620       2.71380904      18.64155519      -0.00134584      -0.01120681      -0.00432695
Cl      16.17684675      10.42107738       6.46291544      -0.01140956       0.00603437      -0.00987024
Cl      17.39044907      12.34732335       4.67653566      -0.00744998       0.00525218      -0.00895357
Cl      17.34590104      12.86199050       7.52849130       0.00382364      -0.00270164      -0.00719577
Cl      14.88691774      12.97588107       5.99996809      -0.00021884       0.01372749       0.00107052
C       16.44583357      12.15033470       6.16737726      -0.00354642       0.00568980      -0.00640831
Cl       3.64082284      10.42398000       7.25502725      -0.00011361      -0.00351072      -0.00572333
Cl       5.62265397      11.89559175       5.74472844      -0.00156392      -0.01437950      -0.01840234
Cl       5.59069706       9.00058269       5.64688249      -0.00520971      -0.01493955      -0.00150183
Cl       6.40667545      10.36130783       8.07897823       0.00155851      -0.00306954      -0.01110327
C        5.31675156      10.42100549       6.68155811      -0.00140950      -0.00885033      -0.00926238
Cl       5.85324891       6.61488231       2.50739467      -0.00455040       0.00337724      -0.00047433
Cl       8.15371412       6.42364284       0.73967177      -0.00037470       0.01449966       0.00480112
Cl       8.45633347       7.53641820       3.39156645      -0.00901240       0.00777610       0.00834334
Cl       7.00624942       9.00758263       1.35112072      -0.00823972       0.01016286       0.00909454
C        7.36576104       7.39342033       1.99695956      -0.00553739       0.00923672       0.00554880
Cl      14.95006335      16.64854536      13.13913818      -0.01656246       0.01629853      -0.00314450
Cl      19.99437764      17.41126879      11.21460533      -0.00223514      -0.00329216      -0.01168266
Cl      17.07215033      18.54272251      12.92128969       0.02040476      -0.02019233       0.02993897
Cl      16.07314319      17.21512125      10.58202854       0.01512570       0.02257343       0.01207894
C       16.03503531      17.48907716      12.20939902       0.00627506       0.00457708       0.01405573
Cl       6.80505400      14.97831324       5.01087783      -0.01469563       0.00556064       0.00816458
Cl       5.78929487      17.67922560       5.23448594      -0.01960181       0.00071299       0.00074577
Cl       5.07217667      16.05743123       2.93762054      -0.01109737      -0.00388533      -0.00092655
Cl       7.76599588      17.04438853       3.21073125      -0.01070690       0.00162065       0.00932765
C        6.34701946      16.43536345       4.07561824      -0.01481318       0.00110333       0.00225487
