197
Lattice="14.309631907252447 0.0 0.0 0.0 14.309631907252447 0.0 0.0 0.0 14.309631907252447" Properties=species:S:1:pos:R:3:forces:R:3 energy=-2035168.75 stress="0.0006926659843884408 -0.00012278400390641764 0.00014975430531194434 -0.00012278400390641764 0.0002799187204800546 6.293903243204113e-05 0.00014975430531194434 6.293903243204113e-05 0.0006310990429483354" pbc="T T T"
Cf      12.35598859      13.39866448       7.79211086       0.01208967       0.00339235      -0.00863164
Cf       5.54463552      13.84468961      11.12583825      -0.01797467      -0.01725980      -0.00805950
S       13.68506871      13.89830601      10.29570284       0.02260900       0.02314307      -0.01777554
O       13.22590003      14.62639360      11.44400480       0.02140778       0.02315980      -0.02429843
O       13.55551649      14.77118591       9.01276762       0.01686412       0.01412928      -0.02353716
O       15.02809816      13.35772907      10.37763941       0.02998495       0.03344613      -0.01691343
O       12.69702903      12.78000588       9.90572892       0.03350586       0.01046765      -0.01128325
S        7.71633054      12.65566031      11.87296953       0.02461372      -0.00130072       0.00575110
O        7.59727998      13.21420516      10.45055330      -0.00815749       0.00112763      -0.00594348
O        6.62188566      11.65557441      11.95157317      -0.00515860       0.00106436       0.00109232
O        9.02726866      12.21457872      12.22795890      -0.02494711       0.02000827      -0.00558138
O        7.17746000      13.84336709      12.67137121      -0.01273552       0.00880152      -0.00569248
S       12.86921511      13.05122681       4.99379951       0.00585374      -0.01523409      -0.00814456
O       11.54756252      13.39600780       5.72823850       0.00778461      -0.00949232      -0.00732759
O       13.81612152      13.04175343       6.22852774       0.00750506      -0.01335665      -0.00875175
O       12.79662904      11.72681422       4.43089420       0.00300947      -0.01362157      -0.00592661
O       13.22313959      14.11982587       4.09909480       0.00773692      -0.01553798      -0.01066220
O       10.13225424       2.47510012       4.24441219       0.00744537      -0.00526774      -0.00199091
C        9.16680265       1.47212325       4.48312821       0.00534117      -0.00272670       0.00067338
C       11.23409514       2.40336510       5.14270032       0.00713128      -0.00544947      -0.00181879
C        8.11800860       1.55874009       3.39890590       0.00451064      -0.00243041       0.00141102
C       12.35207419       3.24791603       4.58461492       0.00584480      -0.00197309       0.00088179
H        9.64851134       0.48571852       4.48970464       0.00313154      -0.00381333       0.00201789
H        8.70867204       1.61554264       5.47744756       0.00658277       0.00044324       0.00077832
H       10.91713874       2.76339680       6.13602630       0.00623129      -0.00853044      -0.00093377
H       11.55889126       1.36464989       5.23927371       0.00898470      -0.00534034      -0.00421409
H        7.34996973       0.79789243       3.54622622       0.00316554      -0.00075541       0.00355055
H        7.63953455       2.53917876       3.39943478       0.00639720      -0.00151110       0.00010030
H        8.57458945       1.40310166       2.42118301       0.00326683      -0.00506433       0.00127111
H       13.19985086       3.26060034       5.26918796       0.00464314      -0.00034807       0.00241633
H       12.68743237       2.83114034       3.63582508       0.00861228       0.00015165       0.00083785
H       12.02335072       4.27535628       4.42212966       0.00306691      -0.00276054       0.00158427
O        2.46439257       6.35918575       1.63149811      -0.00043087       0.00141028      -0.00079608
C        1.92128332       7.44047892       0.89561255      -0.00211643       0.00087178      -0.00035137
C        2.45199862       5.15301205       0.89192940      -0.00139008       0.00090051      -0.00018293
C        1.98969946       8.68910818       1.73692658      -0.00146851       0.00133112      -0.00088507
C        2.95460298       4.03628556       1.77335172       0.00052366       0.00156367      -0.00037342
H        2.48581037       7.56818692      -0.04178733      -0.00363237       0.00081393      -0.00132525
H        0.88202990       7.20937232       0.61671257      -0.00247675       0.00026873       0.00138394
H        1.42920914       4.94069391       0.54537999      -0.00191349       0.00041319       0.00169539
H        3.08232192       5.25999913      -0.00428140      -0.00294319       0.00056235      -0.00138360
H        1.57146595       9.53203308       1.18717240      -0.00296155       0.00090750      -0.00041761
H        1.41392526       8.56596853       2.65418541       0.00018804       0.00128240       0.00020015
H        3.02233604       8.92174179       1.99708963      -0.00110230       0.00201120      -0.00264817
H        2.97625165       3.09892737       1.21672049      -0.00043746       0.00114141       0.00022905
H        3.96257350       4.25434815       2.12745640       0.00118697       0.00193320      -0.00241145
H        2.30470463       3.91020996       2.63904042       0.00217131       0.00209046       0.00101282
O        5.63275574       9.06177233       5.58755118       0.00056243       0.00254112       0.00199747
C        6.52856764       8.20251286       6.26166978       0.00083904       0.00265771       0.00190036
C        6.19940540      10.33299917       5.32167922       0.00069788       0.00233287       0.00083497
C        5.88856202       6.84192832       6.38663432      -0.00027949       0.00329039       0.00458318
C        5.19498279      11.15726976       4.55644349       0.00092745       0.00161651      -0.00044128
H        7.47333285       8.13545736       5.70097173       0.00000316       0.00112186       0.00071087
H        6.76809769       8.61357683       7.25520054       0.00259385       0.00377639       0.00101376
H        6.47774945      10.82071470       6.27003386       0.00029571       0.00343949       0.00044447
H        7.12315567      10.20991598       4.73772728       0.00093886       0.00172906       0.00132367
H        6.55906039       6.15359974       6.90256507      -0.00019042       0.00331611       0.00449670
H        4.95549273       6.90743333       6.94799023       0.00054377       0.00488775       0.00582708
H        5.67093751       6.43460864       5.39896108      -0.00208882       0.00228101       0.00535902
H        5.60541215      12.14514315       4.34378583       0.00090206       0.00143725      -0.00095606
H        4.95691866      10.67099585       3.61141177       0.00144647       0.00077392      -0.00026962
H        4.27619217      11.28015945       5.13142828       0.00053091       0.00192032      -0.00104566
O        9.30244705       3.19125561      12.70488785       0.00590114      -0.00014478      -0.00131774
C        9.11164582       3.94987248      13.87997119       0.00132310      -0.00608450       0.00163174
C        9.74765828       1.86878068      12.98336307       0.00936079      -0.00024796      -0.00615245
C        8.68222197       5.34180307      13.48808698      -0.00046389      -0.00510442       0.00691330
C       10.03785800       1.17354229      11.67815398       0.00630668       0.00227785      -0.00806701
H        8.35734613       3.46945806      14.52294162       0.00031209      -0.01038721      -0.00272661
H       10.04766836       3.98399763      14.45762173      -0.00045747      -0.00721990       0.00503039
H       10.65160660       1.90892361      13.60764755       0.01138932       0.00033212      -0.00919268
H        8.97437459       1.33121488      13.55069382       0.01242304      -0.00304526      -0.00463033
H        8.54935630       5.96464450      14.37386058      -0.00437860      -0.00946739       0.00940523
H        9.43514906       5.81250344      12.85651826      -0.00008482      -0.00036084       0.01095222
H        7.73804830       5.31107476      12.94236745       0.00097625      -0.00444771       0.00442129
H       10.37797819       0.15500910      11.85945150       0.00927556       0.00282529      -0.01029900
H        9.13689743       1.13670150      11.06351590       0.00330076       0.00089966      -0.00412975
H       10.82537815       1.69580860      11.13628508       0.00274959       0.00514543      -0.01049872
O       13.34766982       6.32434861       6.50558919      -0.00052804       0.00180614       0.00270483
C       12.56317173       5.64978422       7.46922425      -0.00096354       0.00057465       0.00148439
C       12.57377187       7.18435385       5.68693218      -0.00086099       0.00013399       0.00106418
C       13.45674267       4.73651496       8.27268062      -0.00100940       0.00186428       0.00300428
C       13.46717239       7.80309989       4.64156657       0.00004855       0.00265549       0.00315216
H       12.06528549       6.38156010       8.12606216      -0.00320810      -0.00012675       0.00060320
H       11.76999043       5.07663241       6.96690163       0.00067210      -0.00057450       0.00013503
H       11.75866353       6.61452757       5.21683276       0.00167555      -0.00175428      -0.00098753
H       12.10526747       7.96371069       6.30542901      -0.00431289      -0.00121590       0.00014353
H       12.87736594       4.19276746       9.01935231      -0.00164291       0.00082988       0.00184822
H       13.94468162       4.00785252       7.62525677       0.00141839       0.00256987       0.00399646
H       14.22875144       5.31291408       8.78367087      -0.00290127       0.00297566       0.00472046
H       12.90179249       8.51150959       4.03627669      -0.00004134       0.00249480       0.00304746
H       14.28735939       8.34497246       5.11246499      -0.00159001       0.00362575       0.00504027
H       13.88799912       7.03280937       3.99442796       0.00229784       0.00390680       0.00303414
O        5.33407405       9.54419838       1.42107147       0.00040568       0.00165570      -0.00321394
C        5.73591169       8.22936383       1.07809224      -0.00025190       0.00093430      -0.00150976
C        5.03639090      10.32274334       0.27189369      -0.00235093      -0.00032300      -0.00370703
C        5.96774972       7.44394906       2.34502241       0.00062750       0.00295237      -0.00027925
C        4.57835195      11.68986490       0.71880938      -0.00254126       0.00001743      -0.00451052
H        4.95094487       7.75162684       0.47239347      -0.00112414       0.00010148       0.00011688
H        6.64477374       8.27054637       0.46119501      -0.00080007      -0.00058322      -0.00242892
H        5.91681546      10.40012577      -0.37507038      -0.00355041      -0.00060036      -0.00538653
H        4.24646121       9.82341008      -0.31027938      -0.00318208      -0.00173062      -0.00156197
H        6.28904268       6.43018432       2.10052473       0.00081303       0.00263816       0.00114640
H        6.73681584       7.91697403       2.95652552       0.00086296       0.00412981      -0.00145135
H        5.04957113       7.38471381       2.92856486       0.00095376       0.00363501       0.00032583
H        4.32199863      12.29981969      -0.15031728      -0.00461337      -0.00081684      -0.00462356
H        3.69747159      11.61733534       1.35748738      -0.00140443       0.00006581      -0.00284909
H        5.36663972      12.20039229       1.27127416      -0.00191535       0.00121444      -0.00649555
O        3.47236685      10.03286424       9.43105884      -0.00606707      -0.01077579       0.00043994
C        3.88717461      10.95338538       8.44314934      -0.00440729      -0.00555140       0.00608802
C        2.14254718       9.58118755       9.22943503      -0.00752944      -0.00655225      -0.00015536
C        5.14957495      11.59743197       8.97039029      -0.00214547      -0.01302297       0.00976174
C        1.76846140       8.69816273      10.39356491      -0.01019578      -0.00615838      -0.00054401
H        4.07226108      10.44350410       7.48766984      -0.00685748       0.00051561       0.00242823
H        3.10168174      11.70644381       8.27918491      -0.00152367      -0.00128636       0.01325184
H        1.47498586      10.44904965       9.16831384      -0.00509843      -0.00466621       0.00018655
H        2.07242935       9.03516028       8.27671895      -0.00916884      -0.00592655      -0.00041807
H        5.43530610      12.48033768       8.39441797      -0.00574073      -0.00349124       0.02304403
H        4.95017517      11.82239564      10.02807279       0.00372680      -0.03186855       0.01473711
H        5.99210518      10.90477130       8.98990435      -0.00061746      -0.01103532      -0.00563406
H        0.75797823       8.30851668      10.26358560      -0.01095541      -0.00398164      -0.00128242
H        2.45874305       7.85716778      10.47534550      -0.01197258      -0.00766657      -0.00020798
H        1.80446975       9.26627493      11.32330991      -0.00950797      -0.00629620      -0.00026225
O       10.98940575       7.84730744      12.33826359      -0.00213084      -0.00221649       0.00161561
C       12.32053728       7.94596185      11.88560935      -0.00211143      -0.00228041       0.00202902
C       10.24714076       9.04523723      12.14593271      -0.00094533      -0.00076168       0.00265166
C       13.03092558       6.65393663      12.21324584      -0.00212847      -0.00253445       0.00157098
C        8.83977590       8.81390168      12.63300652      -0.00154060       0.00051077       0.00281346
H       12.33598205       8.13090627      10.79909897      -0.00174205      -0.00161202       0.00209820
H       12.81983738       8.80259163      12.36294426      -0.00198470      -0.00243366       0.00270271
H       10.71700144       9.87286784      12.69205384       0.00071278      -0.00048307       0.00144356
H       10.24566438       9.30788862      11.07793406      -0.00081674      -0.00052191       0.00274760
H       14.07126034       6.69401790      11.88637448      -0.00197813      -0.00251466       0.00174006
H       13.01089325       6.47671154      13.28888047      -0.00234469      -0.00299250       0.00148931
H       12.54148053       5.81301085      11.72120717      -0.00215992      -0.00218676       0.00105499
H        8.23736496       9.70801515      12.48075939       0.00009994       0.00150675       0.00249700
H        8.37842479       7.98500564      12.09454354      -0.00329214       0.00085150       0.00340638
H        8.84861475       8.57299682      13.69600885      -0.00166350       0.00115602       0.00299393
O       10.90255887      11.29217034       1.11377255      -0.00064792       0.00507057       0.00117134
C        9.86639591      12.24298858       1.25113181      -0.00142473       0.00482563      -0.00086885
C       12.17426913      11.92266914       1.07331665      -0.00115591       0.00582990      -0.00101256
C        8.54103327      11.52235356       1.27407211      -0.00107092       0.00369969      -0.00039256
C       13.24141255      10.85750059       1.07043003       0.00002769       0.00689811       0.00484728
H       10.01872826      12.81729292       2.17826664      -0.00240843       0.00592130      -0.00119144
H        9.89856400      12.95127054       0.41081592      -0.00167226       0.00357154      -0.00167495
H       12.24234485      12.55232277       0.17378519      -0.00121878       0.00171363      -0.00397128
H       12.29828876      12.57045585       1.94892583      -0.00200657       0.01012731      -0.00401676
H        7.72593191      12.24089531       1.36706761      -0.00161870       0.00338446       0.00003200
H        8.39910598      10.96509311       0.34855578      -0.00103248       0.00392175      -0.00039437
H        8.48920388      10.82547397       2.11164763      -0.00028717       0.00366387      -0.00035660
H       14.22347578      11.32519881       0.99444090      -0.00050016       0.00757065       0.00171166
H       13.20559493      10.28953219       1.99934063       0.00115452       0.01181826       0.00766084
H       13.10837851      10.17634655       0.22731086       0.00018512       0.00211108       0.00896764
O        4.65541097       1.90425859       7.92202424      -0.00416383       0.00103647       0.00104476
C        4.64756688       1.13123083       9.08259508      -0.00487643      -0.00027822       0.00027197
C        5.96518627       2.35115360       7.56040643      -0.00434685       0.00163333       0.00189978
C        3.27750120       0.52515540       9.29011638      -0.00448823      -0.00220826      -0.00371023
C        5.87312200       3.04975002       6.22894434      -0.00454880       0.00208101       0.00209004
H        5.42588928       0.33885544       8.94068895      -0.00298385       0.00126737       0.00042053
H        4.94174780       1.76828145       9.95433405      -0.00726168      -0.00177582       0.00197235
H        6.35075895       3.01944264       8.34202698      -0.00485879       0.00134033       0.00239474
H        6.63892978       1.48403024       7.50325866      -0.00400291       0.00188154       0.00161912
H        3.19810341      -0.12830493      10.17395868      -0.01224345      -0.00008472      -0.00255394
H        2.52717799       1.29806974       9.44452450      -0.00610490      -0.00322449      -0.00661877
H        2.97856125      -0.07572759       8.43250180      -0.00190454      -0.00275771      -0.00436352
H        6.85460466       3.42203901       5.93352925      -0.00458354       0.00212076       0.00200395
H        5.51931375       2.36238849       5.46049859      -0.00494112       0.00222772       0.00208026
H        5.18454295       3.89294856       6.28260429      -0.00458495       0.00207415       0.00244653
O        3.82508753       4.33594433      10.70357795      -0.00473006      -0.00352336       0.00083616
C        4.50609467       5.11648599       9.73355955      -0.00188202      -0.00158471       0.00446245
C        2.45754049       4.14749916      10.36469308      -0.00435749      -0.00188237      -0.00196251
C        5.91618575       5.36827123      10.20882667      -0.00292647      -0.00259072       0.00836867
C        1.77746237       3.36150848      11.45809455      -0.00754334      -0.00090143      -0.00350535
H        4.49635496       4.58937993       8.76798295       0.00048553       0.00027511       0.00344947
H        3.97667023       6.06931128       9.58570475      -0.00112742      -0.00100362       0.00487124
H        1.97630449       5.12842008      10.23811088      -0.00216332      -0.00087655      -0.00305339
H        2.38692373       3.63020377       9.39678314      -0.00444817      -0.00303265      -0.00151342
H        6.47226145       5.92899366       9.45614011      -0.00132417      -0.00056283       0.01089574
H        5.91097539       5.94959064      11.13089019      -0.00498644      -0.00459813       0.00976866
H        6.44261821       4.43215748      10.40204147      -0.00297733      -0.00284839       0.00723163
H        0.75047743       3.12254970      11.18102479      -0.00820595       0.00339381      -0.00468526
H        2.29274633       2.41883731      11.64340397      -0.01105072      -0.00323822      -0.00539954
H        1.76865245       3.92830635      12.38939396      -0.00619157      -0.00242765      -0.00247402
O       11.06471222      11.28005661       7.96092465       0.00535751       0.00410793       0.00659298
C        9.73183607      11.43342928       8.44455527       0.00592951       0.00989401       0.00681025
C       11.79023975      10.16477252       8.47578139      -0.00114375      -0.00134970       0.00368840
C        9.19173808      12.71420525       7.86141223       0.01048811       0.01055235       0.00356802
C       13.17472609      10.22785037       7.88443420      -0.00475818      -0.01464964      -0.00582393
H        9.14634117      10.56948314       8.10581435       0.00244780       0.01149550       0.00881445
H        9.73013538      11.45397650       9.53910724       0.00564252       0.01243133       0.00667906
H       11.81351748      10.22496359       9.56777866       0.00655890      -0.00041121       0.00344932
H       11.26145616       9.25065833       8.17987030      -0.01094788       0.00254297       0.00896981
H        8.14527158      12.82913196       8.13427227       0.01112981       0.01568222       0.00383259
H        9.69859091      13.58535970       8.29342409       0.01445222       0.00969638       0.00069261
H        9.30402391      12.72278095       6.77828485       0.00964893       0.00691763       0.00340211
H       13.73716449       9.32894561       8.14145644      -0.00971068      -0.01790312      -0.00594679
H       13.13539337      10.31882782       6.79803247      -0.01164307      -0.01875866      -0.00577313
H       13.73026664      11.07326343       8.29720436       0.00345004      -0.01624188      -0.01435031
