197
Lattice="14.462438384550381 0.0 0.0 0.0 14.462438384550381 0.0 0.0 0.0 14.462438384550381" Properties=species:S:1:pos:R:3:forces:R:3 energy=-819296.9375 stress="0.0014414911856874824 -0.000426011931267567 -0.0003818084951490164 -0.000426011931267567 -0.00023160965065471828 1.886725385702448e-05 -0.0003818084951490164 1.886725385702448e-05 0.0011292769340798259" pbc="T T T"
Dy      13.19974137      13.53655702       6.98834431      -0.00368886      -0.00367428      -0.02686207
Dy       7.87025328      14.04234869       9.08065383       0.02416606       0.00455666      -0.01281199
S        6.21184629      12.68087483       6.93023981      -0.00842994       0.03581339       0.01524349
S        8.15541429      13.39534703       6.50720292       0.00023448      -0.00336432      -0.01488018
O        6.29859382      12.49828707       8.44276306       0.02450058      -0.00722170       0.00539601
O        5.98862685      11.43427710       6.25330231      -0.00163603      -0.02204454       0.00148523
O        5.28000182      13.76346959       6.64947376       0.01921928      -0.02643538       0.02342901
S        2.15163247      12.88197852       1.71930160      -0.01315764       0.01968240       0.01894152
S        3.66455314      12.98409537       3.12885202      -0.01026380       0.00298033       0.00968325
O        2.52345823      13.77671549       0.62829836      -0.02942413       0.01916194       0.01257539
O        0.94722262      13.32803989       2.44683743      -0.01812220       0.00326127       0.02672863
O        2.10220871      11.47130359       1.34754424       0.01873589       0.01993108      -0.00453353
S       10.97338420      14.30791017       9.76867430       0.01100807       0.00581869      -0.03983954
S        9.88854073      12.85246456      10.62671908       0.03548327       0.01154727      -0.02130699
O        9.99890757      15.14754900       9.01743549       0.02688902      -0.00308409      -0.04161713
O       11.87344137      13.67075378       8.69713116       0.02480660       0.00224177      -0.01639646
O       11.79072662      15.03434048      10.69818525       0.02039525       0.02463815      -0.02379975
C        9.03807858       3.11051491      13.54801214       0.00048411      -0.00652379      -0.00115025
C        8.00567419       1.98986885      13.58384492       0.00024748      -0.00620759       0.00046774
C       10.47291764       2.59857998      13.49993500       0.00046216      -0.00683010      -0.00230020
C        6.56433617       2.47881808      13.65859017       0.00006564      -0.00607616      -0.00069270
C       11.50857793       3.71359355      13.49117182       0.00039500      -0.00667328      -0.00207258
C        5.54977262       1.34766933      13.76010695      -0.00042671      -0.00605398      -0.00362756
H        8.85028621       3.75554206      12.68047598      -0.00020821      -0.00703977      -0.00143740
H        8.90509918       3.74691854      14.43164421       0.00178399      -0.00587027      -0.00156784
H        8.20811692       1.33957468      14.44332850       0.00002410      -0.00468291       0.00187182
H        8.14245641       1.34993193      12.70044971       0.00116154      -0.00782965       0.00180233
H       10.64665626       1.94845533      14.36390639       0.00068102      -0.00782724      -0.00338671
H       10.60714363       1.96758933      12.61672492      -0.00018515      -0.00596060      -0.00347820
H        6.46423909       3.13866857      14.52713785      -0.00100165      -0.00718668      -0.00008619
H        6.34878303       3.10045562      12.78126788       0.00069136      -0.00463666       0.00012985
H       11.35786215       4.38382306      12.64163242       0.00069773      -0.00678110      -0.00221543
H       12.52240274       3.31686384      13.42506305       0.00054619      -0.00629418      -0.00119497
H       11.44517377       4.31687828      14.39859219      -0.00076389      -0.00647577      -0.00194475
H        5.58028837       0.70717433      12.87511939       0.00054130      -0.00466026      -0.00456522
H        5.74576376       0.71489794      14.62730992      -0.00167501      -0.00744618      -0.00421508
H        4.52946540       1.71803918      13.86309752      -0.00056919      -0.00588894      -0.00473183
C       11.99333371       8.37111170       8.70523162       0.00253928      -0.00365749      -0.00003764
C       10.48607064       8.32580332       8.92406119       0.00217253      -0.00295642      -0.00084697
C       12.51078278       7.30080069       7.75479561       0.00335974      -0.00411740       0.00074144
C        9.99912745       9.43215480       9.84872638       0.00262508       0.00001746      -0.00400668
C       14.00539101       7.40841429       7.48485699       0.00293037      -0.00131369      -0.00127857
C        8.48954125       9.46171581      10.03338623       0.00228316       0.00395783      -0.00654480
H       12.26660748       9.35990682       8.31753126       0.00283410      -0.00361210      -0.00045821
H       12.50604049       8.28102309       9.66996096       0.00183879      -0.00348509       0.00051507
H       10.20421040       7.34637290       9.32740904       0.00126012      -0.00185031       0.00138396
H        9.97753044       8.41225043       7.95571481       0.00278689      -0.00513187      -0.00157812
H       12.27819897       6.31529435       8.17112407       0.00612367      -0.00396436       0.00264877
H       11.95926913       7.36398412       6.80971238       0.00204286      -0.00694989       0.00119919
H       10.48997741       9.33039607      10.82260492       0.00091550       0.00108667      -0.00291759
H       10.33221111      10.39480341       9.45323803       0.00539216      -0.00144577      -0.00579892
H       14.25676244       8.37019422       7.03114620      -0.00001647      -0.00148073      -0.00354270
H       14.35138304       6.62604377       6.80701591       0.00396315      -0.00176297      -0.00030276
H       14.57775444       7.32584553       8.41155877       0.00427210       0.00190663      -0.00169280
H        7.97036151       9.60610889       9.08353829       0.00378147      -0.00017119      -0.00809947
H        8.12891142       8.52955751      10.47362779      -0.00058177       0.00759029      -0.00144354
H        8.18920407      10.27529664      10.69782162       0.00294275       0.00896172      -0.01246820
C        1.98045458      10.27864483       4.69958696      -0.00132179      -0.00414494       0.01161334
C        2.19185965      11.32076314       5.79340398       0.00165945       0.00126348       0.00729653
C        3.07254982       9.21614706       4.65544904       0.00134254       0.00074682       0.00548357
C        1.21046818      12.48263326       5.66783376      -0.00133116      -0.00494313       0.00302938
C        2.91552186       8.29986918       3.44673501      -0.00151815       0.00395337       0.00441754
C        1.44774988      13.60334822       6.68365836      -0.00648263      -0.00154102       0.00313250
H        1.00673079       9.78624979       4.82861509       0.00005093      -0.00517568       0.01989614
H        1.94886129      10.78213015       3.72935968      -0.01037936      -0.00380531       0.01177526
H        3.19940022      11.73415248       5.69616321       0.00277704       0.00356019       0.00586463
H        2.13791218      10.85578810       6.78740589      -0.00507609       0.01087530       0.01131636
H        4.04542204       9.71394452       4.61782782      -0.00131762       0.00597826       0.00269148
H        3.06041044       8.62847228       5.58079020       0.00769104       0.00023241       0.00507110
H        1.29089853      12.89070042       4.65384448      -0.00606535      -0.00361563       0.00329351
H        0.17965968      12.05497879       5.73107885       0.00254184      -0.01480899       0.00249365
H        1.96000487       7.76941879       3.47420138       0.00044706       0.00028219       0.00802701
H        3.70842265       7.55003732       3.40363215       0.00170268       0.00843073      -0.00194475
H        2.94121724       8.88386097       2.52505734      -0.00916489       0.00764334       0.00641355
H        1.17212949      13.33593572       7.72483095      -0.01194908       0.00449217       0.00337788
H        2.51713128      13.83671089       6.70781091      -0.00558311      -0.00560979       0.00833537
H        0.94778883      14.55488442       6.40938607       0.00001457       0.00138104      -0.00071761
C        8.90276134       4.76365873       8.39001059       0.00029275      -0.00402728      -0.00168180
C        7.75644440       5.42618047       9.14372720      -0.00143977      -0.00621133      -0.00180125
C        9.88183961       4.00910489       9.28010199       0.00373821      -0.00116617      -0.00266445
C        6.87514133       6.29002056       8.24836303      -0.00061729      -0.00529081      -0.00216818
C       11.04195574       3.41168128       8.49688802       0.01129162       0.01157029      -0.00174409
C        5.69461614       6.90776013       8.98272576      -0.00143909      -0.00463447      -0.00352141
H        8.49404833       4.07640053       7.63875663       0.00220928      -0.00529829      -0.00153823
H        9.45183692       5.52938945       7.82871716      -0.00186598      -0.00255954      -0.00170557
H        8.16239088       6.04416666       9.95307038      -0.00285386      -0.00656940      -0.00062999
H        7.14367430       4.65744086       9.63070794      -0.00165711      -0.00710535      -0.00339942
H       10.26341910       4.68592032      10.05253623      -0.00334452      -0.00144204       0.00127953
H        9.35987606       3.20865756       9.81632452       0.00904466      -0.00722662      -0.00666124
H        7.48730998       7.08130636       7.80351064       0.00025819      -0.00517666      -0.00087591
H        6.51065930       5.68360751       7.41186815       0.00008909      -0.00446579      -0.00306496
H       10.67119919       2.71778616       7.74152378       0.02458295       0.00877768      -0.00556804
H       11.71690720       2.85515800       9.14842625       0.01367915       0.01558647      -0.00077590
H       11.61037362       4.19311121       7.98927341       0.00599869       0.01926963       0.00465813
H        5.06021437       6.13357924       9.41904108      -0.00381327      -0.00404255      -0.00596445
H        6.02845768       7.55546427       9.79522241      -0.00220824      -0.00600249      -0.00205514
H        5.07903907       7.51272896       8.31541827       0.00100969      -0.00271784      -0.00424989
C       12.15356296       8.69783297       2.99512051      -0.02667892      -0.00150052       0.00671932
C       11.59928680       9.94982581       3.66549853      -0.00828430       0.00333828       0.00378202
C       11.40410686       8.31328470       1.72563544      -0.00450069       0.00532848      -0.00215608
C       12.31028936      10.25243767       4.97791375      -0.01330274      -0.00227866       0.00791444
C       11.92634287       7.03396596       1.08672439       0.00280286       0.00724900      -0.00096391
C       11.72433026      11.43918742       5.73815920      -0.02098602      -0.00624372       0.00908028
H       13.21317836       8.84267163       2.76485664      -0.01893309      -0.02589221       0.01556496
H       12.10949196       7.86379249       3.70629136      -0.00803494      -0.00096327       0.00280726
H       10.52833003       9.81805518       3.85694404      -0.00677320       0.00240260      -0.00197615
H       11.69187674      10.80398268       2.98669517      -0.00298937       0.00546664       0.00647622
H       10.34017740       8.19871247       1.96006527      -0.00151941       0.00505875      -0.00489917
H       11.46763310       9.13670187       1.00799680       0.00145128       0.00716290      -0.00054035
H       12.25239503       9.37218552       5.62609689      -0.01633317      -0.00664851       0.00202104
H       13.37355449      10.41447347       4.77693209      -0.01219922      -0.00009200       0.01478234
H       12.98289994       7.12535814       0.82693217       0.00307471       0.00855057      -0.00064820
H       11.38005505       6.78577923       0.17615017       0.00361313       0.00622774      -0.00153922
H       11.83067176       6.18600612       1.76960310       0.00321209       0.00709002      -0.00115953
H       11.93240595      12.39247607       5.21150649      -0.03253614      -0.00360070       0.00841450
H       10.63668087      11.38666206       5.83438144      -0.02061686      -0.01449443       0.00899738
H       12.11182437      11.44013858       6.77588855      -0.02376685       0.00134463       0.01007018
C        9.79175356      12.74003733       1.12537110       0.00595349      -0.00189237      -0.00099808
C        8.41927265      12.41865081       1.70555814       0.00455153      -0.00083874      -0.00350392
C       10.68018037      13.56770289       2.04841197       0.00196642       0.00107706       0.00009686
C        7.55515636      11.58418353       0.76445352       0.00525956      -0.00313613      -0.00106579
C       12.08549472      13.77995295       1.49957574       0.00427729      -0.00035236       0.00549507
C        6.22215987      11.17675244       1.37479763       0.00450295      -0.00080861      -0.00445572
H       10.30556208      11.80180114       0.88271698       0.00729582      -0.00210989       0.00273187
H        9.67262357      13.26788345       0.17165793       0.00851586      -0.00363150      -0.00233588
H        7.89457780      13.34848276       1.95313929       0.00515656       0.00003672      -0.00655944
H        8.53443342      11.88587009       2.65728206       0.00201163      -0.00009118      -0.00319588
H       10.19848776      14.53367086       2.23857312       0.00099228       0.00127989      -0.00417750
H       10.73112207      13.07025749       3.02429962      -0.00157830       0.00377648       0.00159875
H        7.38107446      12.15158365      -0.15644179      -0.00103121      -0.00197667       0.00118029
H        8.12041154      10.69314734       0.46565604       0.00557494      -0.00275034      -0.00229014
H       12.61379115      12.83545814       1.35795214       0.00537986      -0.00053009       0.01092528
H       12.70838001      14.38380501       2.16132175       0.00131688       0.00187202       0.00631614
H       12.05285294      14.27988756       0.52954953       0.00880398      -0.00316915       0.00386438
H        6.36808689      10.56003983       2.26352539       0.00503863       0.00115527      -0.00418171
H        5.64007522      12.04500161       1.68820590       0.00386567      -0.00025268      -0.00813821
H        5.60127489      10.61892812       0.67357077       0.00744949      -0.00267461      -0.00566287
C        2.42150971       4.60491178      11.02010233      -0.00478107      -0.00139177       0.00067946
C        1.58014837       3.35023053      11.22446965      -0.00289035      -0.00209348       0.00459275
C        1.61645540       5.89404341      11.14562070      -0.00561720      -0.00163256       0.00328781
C        2.37671069       2.05404144      11.12640594      -0.00262082      -0.00212613      -0.00119121
C        2.44288819       7.14989302      10.90392961      -0.00635472      -0.00149941       0.00074835
C        1.51408301       0.81563931      11.33005413       0.00191629      -0.00516230       0.00382380
H        3.24101447       4.61631679      11.74877761      -0.00164242      -0.00092715      -0.00280446
H        2.89661687       4.56856346      10.03246909      -0.01084591      -0.00205848      -0.00231919
H        0.77061290       3.33314475      10.48448809      -0.00520545       0.00197740       0.00702426
H        1.08974781       3.39723548      12.20336827       0.00328301      -0.00363878       0.00800070
H        0.78156696       5.86188142      10.43734940      -0.00866660      -0.00068397       0.00628030
H        1.16403491       5.93559750      12.14161162      -0.00204582      -0.00210981       0.00484192
H        2.87126334       2.00956972      10.14968657      -0.00791240      -0.00089782      -0.00398615
H        3.17817009       2.06605034      11.87083752       0.00103289      -0.00174323      -0.00489932
H        3.28755955       7.20364757      11.59434300      -0.00463033      -0.00120324      -0.00120747
H        1.84850381       8.05555862      11.03523152      -0.00620894      -0.00170442       0.00230007
H        2.85029672       7.16506412       9.89175073      -0.00878843      -0.00129287      -0.00015843
H        1.05750633       0.81185183      12.32059862       0.00688175      -0.00659655       0.00600871
H        0.70312703       0.78160145      10.59576598      -0.00198711      -0.00931670       0.00844437
H        2.09832905      -0.10104501      11.24365112       0.00457731      -0.00336121       0.00015672
C        3.32131614       1.91637022       2.64767120      -0.00106956       0.00534523       0.00124504
C        4.61747651       2.50124410       3.19356290       0.00059930       0.00366318      -0.00061426
C        2.28988716       2.94673888       2.20518619       0.00127607       0.00725454      -0.00080922
C        5.62783714       1.43117993       3.59839155      -0.00269570       0.00218338       0.00360921
C        1.03528073       2.28141622       1.64879384      -0.00058812       0.00953305       0.00042702
C        6.93510852       2.00414502       4.12248484      -0.00056320       0.00064258       0.00029407
H        3.53946009       1.25088346       1.80989644      -0.00319712       0.00287288       0.00255454
H        2.87564461       1.26581566       3.40548002      -0.00194502       0.00801453       0.00339520
H        4.40312713       3.14049206       4.06018431       0.00224825       0.00751513      -0.00295505
H        5.06813383       3.15922006       2.43789541       0.00268495      -0.00025120      -0.00286606
H        2.02982077       3.59754005       3.04918691       0.00311573       0.00980556      -0.00210217
H        2.73116615       3.60088815       1.44368938       0.00293107       0.00470915      -0.00222546
H        5.18683603       0.77827169       4.35506568      -0.00443023       0.00678211       0.00649902
H        5.82170944       0.78448966       2.73805344      -0.00500008      -0.00218967       0.00615084
H        1.28479226       1.63772588       0.80411871      -0.00236924       0.00780378       0.00119737
H        0.29033728       3.01494786       1.33251221       0.00080049       0.01090524       0.00007575
H        0.58301584       1.62354761       2.39298794      -0.00167926       0.01138882       0.00161515
H        7.43721213       2.61020785       3.36439316       0.00060415      -0.00380395      -0.00264171
H        6.75703582       2.64741768       4.98855982       0.00203089       0.00468687      -0.00222309
H        7.61734613       1.21407064       4.43814881      -0.00254750      -0.00014839       0.00282586
C        9.90689114       5.61318549       4.50912683       0.00131163       0.00307292      -0.00097024
C       10.67447212       4.30135068       4.62777896      -0.00071132       0.00190389      -0.00076786
C        8.42800986       5.41338181       4.20161395       0.00077775       0.00534582      -0.00054894
C       12.15292689       4.48437516       4.95339545      -0.00027123      -0.00057632      -0.00150103
C        7.64651363       6.71418204       4.08939123       0.00276589       0.00677216      -0.00026061
C       12.88703998       3.16124704       5.14589343      -0.00294162      -0.00134724      -0.00542068
H       10.00973110       6.17875464       5.44333584       0.00249963       0.00272132      -0.00097629
H       10.35908294       6.23393382       3.72707307       0.00183971       0.00270429      -0.00101656
H       10.57501126       3.73504559       3.69396798      -0.00233220       0.00195871      -0.00058851
H       10.20769716       3.68364152       5.40356822      -0.00103647       0.00246331      -0.00038946
H        8.33233998       4.84688238       3.27006565      -0.00057491       0.00536522      -0.00051865
H        7.98489186       4.78242360       4.97750117       0.00011308       0.00610414      -0.00026879
H       12.63589159       5.05443516       4.15263285       0.00056337      -0.00194117      -0.00142604
H       12.24839323       5.09255934       5.85802928       0.00185135      -0.00203876      -0.00062609
H        7.69301554       7.28788786       5.01728974       0.00333884       0.00627556       0.00019400
H        6.59419339       6.53024559       3.86871572       0.00248688       0.00829074      -0.00065951
H        8.04441682       7.34643071       3.29288111       0.00423007       0.00648694       0.00017267
H       12.43254554       2.60669198       5.97686032      -0.00563468      -0.00336578      -0.00842167
H       12.82525895       2.54691396       4.24531472      -0.00270435      -0.00031461      -0.00643975
H       13.94309247       3.31139769       5.37811849      -0.00339827      -0.00656615      -0.00027681
