197
Lattice="12.816389789135535 0.0 0.0 0.0 12.816389789135535 0.0 0.0 0.0 12.816389789135535" Properties=species:S:1:pos:R:3:forces:R:3 energy=-830548.1875 stress="0.001050515566021204 -4.8714346121414565e-05 -0.00014339457993628457 -4.8714346121414565e-05 0.0003386614262126386 -0.00031084977672435343 -0.00014339457993628457 -0.00031084977672435343 0.0020919465459883213" pbc="T T T"
Dy       3.88708691      11.60935851       5.65172509      -0.00484368      -0.00071129      -0.00696121
Dy      10.32729709      11.31539441       5.66528723      -0.00566177       0.00289899      -0.00148538
S        6.01078022       9.29798925      10.87837175       0.00650047       0.00382131      -0.00911247
S        5.97913481      11.33302840      11.12238728       0.00777867       0.00109327       0.00354502
O        4.89570379       8.91886691       9.97907744       0.01148188       0.00683260      -0.01390171
O        5.83060765       8.66471268      12.20170352       0.00019094      -0.00247484      -0.01028895
O        7.32153390       8.92563603      10.29627267       0.00890672       0.00821012      -0.00501895
S        6.89362838      11.94285808       4.29842944      -0.00653151      -0.03267771       0.02942395
S        6.37364199      13.33920565       5.64468266       0.00244353      -0.00754738      -0.00124997
O        7.16798862      12.53125591       3.00072253       0.01006813       0.01578122      -0.03111064
O        5.74229572      10.97998946       4.24578776       0.00702634       0.01553315      -0.01616682
O        8.07800869      11.19993751       4.81639728      -0.01369163       0.00563040      -0.01713806
S        0.67514037      11.09177021       3.87045613      -0.00267963      -0.00219787       0.00576371
S        0.27163416       9.65422605       2.57370893      -0.00739868       0.00217295       0.00066274
O        2.07522010      10.93687795       4.34953683      -0.00637633      -0.00712505      -0.00767148
O       -0.20826391      10.96518045       5.08554449      -0.00039551       0.00764577       0.00592566
O        0.48450214      12.42104768       3.27257674      -0.00483713       0.00528109       0.00403243
N       10.95009500       0.07603837       7.81113719      -0.00728950       0.00826088      -0.01455086
H       11.91520037       0.34791219       7.98510605      -0.00786807       0.00479445      -0.00865507
H       10.42208821       0.94399582       7.67177437      -0.00236048       0.01056731      -0.02301776
H       10.61657733      -0.33480834       8.68158949      -0.01733434       0.01440800      -0.01527746
N        7.92244261       9.92693180       1.21483790       0.00892185       0.01419428       0.01965602
H        7.23768943       9.47980743       0.60123454       0.02462960      -0.00247771       0.01156671
H        7.75226622      10.92067774       1.10246397       0.00110733       0.00872396       0.01100495
H        7.61897375       9.71063729       2.15729768      -0.00619705       0.01918353       0.01728734
N        2.84627911       5.44886551       7.55710857       0.00625488       0.00393261       0.00599894
H        3.48685039       5.81326459       6.85742951      -0.00067233       0.00297846      -0.00198197
H        3.41932481       4.99610403       8.26060150       0.01559436       0.01260693       0.00334299
H        2.43793805       6.26878735       8.00865220       0.00773803       0.00591425       0.00387946
N        9.47256943      11.15684482      10.57358678      -0.00095395       0.00383141      -0.02238572
H        8.77437603      11.84552315      10.84635510       0.00569054       0.00799811      -0.01607315
H       10.15879033      11.14485580      11.31959436       0.00211538      -0.00404423      -0.02613440
H        8.94765211      10.28320592      10.65304856      -0.00814946       0.00730204      -0.02292053
N        9.11742545       7.80618532       8.05441195      -0.02341181      -0.01254223      -0.00381106
H        9.41712235       8.72935039       7.76514460      -0.00558256      -0.01782139      -0.00339076
H        9.97329825       7.32820244       8.31863274      -0.03202627      -0.02886044      -0.00479396
H        8.53073247       7.94861634       8.87477516      -0.01894644      -0.00014490      -0.00272745
N       11.63478965       6.32476224       1.52955479      -0.00573914       0.00607646      -0.00480387
H       12.41385008       6.94934039       1.71143965      -0.02204708       0.02329444       0.01080043
H       11.00577809       6.83090966       0.90293546      -0.00080929      -0.00435172      -0.01847529
H       12.00552873       5.54915884       0.99162909       0.02101439       0.01237417       0.00509527
N        9.96187909       3.08119049      10.24955675       0.00146807      -0.00128860       0.00394072
H       10.75761186       3.49298806       9.77004068      -0.00323129      -0.00330390      -0.00627649
H        9.29439606       3.83165151      10.42226635      -0.00628088      -0.00434113      -0.01095214
H        9.51137730       2.47778715       9.56977975       0.00852117      -0.01982678       0.01555904
N       12.34518840       6.08697188      10.95903783       0.00266239       0.00205269      -0.00274446
H       12.32959085       5.18660906      11.43848768      -0.00536367      -0.00011650      -0.00660574
H       11.86161563       5.95819510      10.07723817       0.01763147       0.00738438      -0.01251046
H       11.77304753       6.71563670      11.51212865      -0.00653366      -0.00108879      -0.01002540
N       11.07926570       0.83961164       4.90681824       0.00685841       0.00674611      -0.00720423
H       11.44800426       1.36662257       5.68966805       0.00122344       0.01495015      -0.00776905
H       10.55993141       1.51808494       4.35016614      -0.00896585      -0.01465005      -0.01728840
H       11.88536255       0.55922717       4.34159809       0.00778019       0.00777961      -0.00577746
N       10.61515370       3.21833844       2.82073936       0.00671577      -0.01383021      -0.00971046
H       10.77539382       4.19804817       3.03518934       0.00508550      -0.00755161      -0.03191161
H       10.12608824       3.19036111       1.93240500       0.00230478      -0.03754795      -0.00591342
H       11.53096402       2.80777029       2.68165274       0.00841020      -0.01201769      -0.00299651
N        1.88515524       7.80621651       9.44167101       0.01080432       0.01368591      -0.00415978
H        2.83944011       7.80853084       9.79721175       0.00807416       0.01840871       0.00424175
H        1.34889319       7.14920065      10.01277941       0.00955834       0.01118654      -0.00894888
H        1.52203375       8.71546839       9.71448967       0.00512315       0.01240234      -0.00728834
N        3.81005496       8.99758517       5.77678002      -0.00203537       0.00146157       0.00864344
H        3.24050673       8.50319048       5.09277914       0.00579092      -0.00055033       0.00409332
H        3.50380500       8.65178844       6.68207617      -0.01528304       0.00658370       0.00529093
H        4.77241870       8.66994347       5.68747957      -0.00130681      -0.00273459       0.02219666
N       12.28449240       7.00588401       7.47436107      -0.00395611      -0.01082705       0.00744404
H       12.16548447       7.13365318       6.47284853      -0.00182978      -0.00340759       0.00768534
H       12.25142967       5.99870583       7.59807001       0.00122906      -0.01133673       0.00086014
H       13.21769833       7.30273907       7.74944010      -0.00518283      -0.00842825       0.01000798
N        0.89689802       0.30965023       9.81961236       0.00124644       0.00453036      -0.00140938
H        1.20714993      -0.64140346      10.05632334      -0.00295656       0.00274537      -0.00419214
H       -0.05278493       0.39060493      10.17014034      -0.00362062       0.00134963      -0.01420752
H        1.45182504       0.88973019      10.44778491      -0.00782567       0.00085005       0.01012326
N        3.52513157       0.79053756       7.31775379      -0.00119635      -0.00667059       0.00096297
H        2.59324873       1.11181134       7.56560996      -0.00058118      -0.01757686       0.01806749
H        4.12208048       1.61957347       7.23744224      -0.00622435      -0.00322825       0.00465689
H        3.85030291       0.28365820       8.13947070       0.01477503      -0.01304408      -0.00945325
N       10.20955484      11.65327952       2.98359203       0.00337038       0.00534710       0.00122064
H       11.06860514      12.00803093       2.57534091       0.00638704      -0.00003958      -0.00709609
H        9.93458854      10.84853360       2.42664968      -0.00532569       0.01369972      -0.00814690
H        9.46511808      12.33441348       2.85965031       0.01876129       0.00995120      -0.00394347
N        7.00780106       1.48537229       9.35016193       0.00132424       0.00195212       0.00345221
H        6.97176298       2.24078647      10.02549176       0.00510721       0.00179977       0.00202380
H        6.80414058       0.61731977       9.84450055      -0.00175588       0.00243114       0.00308086
H        6.23851347       1.64632827       8.70796775      -0.00062676       0.00501485       0.00430382
N        1.67801122       6.80869627       4.42343967      -0.00736433      -0.00165565      -0.01105373
H        1.86744238       6.24019603       3.60609678      -0.02764065       0.00071101      -0.01749108
H        1.11867665       7.59537691       4.09575092       0.00261547       0.00965704      -0.00293107
H        1.09507699       6.25593418       5.04162038      -0.01117938       0.00606909      -0.00821365
N       -0.37836891       3.11439621      12.23923940      -0.00074313       0.00597385       0.01395541
H       -1.18060949       2.81639746      11.68509635      -0.00078595       0.00887511       0.01168429
H       -0.64741551       3.01741825      13.21051449      -0.00020719      -0.00924875       0.01300902
H        0.38670493       2.46278596      12.08912126       0.00327308       0.01204464       0.00763300
N        8.08504207       1.92250649      12.90838003       0.01849614      -0.01510693       0.00468805
H        8.62245959       2.20373286      12.09354811       0.03299630      -0.01046329       0.01394273
H        7.14270436       1.71497662      12.59785680       0.02122707       0.00134514      -0.01357459
H        8.46045457       1.03650596      13.22571635       0.00509404      -0.02397792      -0.00449296
N       10.25163815       9.03193176       4.56666027      -0.00306633       0.00126922       0.00413659
H       10.93653323       9.19321678       3.82187653       0.01134824       0.00064586       0.01739949
H        9.35964566       8.86981145       4.10795656       0.00551292       0.00004812      -0.01302647
H       10.53124825       8.13307868       4.96821234      -0.00704947       0.00492468       0.01470426
N        4.78844623       5.94886656       4.73272500      -0.00378980      -0.00796187       0.00457404
H        5.04974429       6.52779557       3.92690380       0.00669625      -0.00883395       0.00710809
H        3.78873011       6.12584180       4.81482394      -0.00504352      -0.00707144      -0.00824497
H        4.87834020       4.99287034       4.40491639      -0.00071552      -0.00898756       0.00918256
N        4.68433508       4.30537984       1.73317005      -0.00729289       0.00554401       0.00541577
H        4.62236992       5.31723608       1.67924995      -0.00936668       0.00724064       0.02401404
H        4.77209959       3.96992463       0.78094390       0.00314002       0.02603406      -0.00106697
H        5.57373980       4.09691261       2.18778812      -0.01074239      -0.00130899       0.00778545
N       11.45584949       9.95294128       7.66697655      -0.00916716       0.00229301       0.00442189
H       11.60348667       8.93927300       7.67664335      -0.00322485       0.00366981       0.00778394
H       12.38142427      10.36932946       7.70302546      -0.00956436       0.00456936       0.01170443
H       11.00474446      10.18913745       8.54752414      -0.01322431      -0.00179826       0.00291634
N        3.49420595      13.31169296       3.71312095      -0.00196537      -0.00076085       0.00454703
H        3.79132090      12.76712046       2.88838816      -0.00544267       0.00331496       0.00097601
H        3.98347005      14.19875555       3.66441436      -0.00259569      -0.00100236       0.00280967
H        2.49996579      13.47631632       3.56955925      -0.00200948       0.00178128       0.01206311
N        2.00470746       3.26107781       5.14110026       0.00138155       0.00492609       0.00714990
H        2.22981429       3.95590581       5.85113390       0.00299300       0.00180908       0.00990607
H        2.31137868       3.62839773       4.24715938       0.01540703       0.00127996       0.01020563
H        2.58292703       2.44959094       5.32642246      -0.01251048      -0.00380746       0.01255496
N        8.94214535       2.38776664       7.02024861       0.00653453       0.00323482       0.00319910
H        8.36179294       2.04102601       7.78786384       0.01014334       0.00022377       0.00460722
H        8.52334799       1.97454640       6.19055442       0.00841195      -0.00230789       0.00439547
H        8.74502716       3.38707217       6.94796655       0.00016211       0.00191168       0.00379957
N        8.20366686       6.27605813       2.08324502       0.00894962      -0.00033463       0.01560346
H        9.20863433       6.14810369       2.14018407       0.01143146       0.00323279       0.00346942
H        8.01926162       6.55616551       1.12571944       0.00228202       0.00481562       0.01732456
H        7.76581165       5.36925565       2.22487598       0.01479577      -0.00076867       0.01621901
N        0.51823505       3.70545296       9.09658367       0.01245099      -0.00868353       0.00371912
H        1.21467947       4.13485047       8.49138290       0.01293854      -0.00036295       0.00908344
H        0.73270665       2.71511738       9.14672727       0.01339424      -0.00914831      -0.00757522
H        0.64826887       4.08818994      10.02575787       0.01412845      -0.02078182       0.00831295
N        8.55743704      11.13716584       7.60121371      -0.00679654       0.00853951      -0.00716576
H        7.91466770      10.35182087       7.55855482      -0.00611839       0.00787237      -0.01050610
H        8.85712465      11.19413791       8.57698641      -0.00679848       0.00774465      -0.00873569
H        7.97841128      11.95569644       7.41211428      -0.00869571       0.00790603      -0.00728032
N        1.93153765      11.07034080       7.32822984      -0.00680858      -0.00007711       0.00192350
H        2.10253098      10.27350282       7.93271651      -0.00217227       0.00188713       0.00309198
H        1.23886890      10.81572779       6.62553022      -0.01104097      -0.00274346       0.00530435
H        1.54615272      11.80241570       7.91945399      -0.00072929       0.00035361       0.00314209
N        5.23360851      10.71325265       7.65446712      -0.00188950      -0.00089672       0.00098094
H        4.84940015      10.08519601       8.36787093       0.00958420       0.00096434       0.00824524
H        5.81971722      11.33888421       8.20242633       0.00674640       0.00245976      -0.01281945
H        5.86400071      10.10817341       7.12040574      -0.01093530      -0.00350897      -0.00865706
N       10.99326551       6.16359468       4.70153823      -0.00776535      -0.00032635      -0.00499830
H       11.34993674       6.18762508       3.74809180      -0.00043826      -0.01957792      -0.00329280
H        9.98836834       6.06240359       4.62528728      -0.00769715       0.00154551      -0.01072019
H       11.34138984       5.34201471       5.20423836      -0.01643619       0.00499921       0.00850020
N        2.39186888       1.31163895       0.01797396      -0.00704785      -0.00490794       0.01073170
H        2.65323074       2.16192599       0.50748713      -0.00804242      -0.00602176       0.01345024
H        3.25148942       0.77464284      -0.05901391      -0.00517542      -0.00224776       0.00676038
H        1.82693074       0.78007329       0.67420607      -0.00054391      -0.00927279       0.01229025
N        5.49415378       7.90387890       2.43943572       0.01018872      -0.00001484       0.00707856
H        5.35943408       8.12430147       1.45529773       0.00637433       0.00449894       0.00965269
H        6.46791848       7.61333271       2.52185173       0.00963379      -0.00120428       0.00398757
H        5.40284177       8.78712732       2.93130903       0.01370505      -0.00105038       0.01315026
N        4.22387957      11.31831541       1.49098409      -0.01155801       0.00622043      -0.01348855
H        4.64675572      11.20838196       0.56917747      -0.01096296       0.00775363      -0.01036887
H        3.44730371      10.66876980       1.55133374      -0.00735697      -0.00106084      -0.01126839
H        4.92534126      11.00685570       2.15537211      -0.00844355       0.01158823      -0.01077488
N        7.39655375       3.12901281       2.95623366      -0.01015381      -0.00667691       0.00839631
H        6.92598176       2.32745387       3.36918632      -0.00797886      -0.00099450       0.01959397
H        8.28741474       3.17901613       3.44176233      -0.00963272       0.00299219       0.00848351
H        7.64041892       2.82991733       2.00857389      -0.00888360      -0.01686978       0.01303288
N        6.94944528       8.54108868       5.84854589      -0.00974193      -0.01017936      -0.00285756
H        6.67893847       7.77924156       5.23659897      -0.00382324      -0.00329369      -0.01048955
H        7.69157252       8.17853243       6.44361185      -0.01244767      -0.01009157      -0.00217659
H        7.32443616       9.29064452       5.27705930      -0.00533900      -0.00209546       0.00261968
N        5.41140121       3.32761976       6.90298618      -0.00271802      -0.00729501       0.00055219
H        5.36690016       3.09094225       5.91627776       0.00114669      -0.03811163       0.00718375
H        6.40955904       3.38856677       7.08874307      -0.00280617       0.00178471      -0.00099432
H        5.07893582       4.28369953       6.95660172      -0.00590437      -0.00691111      -0.02905005
N        7.49467681       5.34756535      10.48322606       0.00976159       0.00640568      -0.00168213
H        8.14723431       6.02618268      10.86275502       0.00355472       0.00899935       0.00397275
H        6.60828435       5.59302007      10.91253312       0.00595382       0.00386296      -0.00754703
H        7.39488114       5.59814928       9.50484665       0.01612033       0.00656437      -0.00256145
N        2.57187243       8.20971501      -0.01055778       0.00975355       0.00600057       0.00463794
H        2.45412788       8.36825142       0.98343969       0.01696733      -0.00502776       0.00828357
H        3.56286383       8.28567808      -0.22769079       0.01102158      -0.00636515       0.00199638
H        2.28832400       7.25705829      -0.20163642      -0.00681017       0.01479679      -0.00618655
N        9.83926126       8.13186210      12.35154685       0.00115459       0.01329857       0.00122392
H        9.36781110       8.71147256      13.05412560       0.01655190       0.01834653       0.00635739
H        9.19089623       8.13406514      11.56650142      -0.00625648       0.01639409       0.00677464
H       10.64024982       8.67630834      12.04927623       0.00241506       0.00617047      -0.00777226
N        2.44958558      10.70817424      10.87042859      -0.00020273      -0.01156651      -0.01236056
H        2.89872626      11.49737923      11.32533690      -0.01820783      -0.00661550      -0.00320878
H        3.24373333      10.16714852      10.52563938       0.01177765       0.00348756      -0.00953552
H        2.08426064      10.12670081      11.62556537       0.00748169      -0.02202143      -0.01606468
N       11.80768284       3.77166098       6.41445718       0.00365582      -0.00459677      -0.00109589
H       10.94473897       3.23782216       6.39556083       0.00984590      -0.01532940       0.00218463
H       12.15138376       3.73245360       7.37219735       0.00599805      -0.00219210      -0.00207731
H       12.51087191       3.33630082       5.82439069       0.01199088       0.00653078       0.00016652
N        7.91333272       5.31416861       6.18021960      -0.00693846      -0.00349319       0.00884715
H        8.14636345       5.14761423       5.20712160       0.00057452      -0.01129338       0.01188087
H        8.49735508       6.07113580       6.52856407      -0.01699058       0.00673914       0.00352253
H        6.96146305       5.66892403       6.15263709      -0.01057181      -0.01311843      -0.00080183
