197
Lattice="13.29977990768731 0.0 0.0 0.0 13.29977990768731 0.0 0.0 0.0 13.29977990768731" Properties=species:S:1:pos:R:3:forces:R:3 energy=-1130385.75 stress="0.0008703650673851371 -0.0004801375180250034 -0.0002584453031886369 -0.0004801375180250034 0.0010328794596716762 0.00042576722626108676 -0.0002584453031886369 0.00042576722626108676 0.0010532672749832273" pbc="T T T"
Dy      -0.77144975      12.33908550       1.06979012      -0.00116482       0.00212707       0.00197245
Dy       7.10358021      12.47689545       4.18598130      -0.01042670      -0.00121155      -0.00934359
O       10.96925994      10.80879558       4.83206437      -0.00419743      -0.00632253      -0.00472909
O        9.34676278      13.08620643       4.16705328      -0.00656134      -0.00295493      -0.00348699
O       10.56172758      11.48308423       2.03233834      -0.00208852       0.00077409      -0.00443565
O       12.30411995      12.95707502       3.37590649      -0.00731573       0.00155491       0.00212881
Mo      10.77549955      12.09256826       3.70832573      -0.00542228       0.00107735      -0.00626224
O        1.39084802       9.82802458       8.28989924      -0.00214326       0.00011420       0.00514814
O        3.47401471      11.36716144       6.97338737      -0.00066972      -0.00035447       0.00557688
O        3.21264783      11.33701265       9.84577425      -0.00946629       0.00332673       0.00689209
O        1.24271408      12.74888660       8.35256113      -0.00586134       0.00024432      -0.00167197
Mo       2.32952150      11.30792478       8.36057839      -0.00331676       0.00157049       0.00379467
O        2.94128648      11.88834841       4.40311749      -0.00515759      -0.01306430       0.00498962
O        5.34010914      11.20106949       3.51633779      -0.00728440      -0.01248538      -0.00044930
O        4.28628260       9.37158751       5.25558757       0.00374997      -0.00843644       0.01238662
O        5.78330234      12.03578335       5.90185599      -0.00205314      -0.00097856      -0.00292027
Mo       4.36733769      11.10288633       5.11692747      -0.00162795      -0.00671116       0.00336511
O       11.92698945      12.34824957      12.07420349      -0.00248265       0.00694237       0.00213128
C       10.50688107      12.24294314      11.88172282      -0.00234650      -0.00325731       0.00534652
H       10.20934469      12.75354959      10.96785603      -0.00915796       0.00110236       0.00968185
H        9.98113249      12.70572977      12.72231451      -0.00360403      -0.01413643       0.00999093
H       10.20231941      11.19743612      11.80893050       0.00511271      -0.00480661      -0.00115197
H       12.32219901      12.64086309      11.15412562      -0.00678383       0.00038685      -0.00206795
O       12.64711391       9.96789279       0.44653010      -0.00037941       0.00005847       0.00437135
C       12.72004480       9.11218418       1.60672848      -0.00810070       0.00195323       0.00605707
H       11.71908455       8.84009887       1.94246847      -0.01039532       0.00874495       0.00503305
H       13.21686841       9.67170316       2.39906513      -0.00636397      -0.00007479       0.00643837
H       13.31536690       8.22738100       1.38621653      -0.01318650      -0.00235564       0.00917565
H       12.26892302       9.41632517      -0.26827713       0.00333272      -0.00101006       0.00295612
O       12.11631160       1.41214061       0.83005271       0.00497624       0.00517622       0.01111317
C       11.13211833       2.07187770       1.65385382       0.00319979       0.00883065       0.00638503
H       10.61758366       2.83980224       1.07302903       0.00378923       0.00626920       0.00212345
H       11.60382378       2.52348559       2.52521098       0.00094585       0.01228151       0.00574380
H       10.40037001       1.33629991       1.98735583       0.00274763       0.00978623       0.00806239
H       12.84094992       2.10693197       0.67259572       0.00992972      -0.00072324       0.01120912
O        2.14212549       7.24958442       1.60782924      -0.00986320      -0.00778735       0.02192459
C        3.23183869       6.41803369       1.98153753       0.00700477       0.00817382       0.00874621
H        3.12303580       5.45784224       1.46854190       0.01916192       0.01067784       0.00245497
H        3.24208872       6.24674958       3.06102122       0.01734037       0.00021814       0.00744647
H        4.19406738       6.84543741       1.67871934      -0.00208426       0.02587190       0.00521587
H        2.01889345       7.87670205       2.34738399      -0.00652418      -0.00537978       0.01987436
O        7.20940372       4.01060597       9.77425321       0.00807613      -0.01198436      -0.00148934
C        7.38101322       2.90446869       8.89257072      -0.00244695      -0.00307873      -0.00822507
H        6.49041782       2.72185137       8.28697637      -0.00020757       0.01046072      -0.01536644
H        7.64196868       1.98977064       9.43365062      -0.01064035      -0.01169175      -0.01933968
H        8.20190740       3.16176097       8.22532080       0.00345920      -0.00143810      -0.00347771
H        6.48902141       3.80507492      10.37435381      -0.00601527      -0.01521334       0.00011756
O        5.23133342       8.43497756      -0.04184921       0.02578964       0.01148593       0.00147575
C        4.53880079       9.53194876       0.55327468      -0.00405532      -0.01178032      -0.00625256
H        3.53723868       9.23782176       0.87306508      -0.00308445      -0.02681437      -0.01821141
H        4.47148853      10.38711745      -0.12605047      -0.00830795      -0.00386649       0.00383690
H        5.09000490       9.82754106       1.44440004      -0.01668340      -0.01074913       0.00526911
H        4.65467161       8.06411847      -0.71390709       0.03509063       0.01069850      -0.03312300
O        0.66081491       3.14304400      13.86097782       0.02093607      -0.01008379      -0.00084761
C        0.48695721       4.48007297      13.36041608       0.00561709      -0.00905379       0.00649197
H       -0.37788090       4.90561764      13.86514643      -0.00236201      -0.02472284       0.00501791
H        0.35204458       4.49569747      12.27900707       0.01001841      -0.00423704       0.00588015
H        1.35278309       5.09742083      13.59699007      -0.00450259       0.00125010       0.01543958
H        1.41033839       2.71157575      13.39161723       0.01971059      -0.00267746      -0.00716151
O        6.91046783       7.43755621       7.68182755       0.00400481       0.01108843      -0.02166313
C        8.28683730       7.03459928       7.65914792       0.00164609       0.00286250      -0.00189968
H        8.36133863       6.16120921       8.30413916      -0.01039672       0.00829193       0.00626218
H        8.92840920       7.82835920       8.04538480       0.00031422       0.00327963      -0.00077333
H        8.60733009       6.78223977       6.64907390       0.01232943      -0.00772128       0.00402966
H        6.80004045       8.18270265       7.08197263       0.01782016       0.01061624      -0.02302743
O        2.45960278       1.61561571      12.64223711       0.00851315      -0.01337218      -0.01182050
C        1.72734003       0.74097590      11.76675053       0.00077850      -0.00416731      -0.00449938
H        1.56680896       1.20134058      10.79245252      -0.01044756      -0.00543298      -0.00287807
H        0.75135040       0.58120781      12.23156474       0.00342659       0.00396571       0.00920433
H        2.24579458      -0.21186177      11.63270112      -0.01143560      -0.01034829      -0.01040485
H        3.20400912       1.96953926      12.14922335       0.01844949      -0.01244753      -0.03243506
O        1.99306144       8.84934407       3.82049751      -0.00679764      -0.00751564       0.01400316
C        1.02878956       9.38550552       4.72656855      -0.00672996      -0.00833341       0.01426867
H        0.06757172       8.90941199       4.53311884      -0.00650853      -0.00988169       0.01447535
H        0.92894317      10.46754540       4.59762717      -0.00833565      -0.00876456       0.01301222
H        1.31422218       9.19354011       5.76267959      -0.00634918      -0.00702096       0.01447153
H        2.86559450       8.91762758       4.26148869      -0.00593698      -0.00723753       0.01232830
O        1.60838573       5.48820232      10.47231032      -0.00042355      -0.00536501      -0.00595379
C        0.91915255       4.82442156       9.43323807       0.00102416      -0.00523096      -0.00677937
H        1.14157913       5.26828170       8.45685859       0.00327261      -0.00772463      -0.00782791
H       -0.16873515       4.86330298       9.60401248       0.00044399      -0.00397393      -0.00941166
H        1.22452641       3.77640507       9.40056485       0.00034451      -0.00573897      -0.00437862
H        1.89749988       6.35918750      10.12200297      -0.00297332      -0.00257012      -0.00228544
O        6.93901179      12.06882252       1.76022164      -0.01220080      -0.00070694      -0.00858320
C        7.55155280      11.17573726       0.81991759      -0.00707595       0.00291060      -0.00914191
H        7.15759037      11.35869407      -0.18063733      -0.00410263       0.00463276      -0.00999567
H        7.36110768      10.13676639       1.09392802      -0.00487158       0.00127852      -0.01269959
H        8.62263240      11.35306054       0.84352561      -0.00787345       0.00683195      -0.00530568
H        6.09471177      11.66062611       2.09669289      -0.01165116      -0.00244112      -0.01314964
O        3.16791111      12.15290756       1.70908094      -0.00081223      -0.00178085       0.00201952
C        1.90217570      11.68529424       1.37491044      -0.00290507      -0.00035281       0.00728801
H        1.54170923      12.30033937       0.51992799       0.00046372      -0.00933537      -0.00004980
H        1.22341915      11.76779052       2.25526511      -0.00235638       0.01448259       0.00631036
H        1.89776211      10.63786599       1.04608661      -0.00724931      -0.00428230       0.01998711
H        3.29756705      11.97196432       2.66843393       0.00327150      -0.00675709       0.00001293
O        5.72447341       1.11116739       3.74141056       0.00111169      -0.00101669      -0.02156821
C        5.73538147       1.67693376       2.41931869       0.01160684       0.00809256      -0.01707068
H        5.01764288       1.15137924       1.78814271       0.01200253       0.01712443      -0.02448638
H        6.73232790       1.54765750       2.00391505       0.01355350       0.00436951      -0.01275731
H        5.49922311       2.74013569       2.47123931       0.01867285       0.00938630      -0.01303760
H        4.75644845       1.13016676       4.00510762      -0.00293717      -0.00149255      -0.02716958
O       10.09280956       3.63661805       4.97309852       0.00312257       0.01675534       0.01427924
C       11.19124105       3.01548410       5.63157764       0.00090593       0.00075686       0.00239375
H       10.90842644       2.63746281       6.62036736       0.00613210       0.00451507       0.00534916
H       12.03836535       3.69734754       5.73663088       0.01168233      -0.01153198      -0.00663909
H       11.49760292       2.16776548       5.02053421      -0.01746875      -0.00314441      -0.00089951
H        9.87221759       4.43505661       5.46216176       0.02344207       0.02178270       0.01532133
O        2.50647810       1.78167578       8.75317244       0.00123948       0.00104910      -0.00097644
C        3.82752905       1.39235373       9.06978259       0.00204122      -0.00224309      -0.00619534
H        4.32055867       2.24809133       9.53937906       0.00630549      -0.00429851      -0.00697441
H        4.40158735       1.11208505       8.17913572      -0.00122875      -0.00294730      -0.00810778
H        3.85740471       0.53825380       9.75794894       0.00108767      -0.00311789      -0.00733048
H        2.02382369       0.96162809       8.49214465      -0.00288250       0.00200973       0.00524096
O        0.13814017       4.91416267       3.22726944      -0.01830596      -0.01914072       0.00972515
C        0.14268270       5.85036731       4.30215538      -0.00387283      -0.01756889      -0.00300352
H        0.80409477       6.69448524       4.10212214      -0.01572207      -0.01087952      -0.00983725
H        0.46325474       5.38597669       5.23930215       0.00700395      -0.00861973      -0.00119209
H       -0.87938802       6.20873371       4.42618692      -0.00919920      -0.02461913       0.00673944
H        1.03350551       4.85872732       2.88539411       0.00013805      -0.00558200      -0.01474547
O        3.19916940       5.57512987       5.26230206      -0.00523607      -0.00395447       0.01042196
C        3.25262898       4.20319255       4.92394782       0.00258081      -0.00359374       0.00932004
H        2.38710556       3.66537654       5.32009989       0.00060266      -0.00556384       0.00232634
H        4.15353087       3.71620537       5.30403407       0.00064731      -0.00099996       0.01679289
H        3.25153391       4.08701718       3.83466516       0.01181826      -0.00330364       0.00935125
H        3.98804211       5.76660765       5.79410786      -0.00089316       0.00168879       0.00227974
O        2.50646256       7.67845222       9.27158672      -0.00290608       0.00792649       0.01540397
C        3.82758733       8.13571152       9.51203643       0.00145793      -0.00136158       0.00653644
H        4.37735916       7.33569779      10.01073638      -0.00009032      -0.00740290      -0.00201660
H        3.83401836       9.03597286      10.13326470       0.01174584      -0.00514704       0.01174316
H        4.34275772       8.36686605       8.57341712      -0.00386228       0.00107650       0.00374478
H        1.98990066       8.44598328       8.90610951       0.00113727       0.00865890       0.01133219
O       11.57668373       6.07661817       7.28833403      -0.00129461       0.00094503       0.00264359
C       12.36181940       7.27088008       7.24310082      -0.00100665      -0.00186890       0.00321656
H       13.36008547       7.09037750       6.83720202      -0.00179049      -0.00006069       0.00044958
H       12.47060788       7.72887634       8.22971804       0.00055443      -0.00026475       0.00224152
H       11.83965205       7.96889681       6.59109753      -0.00347763      -0.00126773       0.00355737
H       12.03463275       5.45740661       7.86297386       0.00418581      -0.00287507       0.00727415
O        7.31774476       5.33730387       4.69787297      -0.01156457       0.00826484      -0.00312757
C        6.36435841       6.22334599       4.10820169      -0.01335011       0.00385302      -0.00620207
H        6.14152461       7.07548375       4.75551042      -0.02551398      -0.00102904      -0.00405836
H        5.43257040       5.70567648       3.87846300      -0.00736159      -0.00228003      -0.01666160
H        6.80402488       6.58896052       3.18217113      -0.00876704       0.01187398      -0.00096664
H        6.91195844       4.96641748       5.49173194      -0.00857401       0.01421837       0.00126898
O        3.11990600       1.16384558       4.15839866       0.01829612      -0.01253630      -0.01047719
C        2.05973768       1.53536228       3.28134617       0.01677641      -0.00502943      -0.00711161
H        1.99889908       0.85559769       2.42713113       0.01698385       0.00279206      -0.01339000
H        2.25226550       2.53433477       2.89871481       0.01564567      -0.00175983       0.00223976
H        1.10305930       1.54688708       3.81058987       0.01754931      -0.01056575      -0.00546104
H        2.98005329       0.20100382       4.37410286       0.01089089      -0.00990736      -0.00447194
O       12.62904848      -0.13859551       9.85980872      -0.01652755      -0.01094216      -0.00914054
C       12.19710450       1.18438145       9.61632604       0.00189854      -0.00329092      -0.00282700
H       11.28172031       1.18920227       9.01534833       0.00382361       0.01263632      -0.00472078
H       12.96646692       1.75488075       9.09066425       0.01168141      -0.01293404       0.00117530
H       11.99227321       1.68300497      10.56911697       0.00609861      -0.00559676      -0.00070268
H       13.42736706      -0.36915259       9.23041361      -0.01084161      -0.00938705      -0.00125255
O        8.75640478       8.65673996       4.75273264      -0.00816363       0.00789613       0.01668672
C        7.89520028       9.62135722       4.21204757      -0.00694180       0.00507307       0.00835600
H        7.04568678       9.20792230       3.65972452      -0.00601998       0.00266460       0.00853789
H        8.42711217      10.32268257       3.53186812      -0.00440383       0.00070822       0.00538795
H        7.47720220      10.17553677       5.06570647      -0.00813143       0.01021203       0.00394477
H        9.01251627       8.00544005       4.07582816      -0.00437332       0.00706067       0.02099468
O        5.34450487       5.34979121       6.99378059       0.00458246       0.00555912      -0.00416127
C        4.42063070       4.96960574       8.01812140       0.01069045       0.00153847       0.00010650
H        4.93748888       4.79969818       8.96363290       0.01427187       0.01059100      -0.00035244
H        3.93489424       4.04552013       7.70862598       0.01903620      -0.00434661       0.00494252
H        3.65255761       5.73182495       8.16243067       0.00305000      -0.00582603      -0.00175535
H        5.84696925       6.13804819       7.29923824      -0.00010091       0.01061372      -0.01046544
O        7.99176178      11.42142946       9.75034226       0.00954525      -0.00232118       0.00313786
C        7.69954270      10.07991508      10.10413672       0.00288294       0.00165361      -0.00419587
H        8.56284656       9.42075051       9.95085376      -0.00113961      -0.00723889      -0.00251604
H        6.85251167       9.67519107       9.54398289       0.00146678       0.00591618      -0.00713152
H        7.44016151      10.06499956      11.16230954      -0.00224549      -0.00109085      -0.00402987
H        8.20345814      11.42621926       8.80679929       0.01297331      -0.00148045      -0.00422955
O        9.51591279      10.88527286       7.28802075      -0.00269049      -0.00967509      -0.00253904
C       10.63589621      10.61186990       8.13356140       0.00445852       0.00292681      -0.00713363
H       10.40571540      11.01417828       9.11786018       0.01211326       0.01252349      -0.01004684
H       11.55057905      11.08167748       7.76683590       0.00023282       0.00195125      -0.02012761
H       10.81014989       9.53616468       8.22624869       0.00870600       0.00446326       0.00232528
H        9.81963781      10.70444566       6.38357443      -0.01023315      -0.01510266      -0.00071345
O        9.39095217       6.40216583       3.17325581      -0.00244951       0.00819022       0.02279258
C       10.37038344       5.73840049       2.38342624      -0.01621747       0.00686125       0.00797528
H        9.91145878       5.22336143       1.53132926      -0.02885975       0.01249954       0.01143575
H       10.94171087       5.01755233       2.96685174      -0.01174271       0.00170675      -0.00217384
H       11.05588571       6.49223105       1.99831577      -0.01759383       0.00563726       0.00270192
H        8.87599830       5.74644986       3.66995349      -0.00881233       0.00881858       0.01843786
O       11.15722911       4.42186040      11.66106241      -0.00563514       0.01485518       0.00859928
C        9.92526845       3.93125428      11.14322691      -0.00144030       0.01772998       0.00356815
H        9.23577184       3.63150843      11.93901235      -0.00541489       0.01215518      -0.00224608
H       10.07210535       3.08208363      10.46938563      -0.00167231       0.02408510      -0.00442773
H        9.46257072       4.73622998      10.58218091       0.00056203       0.02429000       0.00812910
H       11.61295201       3.70159378      12.10546134      -0.00271794       0.00342932       0.00521980
O       11.52420262       7.91743049      12.31360138       0.00373054       0.01377690      -0.00323910
C       10.14087198       7.55888660      12.36608630       0.00748730       0.01207010      -0.00521043
H       10.00451740       6.59380011      12.85360479       0.00466983       0.01318052      -0.00427985
H        9.70296204       7.52227652      11.36564560       0.00606492       0.01340275      -0.00462925
H        9.63283888       8.32713085      12.94600775       0.00781443       0.01442002      -0.00449294
H       12.01147367       7.18661626      11.91872706       0.00858918       0.00451827      -0.00493376
