197
Lattice="13.48911869027762 0.0 0.0 0.0 13.48911869027762 0.0 0.0 0.0 13.48911869027762" Properties=species:S:1:pos:R:3:forces:R:3 energy=-845668.0625 stress="0.0011911590117961168 0.0005208545771893114 2.966405918414239e-05 0.0005208545771893114 -0.00026379944756627083 0.0002105495732394047 2.966405918414239e-05 0.0002105495732394047 0.00038412693538703024" pbc="T T T"
Dy       8.59681266      13.34932217       7.32014446       0.01541352       0.00526174      -0.00330375
Dy       4.85722773      11.94856047       2.02337000       0.00317138      -0.00351495       0.01320672
S        7.18341921      12.75290659      10.07727254       0.03186250      -0.02157807      -0.01292679
S        8.74228773      14.11625532      10.38400259       0.01754439      -0.00146371      -0.00884843
O        6.77350300      13.04378778       8.65059566       0.01413667       0.01143488      -0.00530171
O        6.11442214      13.01008721      11.00023574       0.01120710       0.01193912      -0.00864947
O        7.79735831      11.43525491      10.13707748      -0.00784892       0.02521110      -0.01850604
S        3.20463517      10.41578481      13.79546818       0.00598139       0.00222507       0.00636442
S        2.55318200      12.36147582      13.81652834       0.00636876      -0.00057971       0.00405765
O        4.59427594      10.49645959      13.28315028       0.00306284      -0.00029890       0.00351381
O        2.32317609       9.53331448      13.05689437       0.00340569       0.00083375       0.00388968
O        3.32257814      10.05398584      15.24829817       0.00311199      -0.00204289       0.00387752
S        6.48164452      12.16438513       5.30487687      -0.00367951      -0.00722235       0.02294508
S        6.60009753      14.20089966       5.41905859       0.00733313      -0.00543123       0.00345588
O        6.31296892      11.77764939       3.87946913      -0.00312885      -0.01124590       0.02134982
O        5.40455760      11.64954774       6.11753107      -0.00878674       0.00604755       0.02057382
O        7.81435276      11.69621233       5.79120727      -0.00768054      -0.01199114       0.02526126
O        8.62766912       8.35269930      11.78220758      -0.00394070      -0.01231068       0.01053423
C        7.22317719       8.64671786      11.73871303      -0.00078905       0.00103694       0.00399399
C        6.55631909       8.08877609      10.50190081      -0.00049013       0.00649837       0.00120336
H        6.73280402       8.23809735      12.62997800      -0.00805768       0.00633666       0.00228935
H        7.14994607       9.73355540      11.74210470       0.00926793       0.00171852       0.00256468
H        5.49740745       8.34731527      10.50862679       0.00085011       0.01194469      -0.00143429
H        7.01145782       8.50606372       9.60384985       0.00374806       0.00554959       0.00315636
H        6.63480141       6.99865838      10.47487233      -0.00575190       0.00604075      -0.00026587
H        8.70608711       7.40361027      11.91858197      -0.01542126      -0.01202761       0.02102251
O        6.54579372      10.16377319       1.64314794      -0.00020364       0.00015607       0.00770521
C        7.97268722      10.13143430       1.92642913       0.00162629      -0.00113511       0.00022509
C        8.57755264       8.77078842       1.69416608      -0.00499655      -0.00562233       0.01062334
H        8.46553407      10.88777182       1.31220400      -0.00005156      -0.01010537      -0.01181868
H        8.05325332      10.43966654       2.96480657       0.00820402       0.00943381      -0.00380006
H        9.61192295       8.78436399       2.04425839      -0.00157429      -0.00515692      -0.00029504
H        8.03672742       8.00258471       2.24967168      -0.00174163       0.00232759       0.02432100
H        8.58769307       8.51295757       0.63492236      -0.01635473      -0.01750888       0.01369044
H        6.36110111       9.83102139       0.74882901      -0.00536162       0.00277025       0.00767875
O       12.49187009      13.55788592       7.00780732      -0.00988513      -0.00267109      -0.00597680
C       11.50893906      13.88957800       6.04876662      -0.01744908      -0.00839871       0.00033194
C       10.85326470      12.68572017       5.39957716      -0.01005469      -0.01166689      -0.00296092
H       10.74469715      14.55343170       6.50064227      -0.02008611      -0.01454075       0.00786118
H       12.00388954      14.48572979       5.28138726      -0.02668513       0.00029182       0.00155208
H       10.11386303      12.99196908       4.65353821      -0.01852945      -0.01558357       0.00341639
H       11.59400173      12.07621400       4.88534154      -0.00771801       0.00086223      -0.01358678
H       10.39099855      12.01174071       6.13404206       0.00402109      -0.02218664      -0.00494510
H       12.04931822      13.08315400       7.72389739      -0.00181326      -0.01114113      -0.00644540
O        3.76057796       2.14526886       8.19193830      -0.00244570       0.00121375      -0.01132673
C        4.67559918       2.23893184       9.28218476      -0.00785232      -0.00256425      -0.00705943
C        5.93676998       2.98586589       8.89470106      -0.00433725      -0.00540367      -0.00045988
H        4.14583167       2.77349798      10.07146743      -0.01075056      -0.00347796      -0.00826856
H        4.92760574       1.24830772       9.66560386      -0.01165070      -0.00409389      -0.00756821
H        6.64049530       3.00761774       9.72973818      -0.00495492      -0.01207369       0.00027312
H        6.42704757       2.48433242       8.05836975      -0.00620738      -0.00397344      -0.00231142
H        5.70681737       4.00887562       8.59186484      -0.00031508      -0.00325483       0.00374498
H        4.13223622       1.51416419       7.56839804      -0.00018210       0.00109136      -0.01048516
O        6.81016895       5.65591975      13.54513094       0.02705315       0.00678897       0.00223267
C        7.33135080       4.44879909      13.00152177       0.00857121       0.00644106      -0.01244852
C        8.83028252       4.52876598      12.78088816       0.00932193      -0.01183190      -0.01232113
H        7.09071077       3.61066742      13.65995624      -0.00358821       0.00191429      -0.02283031
H        6.80395515       4.27304455      12.06193002       0.00669253       0.02540426      -0.01441637
H        9.22795818       3.57052510      12.44037090      -0.00375753      -0.01246393      -0.02421996
H        9.07212506       5.28105508      12.02514082       0.02023813      -0.00568321      -0.00239065
H        9.33087934       4.80361705      13.71160391       0.01311926      -0.02957056      -0.00941874
H        7.02275018       5.63003271      14.48540378       0.02984286      -0.00770271       0.00126094
O        9.08830355       2.15741427       7.84407984      -0.00813338       0.02247032       0.00076047
C       10.08302485       3.18191938       8.03827677      -0.00768712       0.02336882      -0.01159713
C        9.40855723       4.46213425       8.46502615      -0.00211570       0.02244496       0.00068897
H       10.80580979       2.83648910       8.78382143       0.00503674       0.02451801      -0.02362311
H       10.60857404       3.29281487       7.08999610      -0.02242632       0.02530774      -0.01952872
H       10.13850497       5.25658960       8.63076886      -0.00237659       0.02472205      -0.01105827
H        8.70702386       4.79394616       7.70000726      -0.01537472       0.02091140       0.01295410
H        8.85732854       4.30627352       9.39291950       0.01392305       0.02044967       0.00926763
H        8.79340696       1.88813659       8.77636644       0.00120575       0.02273423       0.00169247
O        2.65777743       7.07280377      11.76732695      -0.01417074      -0.00145009       0.01315331
C        2.85032143       6.83768943      10.38076531      -0.01026049       0.00821334       0.01160687
C        3.45953982       5.46731428      10.20123727      -0.01293930       0.00881988       0.00113440
H        1.89028289       6.87708212       9.84719052      -0.00879866       0.01834508       0.01055467
H        3.49721466       7.59991507       9.93494817      -0.00756919       0.00999293       0.01970139
H        3.59059043       5.24055919       9.14284035      -0.01504808       0.01808704      -0.00081873
H        4.42929388       5.41180225      10.69826617      -0.01226938       0.00228957      -0.00064699
H        2.81078820       4.70628604      10.63525362      -0.01385830       0.00707957      -0.00351350
H        2.64523207       8.02164789      11.95676022       0.00605344      -0.00367360       0.02009855
O       10.35886630      12.27114894       8.63685984       0.00484759      -0.01618395      -0.01093540
C       10.46674193      10.82454075       8.79830784       0.00849667      -0.01546333      -0.00307274
C       11.88707009      10.40121152       8.54454534       0.00982416      -0.00820431      -0.00561003
H       10.10799419      10.56678019       9.79219144       0.01233961      -0.01321887      -0.00091249
H        9.78273915      10.36704387       8.07738789       0.00723544      -0.01927173       0.00173217
H       11.96985003       9.31701857       8.61607606       0.01747104      -0.00723463      -0.00803550
H       12.20418522      10.70011633       7.54574129       0.00379227      -0.00794595      -0.00631025
H       12.56516642      10.84434230       9.27498571       0.00856736      -0.00113267      -0.00854036
H       10.04294941      12.70225917       9.48322744       0.00937451      -0.01625959      -0.01161957
O        5.37563931       7.98141967       3.54379256      -0.00625691      -0.00525612      -0.00352502
C        5.39999871       8.37877409       4.91980922      -0.00849995      -0.00177162      -0.00443986
C        6.81291204       8.56193140       5.43813881      -0.00929362      -0.00797167      -0.00059812
H        4.82729653       9.29970986       5.06320645      -0.00393212       0.00183135      -0.00944031
H        4.88681627       7.58596983       5.46509560      -0.01435871       0.00267163      -0.00351444
H        6.79597552       8.87065453       6.48461048      -0.01036149      -0.00096465      -0.00277580
H        7.38141963       7.63490529       5.34853747      -0.01524627      -0.01226130       0.00748496
H        7.32284051       9.34700209       4.87739156      -0.00250714      -0.01520129      -0.00452891
H        5.58064747       8.73601526       2.97711104      -0.00349645      -0.00699219      -0.00457746
O        3.80465193       5.68154763       3.65975944       0.00136626      -0.00801037      -0.01424250
C        2.42316066       5.83596064       3.95038982       0.00499058      -0.00038433      -0.00266376
C        1.96181412       4.61165215       4.70847557       0.00292556       0.00016016      -0.00313944
H        2.26087633       6.73176737       4.55956387       0.01517857      -0.00156534       0.00153095
H        1.84038421       5.94856780       3.02562649      -0.00088158       0.00649448       0.00209785
H        0.88896878       4.66178506       4.90466260       0.00442873       0.00559107       0.00313696
H        2.16021305       3.70886629       4.12854134      -0.00580865       0.00087413      -0.00715101
H        2.49133205       4.52253160       5.65814168       0.00794004      -0.00518280      -0.00643782
H        4.17919287       6.54200303       3.41486728       0.00452673      -0.00892581      -0.01287069
O        2.62517117      11.66015498       6.35537086      -0.01515579       0.00524279      -0.00125039
C        2.12068850      12.40499713       5.26754631      -0.01039982       0.00517648      -0.00317192
C        3.08178460      12.41631578       4.08552774      -0.00731042       0.00027819      -0.00044982
H        1.17897670      11.93360492       4.97822913      -0.01110601       0.00763214      -0.00522566
H        1.88661068      13.43343022       5.56731719      -0.00850783       0.00625628      -0.00582489
H        2.57890139      12.78766360       3.18233100      -0.00300306       0.00281608      -0.00202249
H        3.93819922      13.05592283       4.32620830      -0.00526413      -0.00355197       0.00262703
H        3.40461005      11.37479879       3.93302811      -0.01220850      -0.00118560       0.00095165
H        3.57712917      11.82425348       6.42453357      -0.01447424       0.00302508       0.00228236
O       10.45178176       9.22829480       5.05523036      -0.00727618       0.00586754       0.00511456
C       10.90636905       7.89151137       4.86339883      -0.00666477       0.00624746       0.00365984
C       10.82003773       7.05509649       6.12504954      -0.00813118       0.00447077       0.00231725
H       10.34831965       7.40712102       4.05202721      -0.00556383       0.00739586       0.00226644
H       11.94339652       7.98181976       4.53675245      -0.00629696       0.00687610       0.00506929
H       11.21143125       6.05051764       5.94548578      -0.00858959       0.00443396       0.00175721
H       11.39859490       7.51293446       6.92878779      -0.00863415       0.00327116       0.00354661
H        9.78468625       6.95835149       6.45878988      -0.00864294       0.00457335       0.00126698
H        9.50537048       9.20366835       5.23236328      -0.00700456       0.00552924       0.00574508
O       12.99003917       5.37733578       9.65533907       0.00988966       0.00601865      -0.00521851
C       12.84099113       5.94447524      10.96179250       0.00350843      -0.00004041      -0.00328441
C       12.33681606       7.36950789      10.90413906       0.00465575       0.00046557       0.00215927
H       12.17514169       5.32318364      11.57381935       0.00066593      -0.00299442      -0.00960603
H       13.82955166       5.90895070      11.41642833       0.00136602      -0.00229684       0.00137439
H       12.26625506       7.79067015      11.90688113       0.00181182      -0.00514159       0.00418329
H       13.01935821       7.98880110      10.32073669       0.00730470       0.00311045       0.00811867
H       11.34096228       7.42440197      10.45280703       0.00604388       0.00410110      -0.00049569
H       12.14545547       5.46713656       9.20687529       0.00934674      -0.00174627      -0.00561415
O        7.88159546       4.55249577       2.72661782      -0.01629522       0.00481296      -0.01063749
C        7.36717671       5.19577039       3.90039880      -0.00373247      -0.00016440      -0.00245322
C        6.56115811       4.26924385       4.78059597       0.00443360      -0.00357184       0.00123560
H        8.19750417       5.64147387       4.46501404       0.00251240      -0.00347751      -0.00941792
H        6.74348911       6.00958369       3.53231199      -0.00628877       0.00186509       0.00716171
H        6.07373526       4.83328156       5.57737268       0.01768244      -0.00756392       0.01149467
H        5.77269388       3.78848868       4.20268578      -0.00468601       0.00306022       0.00878732
H        7.19175683       3.50358484       5.24130959       0.00735842      -0.00843938      -0.01169011
H        8.36302152       3.76574122       3.00028379      -0.01069314       0.00530955      -0.01979795
O        2.76104908       7.28329183       7.12132600      -0.00087614       0.00000215       0.00578815
C        2.15216681       8.55422477       7.34555245       0.00226370       0.00350970      -0.00509664
C        1.04519185       8.85510912       6.35872864       0.00483704      -0.00114919      -0.00923169
H        1.77104470       8.61586939       8.37098268       0.00104861       0.01287361      -0.00627267
H        2.94728765       9.29039773       7.24605938       0.00455147       0.00042653      -0.00944330
H        0.63177250       9.84344937       6.55675442       0.00575159       0.00059943      -0.01601392
H        1.42648271       8.84671464       5.33739344       0.00717244      -0.00752390      -0.00830312
H        0.24065033       8.11883692       6.43961901       0.00346290       0.00044778      -0.00704958
H        2.10303924       6.60301523       7.29594300      -0.00352430       0.00355710       0.00935709
O        5.48513878       0.73201736       2.50543146       0.00497180      -0.00585447       0.01519692
C        6.62972254       1.05178861       1.67086164      -0.00695817       0.00241384       0.00416410
C        6.58309548       0.15724909       0.45716000      -0.00576425      -0.01092710       0.01340443
H        6.55305084       2.09760701       1.38159827      -0.02375956      -0.00235379      -0.00528407
H        7.54174868       0.89795484       2.25393871      -0.00098449       0.02104716      -0.00157285
H        7.31635084       0.46485549      -0.28870200      -0.02510548      -0.00465424      -0.00145377
H        6.84538189      -0.88977559       0.68297983       0.01788174      -0.00138147       0.02228642
H        5.61074629       0.21897964      -0.04128213      -0.01419263      -0.03414802       0.02751638
H        5.73169852       0.94231761       3.43419253       0.01311454      -0.00737198       0.01435950
O       12.66624967      12.23979971      13.96610765       0.00926042       0.01602465      -0.00340137
C       11.95278032      11.33803333      13.12171967       0.01397461       0.00797139       0.00109944
C       10.56087103      11.88468714      12.91457605       0.01100588      -0.00122085       0.00004870
H       12.47788856      11.23236174      12.16673660       0.01413190       0.00661223       0.00134271
H       11.90309874      10.34479097      13.58233522       0.02180937       0.00939208       0.00494593
H        9.93930554      11.17870551      12.36022334       0.01554331      -0.00573532       0.00113665
H       10.09107710      12.07265341      13.88189556       0.01095775      -0.00103137      -0.00008512
H       10.58136267      12.82609990      12.36737484       0.00421175      -0.00257146      -0.00247417
H       13.62400270      12.07830406      13.91410905       0.00863082       0.01390958       0.00292170
O       13.69032631       6.93386265       0.67467026       0.01543427       0.00282350       0.00232956
C       12.71467010       7.75366744       1.29742375       0.01279253      -0.00134623       0.00328115
C       13.31155559       8.93178646       2.03794946       0.00780493      -0.00423920       0.01196465
H       11.98049666       8.10915847       0.55880314       0.01456898       0.00156124       0.00294495
H       12.17212545       7.09664016       1.98232453       0.01220769      -0.00561100      -0.00157535
H       12.52988500       9.53764146       2.50205365       0.00491577      -0.01126128       0.01568902
H       14.00439983       8.59311703       2.80884265       0.00819640      -0.00741754       0.00995521
H       13.87018504       9.56942715       1.35157854       0.00579296       0.00341703       0.01770607
H       14.32942213       7.49713289       0.22018764       0.01152843       0.00393508      -0.00079356
O        4.27412735       2.36336765       0.22391801       0.00158751      -0.00678492      -0.00418693
C        3.67985726       3.33721026       1.08813897       0.00228822      -0.00818437      -0.00177883
C        3.09161292       4.50671231       0.33342853       0.00099549      -0.00740266       0.00074828
H        2.92369140       2.86025749       1.72498607       0.00295889      -0.00953996      -0.00191510
H        4.48172937       3.67704536       1.74477469       0.00295433      -0.00907822      -0.00210127
H        2.65410011       5.22982745       1.02232375       0.00451262      -0.00679444       0.00228505
H        3.85441640       5.02042676      -0.24895639      -0.00045194      -0.00831024      -0.00201328
H        2.29747801       4.18261985      -0.34372156      -0.00186688      -0.00631752       0.00350841
H        3.59053400       2.01912721      -0.35880269       0.00452603       0.00590086      -0.01433600
O       11.36786154       0.33876686       2.32088027      -0.00175071       0.00218487       0.00201380
C       11.22885443       1.54695470       1.58914681      -0.00133988       0.00288421       0.00315968
C       11.96345098       2.68591945       2.27129041      -0.00017554       0.00426263      -0.00018838
H       11.59803118       1.41547674       0.56751553      -0.00330889       0.00219669       0.00258487
H       10.15975325       1.78989516       1.51347545      -0.00122774       0.00375470       0.00495905
H       11.76324498       3.63634035       1.77219856       0.00943300      -0.00059511      -0.01223093
H       11.64208003       2.76772838       3.31173136      -0.00763591       0.01848658      -0.00413787
H       13.03953602       2.51145234       2.26384140      -0.00140254      -0.00147665       0.01001744
H       11.85730626      -0.28838753       1.75710950       0.00570786       0.00631709       0.00381147
