193
Lattice="13.796527247322896 0.0 0.0 0.0 13.796527247322896 0.0 0.0 0.0 13.796527247322896" Properties=species:S:1:pos:R:3:forces:R:3 energy=-951379.5625 stress="1.8662026377569418e-06 -0.00110071204835549 -0.00032935020863078535 -0.00110071204835549 0.0009014290990307927 0.0008597705455031246 -0.00032935020863078535 0.0008597705455031246 0.0015011423965916038" pbc="T T T"
Er       6.93604538      14.34128437      12.48790727       0.00002549      -0.00255448      -0.00115623
Er       5.34653155      12.83628296       7.14003527      -0.00670265       0.00044297       0.00584447
S       13.78121251      13.68858637      10.46142107       0.01134544      -0.00436585       0.01356914
S       13.38388209      11.85833943      10.94134288       0.00562197      -0.00251055       0.01993316
O       12.72805552      14.30911939       9.61061961       0.01159734      -0.00300166       0.01397258
O       15.06798331      13.71019730       9.53265155       0.00948983      -0.01219938       0.01138860
O       14.15381671      14.52139586      11.59178836       0.01633564      -0.00350976       0.01076841
S        7.94096043      11.20379902       6.61645119       0.00672589       0.01563948      -0.00900722
S        8.03854160      12.75361574       8.14950652      -0.00107034       0.00482883       0.00671567
O        8.56420404      11.87897098       5.50386332      -0.01165965      -0.01769748       0.03146046
O        6.45280583      11.08909214       6.42673834       0.00087887      -0.00258587       0.01739042
O        8.53116208      10.00039601       7.10953660       0.00010952      -0.00369573       0.02281150
S        5.90449087      12.11623449      14.36190540      -0.00545169      -0.01009482      -0.00894436
S        4.75385623      12.81309861      12.80969502      -0.00113165      -0.00110879      -0.01175582
O        6.32725015      10.74504603      14.11773052      -0.01460996      -0.01308942      -0.00657575
O        5.18475170      12.28711326      15.62448572      -0.00309104      -0.00425802      -0.00951636
O        7.09420514      13.04058715      14.32962243      -0.00024551      -0.01750296      -0.01146629
O        7.40182864       4.06575459       6.23827536       0.00284141      -0.00215295       0.00654113
O        8.66223248       5.77934917       6.93995387       0.00037079      -0.00494486       0.00454611
C        9.69942856       4.04447589       5.66518871       0.00612229      -0.00465262       0.01404426
C        8.54953774       4.71867519       6.33536121       0.00393693       0.00037557       0.01194295
H       10.22463586       3.42625328       6.39771262       0.00139021      -0.00870524       0.01363139
H        9.36223650       3.39870797       4.85963352       0.00883228      -0.00154880       0.01117159
H       10.41010832       4.77568520       5.29407248       0.00961375      -0.00465363       0.01967210
H        6.67007745       4.61108346       6.66155890       0.00119464       0.00328565      -0.00264546
O        6.65531693       7.38944181       7.37363438       0.00435811      -0.00679307       0.01155145
O        5.42584645       5.52152575       7.20059421       0.00131468      -0.00545782      -0.00252892
C        4.33991499       7.65782859       7.12776811       0.00594366      -0.00047684       0.00460592
C        5.52197127       6.74749240       7.24624191       0.00434506       0.00117826       0.00356984
H        4.35764903       8.40027729       7.92467419       0.00405378      -0.00692914       0.01099688
H        4.41948913       8.19622145       6.18138738       0.00797285       0.00811411       0.00953496
H        3.41538292       7.08925606       7.15072758       0.00588268      -0.00078534      -0.00335760
H        7.42809075       6.74814677       7.29340655       0.00416722      -0.00795799       0.00560792
O       12.58489302       9.45121541       8.40207159       0.00053322       0.00022101       0.00640844
O       10.71649937      10.05113810       9.47577686       0.00393802       0.00345787       0.01116240
C       11.60223007      11.51143506       7.80216005       0.00253265       0.00146800       0.00858533
C       11.59954142      10.28925788       8.64721432       0.00237596       0.00195351       0.00852531
H       12.61654067      11.81242888       7.55567475       0.00302856       0.00309140       0.01164001
H       11.09636804      11.25538672       6.86831544       0.00640861       0.00095434       0.00637925
H       11.06861270      12.31077950       8.30524229      -0.00013922       0.00085257       0.00686987
H       12.58845237       8.72306120       9.09187587       0.00125156      -0.00047188       0.00536257
O        7.05828362       7.59742976       4.02579621      -0.00203907      -0.01241592      -0.00748694
O        6.98436749       7.39667411       1.79647521       0.00328827      -0.00999999      -0.00819731
C        7.99906536       9.35284693       2.77131059      -0.01029846      -0.00491560      -0.00356993
C        7.31134880       8.02415101       2.78609914      -0.00208306      -0.00887108      -0.00647724
H        7.22438188      10.12289383       2.79999879      -0.01535495      -0.00984496      -0.00448213
H        8.62538664       9.47671764       3.65116422      -0.01303961      -0.00252414      -0.00190359
H        8.57091965       9.46310391       1.85459323      -0.00862225       0.00015187      -0.00220568
H        6.51216369       6.77122442       3.95980751       0.00266883      -0.01490761      -0.00993648
O        5.11813469       3.90926405       1.22211742       0.01405668      -0.00253037      -0.01664627
O        6.16746119       2.19566251       0.25460392       0.02044372      -0.00524396      -0.00287088
C        4.26035418       1.77731043       1.68537905       0.00358775      -0.00122869      -0.02553424
C        5.26600266       2.61561247       0.97480815       0.01223496      -0.00258884      -0.01275328
H        3.30349912       2.29115633       1.75444995       0.00338548       0.00009130      -0.03925961
H        4.15353995       0.80538461       1.21233973       0.00862082      -0.00163731      -0.02611886
H        4.61676777       1.61857305       2.70697533      -0.00930689      -0.00128565      -0.02121803
H        5.82268060       4.41611235       0.78764076       0.02047259      -0.00701457      -0.01074213
O       11.26467390       8.61430862       3.30736202      -0.01105254       0.00473751       0.00064743
O       11.59558999      10.05577660       4.98522703       0.01243484      -0.00622928       0.00120267
C       10.92594015       7.80799472       5.50308598      -0.00684869       0.00201082       0.00015473
C       11.30155600       8.94239986       4.60861706       0.00096309       0.00527906       0.00243185
H       11.20042412       6.85119178       5.06552505      -0.00472964       0.00201909       0.00170135
H       11.38606562       7.94319284       6.47815046      -0.01282033       0.00216245       0.00306126
H        9.84228315       7.81978511       5.64136442      -0.00760260       0.00222848      -0.00760657
H       11.35743284       9.44821895       2.79688287      -0.00905043       0.00530902       0.00200296
O       10.50121829       7.83445354      10.70027217       0.00401372       0.00105149       0.00722989
O       12.68253078       7.59320089      10.25983361       0.00282198      -0.00286600       0.00122035
C       11.64964764       6.11418867      11.82763892       0.00244496      -0.00462419       0.00034744
C       11.66161398       7.25110381      10.85479836       0.00225356      -0.00251007       0.00324219
H       11.34855651       6.48861387      12.80656576       0.00832318      -0.00582650       0.00254084
H       10.91434575       5.36727241      11.52951511      -0.00200714      -0.00107935       0.00241650
H       12.62824023       5.64931686      11.88192684       0.00074258      -0.00896139      -0.00504421
H       10.60675817       8.69722357      10.14808803       0.00405438       0.00226849       0.00952584
O        8.42033416       1.06702654       5.74069479      -0.00726396      -0.00111461       0.00151062
O        6.28174989       0.45745637       5.68883260      -0.00417691      -0.00373247       0.00030267
C        7.36299750       1.04510191       3.64022118      -0.00989874       0.00690413       0.00292391
C        7.30653145       0.82373311       5.10177294      -0.01131502      -0.00209828       0.00426276
H        8.37328025       0.91091300       3.26587033      -0.01037243       0.00988407       0.00147438
H        6.68661155       0.35768830       3.13547875      -0.01002169       0.00826812       0.00077748
H        7.04515674       2.07378672       3.44482919      -0.01102045       0.00769493       0.00876080
H        8.31716592       0.81605489       6.68308749      -0.00617549      -0.00373243       0.00086206
O        4.70186855       7.94154298      10.86749994      -0.00953126       0.00568709       0.02358600
O        4.61856590       5.82520282      11.60342494       0.00814337       0.00466865       0.01345730
C        2.72315062       6.73564450      10.42649642       0.00972593      -0.01449281       0.00277963
C        4.09909332       6.75396684      11.01947755       0.00173277      -0.00122666       0.01389810
H        2.03856929       7.21346112      11.13209959       0.00055988      -0.01969886      -0.00722148
H        2.68004524       7.32365902       9.51264129       0.01488939      -0.01416212       0.00662683
H        2.38934151       5.71656530      10.24728695       0.02383842      -0.01427326      -0.00169983
H        5.51988093       7.96099700      11.41120868      -0.00890166       0.01676466       0.02979714
O       11.32429752      13.71120139      13.06659503       0.00352334       0.01798660       0.00098401
O        9.15508651      14.01718365      12.74438844       0.00272170       0.02292913       0.01271003
C       10.02375854      11.76841271      12.79284508      -0.00168948       0.02137935      -0.00000978
C       10.11759464      13.24828830      12.87635901       0.00185156       0.02131832       0.00476077
H       10.35119276      11.47600285      11.78939953      -0.00660697       0.02379352      -0.00211224
H       10.70381536      11.28871296      13.49393643      -0.00007753       0.01785821      -0.00432476
H        9.00572984      11.42144473      12.95214535      -0.00198931       0.02401591       0.00318091
H       11.34065614      14.68440278      12.90060647       0.00486201       0.01890546       0.00468884
O        3.60706383       6.69331293       3.72078780       0.00229198      -0.00790691       0.01454259
O        5.47361103       5.48039884       4.05516578       0.00046343      -0.01770899      -0.01480879
C        3.34094501       4.51725809       4.54632605       0.00176561      -0.01339447      -0.00027099
C        4.26141732       5.60023602       4.07823248       0.00185126      -0.01306801      -0.00056698
H        2.92050698       4.80791814       5.51132812       0.00247297      -0.01559321       0.00075936
H        2.51418820       4.39222683       3.84754665       0.00109713      -0.01180485       0.00012177
H        3.89438318       3.59302590       4.67676765       0.00169764      -0.01391988      -0.00358462
H        4.17647667       7.44948578       3.39021454       0.00132957      -0.00938076       0.00909618
O       10.34080081       1.41437465      10.03782194       0.00632808      -0.00505421       0.00925902
O       11.00763332       2.40283854      11.94224827       0.00825387       0.01672411      -0.00209379
C        8.75091597       2.69591872      11.18518142       0.00954759       0.01441365      -0.00968395
C       10.15788638       2.16529608      11.10120876       0.00845504       0.00915410       0.00078478
H        8.07398828       2.05721197      10.61670357       0.00583530       0.00877089       0.00066338
H        8.45808924       2.79748806      12.23298319       0.00732731       0.01626081      -0.01021449
H        8.69708672       3.69428700      10.74393363       0.01265529       0.00530952      -0.02749971
H       11.28605792       1.06678872       9.98986230       0.00770018      -0.00059144       0.01181485
O        3.48803432      10.31600969       1.22791273      -0.00483792      -0.01084358       0.00569773
O        4.39299118       8.99056319       2.78378807      -0.00007325      -0.01102409       0.00347006
C        3.72640471       8.05111919       0.66955521      -0.01747648      -0.01124281       0.00963181
C        3.91693751       9.14692312       1.66666727      -0.00665843      -0.01125109       0.00639409
H        2.68833876       7.71522190       0.70549215      -0.01802665      -0.00697604       0.01450424
H        3.92420267       8.43269836      -0.32968416      -0.02328698      -0.01321654       0.00878283
H        4.39092664       7.22269067       0.89692030      -0.01970422      -0.01398546       0.00296608
H        3.87590698      11.04607279       1.76517432      -0.00113359      -0.01029694       0.00200915
O        0.97145469       3.19595178      12.39964148      -0.00019076       0.00621527      -0.00919428
O        0.03789964       3.49367612      14.42386407       0.01047432      -0.00831383      -0.00194031
C        1.65109860       5.07955296      13.60741056       0.00445420      -0.00150126      -0.00002430
C        0.80013025       3.84302131      13.53888318       0.00593889      -0.00192261      -0.00385696
H        2.02767843       5.21717251      14.61736751       0.00476620      -0.00297645      -0.00008655
H        2.46731306       5.04304697      12.89123392       0.00451478       0.00183458      -0.00021295
H        1.01923365       5.94270646      13.38424476       0.00173554      -0.00267352       0.00296771
H        0.45870042       2.35750735      12.31940950       0.00380656       0.00375542      -0.00926867
O        5.60553547      12.45828834       9.35661587       0.00100356       0.01269661       0.00811112
O        7.35907315      13.15926445      10.68523064       0.00847137       0.00884956       0.00237954
C        7.28659938      10.81692899      10.11383338      -0.00521304       0.01044202       0.01004910
C        7.05309211      12.27685210       9.82033499       0.00365269       0.00860284       0.00323266
H        6.70197765      10.55177631      10.99639220      -0.00706093       0.01884178       0.01254670
H        6.99427474      10.17830879       9.28154781      -0.01254714       0.00932865       0.01262887
H        8.34430656      10.65627149      10.31666018      -0.00542068       0.00211621       0.01070495
H        5.06969384      12.38137175      10.16566285       0.00330603       0.00875648       0.00820184
O        4.61358457       3.39066869       9.83570406       0.00950837       0.00711024      -0.00475150
O        5.65062968       2.02696697      11.25508184       0.00388060       0.00454991      -0.00176558
C        3.34779443       1.61659092      10.69352482       0.00582731       0.00684249      -0.01052237
C        4.62722421       2.34602248      10.64130633       0.00610867       0.00627033      -0.00560671
H        2.50093134       2.27488198      10.52535017       0.00646597       0.00620854      -0.01724529
H        3.32170384       0.88777353       9.88033649       0.01061881       0.00339577      -0.00780126
H        3.24876291       1.06774164      11.62681345       0.00064325       0.00939855      -0.00958785
H        5.45634794       3.86452009       9.90426811       0.00993633       0.00621226      -0.00332025
O        0.28828677      10.71131459       0.66333566      -0.00558369       0.01028830      -0.02480340
O        0.86120490      12.43449000       1.98760352       0.00865415      -0.00146306      -0.01707559
C        0.70937530      10.24197761       2.94151183      -0.01064687      -0.00221032      -0.02670479
C        0.63868518      11.25561820       1.83607225      -0.00063445       0.00475299      -0.02242565
H        0.61015232       9.22720871       2.56644992      -0.00424312      -0.00076093      -0.03174539
H        1.65751048      10.35256900       3.46675419      -0.01748785      -0.00186945      -0.01560289
H       -0.08933220      10.44090879       3.66038276      -0.01737469      -0.00641441      -0.03383960
H        0.25827950      11.40754690      -0.01710363      -0.00090232       0.01262921      -0.02352085
O        6.76163607       8.51581849      12.67966511      -0.01053995      -0.00157565      -0.00162025
O        8.88154623       8.61632375      13.41836723      -0.00660253       0.01013345      -0.00916040
C        8.01607106       6.52281195      12.60231066       0.00001407       0.00424868      -0.00753799
C        7.97028174       7.97330579      12.97028770      -0.00836045       0.00193942      -0.00769454
H        7.05680222       6.04978716      12.80260241      -0.00140521       0.00194670      -0.02019262
H        8.21579333       6.44988551      11.53072306       0.01407053       0.00653596      -0.00476152
H        8.82269827       6.03576417      13.14147441      -0.00533949       0.00570780       0.00142959
H        6.70029121       9.40828524      13.09651743      -0.01344448      -0.00174654      -0.00086018
O        0.32963947       5.39451159       2.56592631       0.00657895      -0.01083949       0.00285530
O       -1.16861328       4.83403683       4.14745749      -0.00077486      -0.00329244      -0.00169981
C        0.25837150       6.74249208       4.48273911      -0.00344706      -0.00049466      -0.00506723
C       -0.28255471       5.55298145       3.74674999       0.00047421      -0.00510526      -0.00096311
H        1.32986669       6.84583440       4.32987505      -0.00184616      -0.00403870       0.00325022
H       -0.21750027       7.63452285       4.07331152       0.00246619      -0.00245033      -0.01615160
H        0.01384289       6.67777712       5.53771458      -0.01234446       0.00788882      -0.00675668
H       -0.02193949       4.62808692       2.05013952       0.00838529      -0.01203945       0.00351605
O        9.53708411      12.74740709       2.25335813      -0.00130117       0.01647687       0.00180417
O       11.01182711      11.07336451       2.10374009      -0.01477325       0.00058955      -0.00021580
C       11.44059897      12.91051797       3.61292213       0.00174895      -0.00004241       0.00044113
C       10.68322774      12.13337231       2.59259853      -0.00693519       0.01117885       0.00355497
H       11.39255407      13.97521360       3.39141871       0.00609710       0.00137207       0.00489062
H       10.95830999      12.73791875       4.57742914       0.00605004      -0.00157087       0.00251648
H       12.46941180      12.57364191       3.66294601       0.00060964      -0.00506631      -0.00508820
H        9.01829091      12.18482440       1.65446475      -0.00692922       0.02155334       0.00265601
O        3.31082188      13.08596374       6.86859443      -0.00401312      -0.00093497      -0.00850606
O        1.09206899      13.27940767       6.96137764      -0.00393498      -0.00192676       0.00984704
C        2.16416291      13.34343213       4.82057593      -0.02101735       0.00784282       0.00055104
C        2.13527036      13.22836384       6.31961095      -0.00714052       0.00068805      -0.00106215
H        2.59498879      14.31275754       4.55442301      -0.02568865       0.00986236       0.00024579
H        2.82272234      12.58756490       4.39042802      -0.02612440       0.00968207      -0.00991128
H        1.18057249      13.26336907       4.37350985      -0.02603137       0.00797562       0.01116204
H        1.09393243      13.45829940       8.57454097       0.00436100      -0.00686593       0.01028544
O       12.74666695       2.91530646       8.36203946       0.00754327      -0.00429052       0.00826488
O       14.85925939       3.43555180       8.92826162       0.00826848      -0.00035328       0.00131655
C       13.47642975       5.09831602       7.88476628       0.00450557      -0.00577736      -0.00402829
C       13.79335778       3.74190770       8.44214283       0.00672632      -0.00279200       0.00208271
H       12.83704529       5.02537582       7.00630648       0.01207760      -0.01250503      -0.00905420
H       12.95012268       5.67921168       8.64534492      -0.00544947      -0.00645575      -0.01072147
H       14.40033632       5.62166792       7.65351817       0.00351626      -0.00147837       0.00125992
H       12.96706834       2.05359425       8.79209695       0.01041298      -0.00223636       0.01053274
