197
Lattice="14.04881442669753 0.0 0.0 0.0 14.04881442669753 0.0 0.0 0.0 14.04881442669753" Properties=species:S:1:pos:R:3:forces:R:3 energy=-958617.25 stress="-0.001862025703303516 0.0010251227067783475 0.0010930748539976776 0.0010251227067783475 -0.005593390204012394 -0.0007165069691836834 0.0010930748539976776 -0.0007165069691836834 -0.0027033183723688126" pbc="T T T"
Eu       3.23945447      14.49384559      -0.99909732       0.05758196      -0.00475965       0.01550820
Eu       8.41072189      13.30538665       2.40129429      -0.01418211      -0.01546459      -0.01217835
S       14.31738417      13.67160290      11.09148595       0.05276473       0.00030252       0.04638919
S       14.10459918      14.58359275       9.33895253       0.05851030       0.00849128       0.05133331
O       14.67698960      12.26994899      10.92094987       0.08768672       0.01590300       0.03584595
O       13.20193485      13.92298129      11.97293305       0.03464973      -0.03201967       0.04145622
O       15.58908228      14.37515483      11.78749475       0.03758979       0.03522527       0.07945177
S        8.12121958      13.24714403      13.28251073      -0.03991267       0.00521058      -0.01498628
S        6.48789947      13.95482529      14.43746447      -0.04709071      -0.02442545      -0.00742069
O        8.19530213      13.97430461      12.04218551      -0.05431917       0.01246542      -0.01242107
O        7.98754774      11.79309662      13.10821327      -0.01863752       0.00441563      -0.02095383
O        9.25244681      13.51686340      14.23328521      -0.04185456       0.01770547      -0.01873836
S        9.32161618      13.43403445       5.50978494      -0.01228637       0.00071144      -0.00221261
S        9.10631676      11.69318761       6.91229913       0.00800073      -0.00171342       0.00639160
O       10.03527176      12.87687536       4.34755485      -0.03251654      -0.02419943      -0.01017126
O        9.95901153      14.48844806       6.22651330       0.01688626      -0.00756837      -0.02438046
O        7.90324697      13.56350296       5.19758575      -0.00733459       0.01014026       0.02290091
S        3.20610790       7.57603705       1.60213294      -0.01080894      -0.00179386       0.00240801
O        3.39553262       8.94355468       1.03423527      -0.02598162       0.00441813       0.01318255
C        1.54951707       7.63348461       2.31049507      -0.00897682      -0.02503489       0.00792515
C        4.16287371       7.48633561       3.12804355      -0.00734249      -0.00541850      -0.00048798
H        0.86621985       7.70056986       1.46525168      -0.01290974      -0.03027659       0.01098837
H        1.48610895       8.54050004       2.91130473      -0.01716495      -0.02810679       0.01122047
H        1.33631057       6.75016652       2.91011832       0.00402349      -0.02948880       0.00562219
H        4.02083092       6.52496451       3.62413103      -0.00213464      -0.00920327      -0.00684991
H        3.90353067       8.30183231       3.80133712      -0.01053339      -0.01135242       0.00510427
H        5.20967435       7.57208806       2.83946870      -0.00826859       0.00177242      -0.00084312
S        4.70422176      12.70113797      11.18168460      -0.04604179      -0.00720385       0.00312245
O        3.74104367      12.33889212      12.33015980      -0.03547537      -0.01647839       0.00581425
C        3.74540813      12.64917515       9.67676436      -0.03201914      -0.01793525      -0.00277305
C        5.64794456      11.18904995      11.07177617      -0.00669163       0.01763493      -0.00816413
H        3.17717591      13.57901182       9.61989861      -0.04814336      -0.02811620      -0.00080062
H        3.05910285      11.80655245       9.74104165      -0.01703513      -0.03178829      -0.02394588
H        4.42627957      12.60143507       8.82689348      -0.01268812       0.00362144       0.01180239
H        6.16890553      11.14422758      10.12010325      -0.02579875       0.04087342      -0.02024876
H        4.90846001      10.39476087      11.16106153       0.02413034      -0.01120205       0.00167869
H        6.35817918      11.19284690      11.89935381       0.01079136       0.03926780      -0.02311414
S        5.66341247      10.82337310       2.55921341      -0.00197530      -0.00847435       0.00162984
O        6.79343919      11.76709432       2.99187796       0.00011313      -0.01285595       0.00447889
C        5.76078566      10.69643531       0.79315971       0.00150493      -0.02660871       0.00299489
C        4.14217487      11.76541975       2.68579859       0.00708273       0.00470418      -0.00869730
H        6.76678064      10.33981193       0.60467591       0.00513712      -0.01769461       0.00643317
H        5.61770222      11.67996709       0.35570218      -0.01538227      -0.03778906      -0.01541704
H        5.00028515       9.98565075       0.48585005       0.00884387      -0.04154406       0.01958014
H        3.36884891      11.13511510       2.24490191       0.00151213       0.00919886      -0.00410507
H        4.24410503      12.70504620       2.13974117       0.01835199      -0.00072600      -0.01526559
H        3.94013716      11.94087137       3.74034099       0.01063099       0.01388754      -0.00984189
S        6.98868045       3.36502216      12.33074851       0.02706635       0.01395977       0.03373337
O        8.04438837       2.74804968      13.16282260      -0.00456882       0.00210983       0.06530082
C        6.32471751       4.71536513      13.33261761      -0.00613549       0.01126772       0.01547635
C        5.45460685       2.36110280      12.42492637       0.03031111       0.01291037      -0.00695376
H        7.20408439       5.27802565      13.64247457      -0.02343595       0.03037162       0.02818080
H        5.83276488       4.30788925      14.21291475      -0.01560396       0.00479385       0.00721553
H        5.64159661       5.33327372      12.75310705      -0.00760541      -0.00633249      -0.00173529
H        4.69894715       2.88472493      11.82613820       0.02960494       0.00357048      -0.01354366
H        5.23010963       2.23477244      13.49768074       0.02220105       0.01203831      -0.00880152
H        5.70833108       1.40786008      11.94897081       0.04893576       0.01588226      -0.00148879
S        5.36884362       8.78757411       7.20146130       0.00240982       0.01146793      -0.01445496
O        4.26386796       8.18090500       6.39803917      -0.00163448       0.02021790      -0.01503164
C        4.79717333       8.73776119       8.91510205       0.01268205      -0.00768180      -0.01160890
C        5.22214622      10.56109990       6.92133230       0.00413661       0.01466310       0.00769718
H        4.54706775       7.69537082       9.10372605       0.00879108      -0.00896369      -0.02527197
H        3.91816844       9.36631909       9.06258770       0.01645990      -0.00604333       0.00204575
H        5.61470840       9.02581895       9.57076063       0.01853721      -0.02059823      -0.01298562
H        5.92906217      11.11249270       7.54073625       0.00624286       0.00393659       0.01450964
H        4.19341121      10.87209640       7.10222423       0.00569054       0.01546541       0.01366469
H        5.48261832      10.72115916       5.87488823       0.00344365       0.02905747       0.01007342
S        8.01871733       7.20235403      12.19026405      -0.00569165       0.00406073      -0.01758730
O        8.99277819       6.84192732      13.26840421      -0.00624096       0.00512441      -0.01711631
C        8.60990809       8.69356603      11.37801374      -0.00201856       0.00072587      -0.02114274
C        6.59054661       7.98191645      12.97992080       0.00160933       0.01441586      -0.01658887
H        9.56417222       8.44504941      10.92145536      -0.00611553      -0.00373269      -0.02639671
H        8.69616067       9.51069300      12.09357931       0.00432384      -0.00097077      -0.02022183
H        7.90176172       8.91590835      10.57965576      -0.00486359       0.00597530      -0.01697189
H        5.80023134       8.11147317      12.23972164      -0.00003986       0.01945246      -0.01341338
H        6.89734256       8.92578182      13.41136541       0.01195544       0.01310530      -0.02165779
H        6.24937810       7.32004093      13.77027927      -0.00091737       0.02005033      -0.01327088
S        9.69685354       9.24058080       0.79010028       0.00620472       0.01141965      -0.00941646
O        8.40388417       8.97813188       1.49833020       0.00622702       0.02215374      -0.00581998
C       10.93277488       8.15026228       1.52669999      -0.00193390      -0.00095853      -0.01406062
C       10.30911383      10.76869506       1.53181216       0.02328846       0.00504166      -0.00938487
H       10.68691006       7.14034084       1.20738009      -0.01253632       0.00254497      -0.01630044
H       10.88384038       8.24797060       2.61206427       0.00186212      -0.00425777      -0.01380108
H       11.92126709       8.43518764       1.16638444      -0.00032505      -0.00967176      -0.01568897
H       11.28319093      11.04468344       1.12616679       0.03729679      -0.02082362       0.00708176
H       10.33484318      10.67213712       2.61929601       0.00476733       0.00587212      -0.00880046
H        9.59070745      11.51045015       1.17347516       0.04812617       0.02324612      -0.02327493
S        9.85078784       5.81239173       8.82162002       0.01363790      -0.01597619       0.00519878
O        9.31574131       7.19357662       8.57471506       0.02750248      -0.00988817       0.01145831
C       10.00195327       4.96856414       7.23306547       0.01926401      -0.00255159      -0.00072587
C        8.47269436       4.81206252       9.40420172       0.00080740      -0.00823405      -0.01263864
H       10.71919604       5.52494091       6.63394874       0.02310174       0.00219992       0.00862159
H        9.02720423       4.93509908       6.74462203       0.02200103       0.00421851      -0.00581319
H       10.37653489       3.96268190       7.42227186       0.01659747      -0.00493477      -0.00902566
H        8.80413545       3.78083904       9.52388988      -0.00752106      -0.01093976      -0.01572000
H        7.65152760       4.88159039       8.68977561       0.00830317       0.00179953      -0.01986198
H        8.17110547       5.20907283      10.36888761      -0.00421012      -0.01106780      -0.01338232
S        2.97294072       3.94325778       9.69788193      -0.02207762      -0.01308095       0.01914155
O        4.00593762       2.87035331       9.92053831      -0.02172840      -0.01180196       0.01991397
C        3.44004000       5.29604746      10.81782334      -0.00894259      -0.00525320       0.00294870
C        1.48609224       3.43947606      10.51371648      -0.01828867       0.00281247       0.03407341
H        4.45932741       5.59011783      10.56373605      -0.01528345      -0.00179726      -0.01719436
H        3.39608336       4.93993412      11.84794424       0.01121354      -0.00197022       0.00473037
H        2.75955015       6.13617897      10.69403586      -0.01580028      -0.00973134       0.01251928
H        0.71947622       4.20750844      10.38547363      -0.00811218       0.01272300       0.03481424
H        1.68788269       3.23440622      11.56945870      -0.01650275      -0.00262265       0.03239129
H        1.15059587       2.51530557      10.02511684      -0.03191504       0.00605571       0.03565937
S       10.15700904      12.15873537       8.64036911       0.01636812       0.01474878      -0.00376888
O       10.66354474      13.48754725       8.75843317       0.01665001       0.01819553      -0.02558251
C        8.91274361      11.78083054       9.84040976       0.02877045       0.02955226       0.01108918
C       11.39065372      10.92597032       8.89331213       0.01737618       0.01791990      -0.00387324
H        8.19665108      12.59818965       9.80931674       0.02356385       0.02438346       0.01157232
H        9.37786157      11.74465201      10.82409247       0.04084465       0.04289475       0.00559387
H        8.46000902      10.82781108       9.57033254       0.02835193       0.02461490       0.03046106
H       10.91322102       9.94522644       8.90949124       0.01804781       0.01770800       0.00258213
H       11.85618172      11.18449324       9.84729550       0.02269710       0.02035601      -0.00728354
H       12.09137217      10.99972095       8.06141010       0.01261543       0.01397207      -0.00758615
S        8.15854367       7.22022676       5.22454739      -0.00020123      -0.00076225      -0.00109883
O        6.76258049       6.77888094       5.51800368      -0.00164890       0.00041324      -0.00765239
C        8.01954875       8.91347513       4.63535608       0.00899921      -0.00013059      -0.00250041
C        8.58812558       6.43610711       3.66214928       0.00439306      -0.00194217       0.00098383
H        7.73852815       9.51483649       5.49794544       0.01122155       0.00262408      -0.00391729
H        7.25555186       8.95456986       3.86239127       0.01143146       0.00454713      -0.00427341
H        8.96951134       9.26548325       4.23744088       0.01243453      -0.00736806      -0.00023439
H        9.60370652       6.70023498       3.37919175       0.00736644      -0.00887260       0.00585094
H        7.89249941       6.73463824       2.87839076       0.00910573       0.00174377      -0.00157568
H        8.52826118       5.36813854       3.86158806      -0.00347703      -0.00128107       0.00102453
S        3.39262670       2.62084354       1.89937007       0.02127230       0.00325671      -0.02511902
O        2.56408764       1.56492691       1.15664208       0.04567307      -0.02339678      -0.01395930
C        2.56826983       3.07153680       3.42650089       0.00702968      -0.03480496      -0.02432030
C        3.11134728       4.15613631       1.03500220      -0.01686013       0.00255007      -0.01417764
H        2.56310718       2.20782095       4.08776257       0.01341791      -0.05280733      -0.04875586
H        1.55895392       3.43534892       3.23492561       0.00287825      -0.05190843      -0.03229083
H        3.21314754       3.83620689       3.87112609      -0.01685470      -0.03361310       0.00623858
H        3.69316824       4.92964395       1.53470009      -0.02168480      -0.00221260      -0.00144829
H        2.04991291       4.40109786       1.02589648      -0.01874709      -0.00532866      -0.00586323
H        3.49237033       4.02684661       0.02384345      -0.01839916       0.02699162      -0.01775442
S        2.42789265      12.78954434       5.74819115      -0.01977324      -0.02582681      -0.01660752
O        3.33414088      13.83379795       6.32331451       0.00455952      -0.04069173      -0.02893203
C        1.23073500      13.63865790       4.69834250      -0.02306712      -0.00448057       0.00559616
C        1.28426686      12.25057720       7.01175624      -0.00898957      -0.01590466      -0.00244606
H        1.77940652      14.04341062       3.84836014      -0.03176673      -0.01460730      -0.00450855
H        0.74365832      14.42925121       5.26950591       0.00448380       0.00465770       0.01578464
H        0.49410165      12.91518082       4.35148061      -0.04393046       0.01001011       0.02061037
H        0.50956881      11.63160270       6.55521174      -0.02026241      -0.00428103       0.00152898
H        0.84881353      13.11082451       7.53154771       0.00732727      -0.01525170       0.00836512
H        1.84738431      11.65520674       7.72861900      -0.00663561      -0.02897734      -0.01576735
S       11.62434605      10.23642473       5.06627746       0.01389503       0.01226038      -0.01069391
O       12.16086822      11.27192911       5.99915544       0.01715982       0.01568902      -0.01553941
C       11.43527472       8.67898513       5.96353005       0.01104019       0.01702642      -0.00431374
C       13.06560689       9.76398444       4.08999989       0.00918889       0.00321181      -0.01248196
H       10.56065791       8.76093011       6.60840584       0.01285273       0.02335877      -0.00320446
H       12.33530114       8.49387404       6.55217481       0.01037323       0.01375851      -0.00485675
H       11.25069375       7.88323019       5.23902841       0.00533695       0.01629008      -0.00171851
H       12.90618250       8.82715924       3.56062002       0.00166281       0.00165032      -0.00709771
H       13.88730245       9.67998596       4.79702452       0.01278439       0.00196152      -0.01735929
H       13.24994632      10.57293068       3.38526263       0.01072800      -0.00192435      -0.01769509
S       13.35815840       6.58832790      11.25414324       0.01012290       0.02458251       0.00031221
O       13.23737246       5.57483308      10.16215756       0.02831957       0.03199577      -0.00858116
C       12.06341442       6.22533280      12.45275270       0.00550842       0.00166410      -0.01239404
C       12.64866478       8.11104330      10.61225144      -0.00052431       0.01957500       0.00243780
H       12.33453107       5.30896742      12.97255728       0.00999521      -0.00053340      -0.01886129
H       11.11480810       6.09379251      11.93676555       0.01056404      -0.00176205      -0.02025093
H       11.98781923       7.05228426      13.15609092      -0.00584290      -0.00595561      -0.00514633
H       12.70549447       8.88901552      11.37330147      -0.01827719       0.01686084       0.00602302
H       11.62087565       7.91089838      10.30694815       0.00581856       0.00762671      -0.01021954
H       13.24094925       8.39359480       9.74110038       0.00552666       0.02882794       0.00989714
S        6.02589459       4.07403851       6.11045500      -0.01284671      -0.00251965       0.00900602
O        5.47493088       4.09735790       4.70157330      -0.01412302      -0.00622889       0.01041710
C        5.67877234       2.44221071       6.80598884      -0.01661730       0.00100809       0.01332641
C        4.82482327       4.98293235       7.06970084      -0.00797820       0.00545868       0.00819480
H        6.45521940       1.75203940       6.47841680      -0.01993707      -0.00111053       0.01067315
H        4.69620409       2.09010946       6.48968751      -0.01841082       0.00425596       0.01594491
H        5.69964131       2.52655698       7.89271436      -0.01291691       0.00123487       0.01298049
H        5.13378445       4.97192400       8.11508274      -0.00641008       0.00589615       0.00750250
H        3.85278521       4.50139177       6.96001837      -0.01070189       0.01100415       0.01047924
H        4.82011115       5.99547469       6.67172760      -0.00241117       0.00447285       0.00582075
S        1.43418060       8.47719985       7.41871528      -0.00123978      -0.00217720       0.01085693
O        0.01854667       8.92307731       7.63090995       0.00098157       0.00229400       0.01564181
C        1.55289438       7.92714885       5.70197622      -0.00908989      -0.00228637       0.01100141
C        1.55665914       6.82936728       8.13021713      -0.00421157      -0.00227326       0.00930877
H        1.75200595       8.80495015       5.09254999      -0.00455621      -0.00427829       0.01020290
H        0.60118152       7.46302058       5.43974141      -0.01291059       0.00388726       0.01467355
H        2.38766016       7.24153870       5.60406169      -0.01434317      -0.00812329       0.00893551
H        2.55904212       6.44385239       7.95320580      -0.00708112      -0.00674918       0.00425547
H        0.79637474       6.18108011       7.69513775      -0.00956146       0.00132861       0.01393288
H        1.35990436       6.93057293       9.19411144       0.00125405      -0.00275433       0.00987162
S        7.61573641       2.40564066       3.60970540      -0.01667041      -0.01724482       0.00159621
O        8.63783495       1.39477133       3.05664428      -0.02686143      -0.01618069      -0.01776433
C        6.06838434       1.48678340       3.65786658      -0.02071780      -0.00863126       0.00360147
C        7.31105209       3.43958165       2.18257646      -0.01956455      -0.00055352       0.01511037
H        6.20601101       0.68092725       4.37266679      -0.02903672      -0.00377591       0.01031455
H        5.86195711       1.11521331       2.65540441      -0.01809044      -0.01504166       0.00536464
H        5.31168667       2.17734861       4.00909218      -0.01718736      -0.00121836      -0.00462377
H        6.52766530       4.14639381       2.44515661      -0.01495121       0.00045519       0.02477897
H        7.06849622       2.78884908       1.34270685      -0.02380987       0.00933388       0.00922832
H        8.24283370       3.95572619       1.95999198      -0.01765153      -0.00386959       0.01658390
