197
Lattice="19.08922417593418 0.0 0.0 0.0 19.08922417593418 0.0 0.0 0.0 19.08922417593418" Properties=species:S:1:pos:R:3:forces:R:3 energy=-2509622.75 stress="-0.0004425333463586867 -0.0005050860636401922 2.0786354070878588e-05 -0.0005050860636401922 -0.001095529063604772 1.5308705314964755e-05 2.0786354070878588e-05 1.5308705314964755e-05 -0.00030487976619042456" pbc="T T T"
Eu       9.73086003      16.93896893       6.07259897      -0.00820658       0.00519150      -0.01432690
Eu       4.37793992      18.20036464       0.24057980       0.00701508      -0.00769037       0.00123590
S        1.99355282      16.51744285      19.47267886       0.00805730      -0.00667523       0.00433867
O        0.69014929      17.03034939      19.13122748       0.01517630      -0.00029027       0.00610572
O        2.00893218      15.14382093      19.92071610       0.00383770      -0.00752592       0.00170070
O        2.99739662      16.72534906      18.31358005       0.00905645      -0.00769857       0.00380540
O        2.67615626      17.43921181      20.51406305       0.01286286      -0.01130080       0.00565767
S        2.91514841      18.40495948      12.02806489       0.01438908      -0.01162951      -0.00681660
O        3.44029573      19.02640779      10.79126420       0.03189790      -0.03217435      -0.00595236
O        1.48113712      18.09430222      11.85879250       0.01819730      -0.00910753      -0.04276508
O        3.67087012      17.15659110      12.29447440       0.00412345      -0.00494289       0.03047588
O        3.07737525      19.33352645      13.16916771      -0.01002538       0.00223863      -0.01945400
S        6.68111407      18.04498645       2.05346707       0.01961416      -0.00957187       0.02037129
O        6.79250663      17.20859906       3.23681446       0.01842241       0.01227081      -0.01715183
O        7.85639908      18.84965537       1.79356996      -0.00275636       0.00527930      -0.00309688
O        6.32076173      17.18092788       0.83021847       0.01187083      -0.00201917      -0.00058198
O        5.43432936      18.93873303       2.11260374       0.00334823      -0.00719714       0.00388157
Cl      16.62603418       3.72469115       8.85482855      -0.00061479      -0.00400406       0.00813122
Cl      14.58640285       4.18409036      10.87323565      -0.00728133      -0.00464225       0.00184131
Cl      14.54448920       5.65741646       8.37557534      -0.00253823      -0.00818411       0.00288883
Cl      16.59651103       6.20068480      10.35721117      -0.00775191      -0.00249285       0.00597984
C       15.58605499       4.94178761       9.62068125      -0.00328950      -0.00505448       0.00518759
Cl       7.75271538      -0.43605504      16.18830248       0.00438914      -0.00538044      -0.00096967
Cl       4.86532561      -0.62195613      16.46569621       0.00497292      -0.00867301       0.00081590
Cl       6.08505825       1.84494064      15.50364504       0.00240743      -0.00835559      -0.00202325
Cl       6.41400492       1.05146516      18.28523647       0.00369171      -0.00562709      -0.00175387
C        6.30193198       0.48394735      16.57753174       0.00378609      -0.00656801      -0.00016862
Cl       4.28080447      12.44279815       4.54380038       0.00066787      -0.00072438      -0.00042453
Cl       4.53954136      10.43057549       2.47074670      -0.01049575       0.00180164      -0.01297733
Cl       2.27003752      12.23547288       2.46923039      -0.00019014       0.01058447       0.00249881
Cl       2.48987444      10.17125691       4.50362106       0.00221780       0.00747058      -0.00160161
C        3.38493964      11.32012391       3.48348439       0.00004852       0.00631602      -0.00324089
Cl       3.02220994       4.71801592       1.52014254       0.02171925       0.00282127      -0.00287193
Cl       1.89639608       5.18317967       4.14456371       0.00334299      -0.00998718      -0.00914681
Cl       1.76220823       7.25406370       2.11769319       0.00996795      -0.00354999      -0.00200498
Cl       4.30375696       6.57710258       3.33657293       0.00288171       0.00187854       0.01049754
C        2.74371693       5.93450292       2.78169103       0.00917114      -0.00253048      -0.00085690
Cl      16.18677121      14.79510951       3.38834698      -0.00089347      -0.00701659      -0.00008422
Cl      15.58770151      15.70921612       0.69783344      -0.02873264       0.00230807       0.01079741
Cl      15.78433016      12.86789062       1.26510151      -0.01318648       0.00260127      -0.00579390
Cl      18.16859695      14.52459491       1.29869353      -0.01599264       0.00573601      -0.01350607
C       16.45995440      14.46303961       1.64780661      -0.01318744       0.00193794      -0.00301671
Cl       3.72338666       8.25767977      16.07467011       0.00665361       0.00009273       0.00008523
Cl       1.66717499       6.64366294      14.82081767       0.00596046      -0.00004339       0.00231042
Cl       3.23091774       8.49413087      13.22794850       0.00148812       0.00259095       0.00153315
Cl       1.28828198       9.50468716      15.12505246       0.00454196      -0.00079328       0.00588062
C        2.47462571       8.22741008      14.81605411       0.00470509       0.00047958       0.00238374
Cl       8.24514030      16.32530190       8.54692107      -0.00109333       0.00275308      -0.00621772
Cl       7.84749354      18.85907216       7.18542361       0.00133045       0.00303578      -0.00547256
Cl       5.59489948      17.61146429       8.61927687       0.00320472       0.01112980       0.00588777
Cl       6.67561988      16.48818585       6.11170419      -0.01010286       0.00541958       0.00175603
C        6.97499546      17.32893107       7.66114245      -0.00227112       0.00510996      -0.00022356
Cl      14.76015568       8.73886250      13.08753940      -0.01386911      -0.00452159      -0.00287408
Cl      12.79584214      10.33806784      11.66062333      -0.00993413       0.00228745       0.00023256
Cl      13.18636839       7.56733521      10.96370615      -0.01485512       0.00324029      -0.00640525
Cl      15.24618234       9.52791876      10.34726369      -0.01108912       0.00051612      -0.00049597
C       13.99530563       9.03515047      11.51713767      -0.01255492       0.00029402      -0.00238018
Cl       2.05240084      15.32431930      13.89857348      -0.00463307       0.00570560       0.00763172
Cl       1.48353679      14.16542426      16.49853477      -0.01124886       0.00964455       0.00626504
Cl       0.29947198      13.01460330      14.10671525      -0.00296172       0.00751936       0.00259596
Cl      -0.57822062      15.60664987      15.07055191      -0.01503366      -0.00525677       0.01176950
C        0.83855836      14.53275323      14.89423291      -0.00836366       0.00667883       0.00521504
Cl       6.80037189      12.95544644       7.68514855      -0.00368020      -0.01001419      -0.00483863
Cl       9.62399312      12.40531296       7.31795164      -0.00496978      -0.00779718      -0.00134793
Cl       7.93431167      12.96090476       5.01276139      -0.00064343      -0.00088248      -0.00325681
Cl       7.63864406      10.48449748       6.44502292      -0.00111590      -0.00643837      -0.01202482
C        7.98527261      12.19031427       6.62461917      -0.00274886      -0.00662820      -0.00559802
Cl       2.24198977       1.19025745       3.58987582       0.01052433      -0.00859593       0.00144756
Cl       2.73424105       2.02100539       6.31725821       0.00610936      -0.00308518       0.00034362
Cl       4.66228751       2.64182920       4.23738787       0.00842789      -0.00582260       0.00228141
Cl       4.34550627      -0.08343741       5.13244082       0.00856107      -0.00412118       0.00681138
C        3.49824706       1.43885227       4.81063884       0.00842081      -0.00554000       0.00268451
Cl      17.89485486       3.34191639      12.04910243      -0.00470084       0.00068304       0.01413530
Cl      18.96763575       1.47540838      13.96597693       0.00525188      -0.00111443       0.00716510
Cl      16.14140946       2.14872076      14.01498992       0.00428087      -0.00427072       0.01777762
Cl      18.11361564       4.11217822      14.83033087       0.00484784      -0.00362474       0.01386791
C       17.78736053       2.75499298      13.71096728       0.00304028      -0.00242613       0.01383825
Cl      10.33055435      17.97313454       3.54628818       0.00283790       0.00890216      -0.00652821
Cl       9.60191178      16.28964025       1.23024049       0.00736722       0.01876825      -0.01571788
Cl      10.01933493      15.12041023       3.86756452      -0.01717810       0.01009440      -0.01609524
Cl      12.28107884      16.16685131       2.31482597      -0.00200398      -0.00024334       0.00016139
C       10.57632076      16.38064260       2.63086838      -0.00198933       0.00981155      -0.00972748
Cl       6.80879174       6.93320839      12.16537519       0.00000434       0.00914548       0.00101826
Cl       8.35234108       5.01306946      13.70079020       0.00388569       0.00594458      -0.00578665
Cl       5.52043638       5.35739903      14.22834357       0.00338936       0.00208533      -0.00268784
Cl       7.39316771       7.45082454      14.95440626       0.00194032       0.00151074       0.00168514
C        7.02192013       6.18488470      13.76589835       0.00199434       0.00479982      -0.00152373
Cl      12.50318847      15.61011219      17.77105145       0.00213517      -0.00205523      -0.00670043
Cl      11.99798147      13.94537554      15.46289613      -0.01665717      -0.00523120       0.00075920
Cl      12.31100437      16.80633257      15.13607440      -0.00393189      -0.00790152      -0.00847858
Cl       9.93381909      15.74284686      16.42003574      -0.00284898       0.00716847       0.00460284
C       11.68884614      15.52286558      16.19200774      -0.00526303      -0.00195370      -0.00230245
Cl      15.67821305      13.18921437      10.93046669      -0.00890557       0.00332195      -0.00584134
Cl      14.97416250      12.42334168      13.63593474      -0.00113138       0.00357237      -0.00366727
Cl      13.05553177      13.85892082      11.97019038      -0.00286454       0.00825137       0.00477108
Cl      15.39656653      15.20677645      12.99687835       0.00419953       0.00291836      -0.00503683
C       14.78327668      13.67024690      12.39547940      -0.00186493       0.00445166      -0.00240472
Cl      17.02452222       7.69491300      -0.06888193      -0.01385985       0.00845978      -0.00682762
Cl      16.42450199       7.35218600       2.74537018       0.01010480      -0.00809538      -0.00375509
Cl      15.10858686       9.44225856       1.23522359      -0.00469977      -0.00335196       0.01662008
Cl      17.93501322       9.66582100       1.85481175      -0.00093517      -0.00102258      -0.00175968
C       16.62320978       8.53750787       1.44230439      -0.00173316      -0.00121224       0.00142160
Cl      11.88589657       6.48446845      14.45627435      -0.00207564      -0.00512782       0.00076067
Cl      12.12872781       4.84423417      16.83551337       0.00115116      -0.00580868      -0.00048530
Cl      14.50048145       5.59317761      15.34400070      -0.00173658      -0.00970216      -0.00634443
Cl      12.62107613       3.68937750      14.22038001      -0.00889081      -0.00581175      -0.00171506
C       12.78663163       5.15881850      15.20943981      -0.00259616      -0.00672260      -0.00190627
Cl      12.66886325       8.48220537      17.62150417      -0.00039949       0.00006798       0.00407824
Cl      14.86692195      10.02346935      16.52940072      -0.00059927      -0.00013748       0.00417984
Cl      12.82302292      11.34005164      18.10609936      -0.00137462       0.00016662       0.00231004
Cl      12.18953537      10.34391161      15.45607184       0.00009394      -0.00144307       0.00293893
C       13.13192911      10.04531590      16.93169761      -0.00054216      -0.00027926       0.00343233
Cl      15.56868393       2.43994053       5.02566609      -0.01647021       0.00691119       0.00090031
Cl      15.26295791       0.62602512       7.26794917      -0.00327724      -0.01194474      -0.01262206
Cl      17.89826233       1.61884443       6.54166413      -0.01065618       0.00881691      -0.01711309
Cl      16.55212992      -0.28228533       4.83463652      -0.01175631       0.00888047      -0.01650229
C       16.31899249       1.10089550       5.92006262      -0.01114171       0.00299162      -0.01015282
Cl      19.03298785       8.06891485       5.20644980       0.00465184      -0.00695193       0.00067872
Cl      16.84406877       7.76842619       7.05455666       0.00921065      -0.00475457       0.00627708
Cl      19.36940157       6.44489863       7.58647321       0.00879166      -0.00697343       0.00051379
Cl      17.65672628       5.51107840       5.45090834       0.00330225      -0.00570321       0.00478935
C       18.22958867       6.95369593       6.32511248       0.00659221      -0.00608654       0.00311042
Cl       5.40279480      13.88048558      16.75475733       0.00342830      -0.00232601       0.01090091
Cl       6.48509849      11.18632750      16.62421931       0.00457174      -0.00096318       0.00095647
Cl       4.25243325      11.94002853      14.93561754       0.00545424       0.00504845       0.00258714
Cl       3.87721809      11.65041578      17.80051287       0.00307608      -0.00628071      -0.00002599
C        4.99604539      12.16838189      16.52663053       0.00424375      -0.00121825       0.00379647
Cl       7.75471815      13.32282253      13.64391345      -0.00018305       0.00545251       0.00428635
Cl       7.68464164      10.61218735      12.62004343       0.00190367       0.00810617      -0.00189686
Cl       8.80585634      12.75160219      10.99981093      -0.00290883       0.01264559       0.00172222
Cl       5.94904489      12.63595980      11.48381487      -0.00150716       0.00840197       0.00496662
C        7.53995548      12.33074027      12.19617390      -0.00057083       0.00871143       0.00219774
Cl       2.83432312       1.61194042      19.05693356       0.00811529      -0.01015164       0.00831455
Cl       0.65999824       3.29490073      18.11603207       0.00912786      -0.00770599       0.01153469
Cl       0.66290713       0.46326049      17.49209148       0.00708312      -0.00643575       0.00744721
Cl       2.56294383       2.23579825      16.20446275       0.00733617      -0.00614814       0.00932387
C        1.62522882       1.89751759      17.65036466       0.00769788      -0.00748291       0.00900108
Cl       6.36353337      -0.53300329      12.42029589       0.01672485      -0.00301147       0.02527821
Cl       8.61854462       1.19591305      13.07517026       0.01348302       0.00949120       0.00319415
Cl       6.17150807       2.30428975      11.94865725       0.00949293      -0.00942183      -0.00535864
Cl       7.92940792       0.69793135      10.31613535       0.01052153      -0.02418125       0.01134616
C        7.25281508       0.90602505      11.95766953       0.01250659      -0.00631553       0.00900743
Cl      11.74573374      14.97735562       6.91478473      -0.00750411       0.00753021      -0.01838791
Cl      14.14320372      16.18751962       5.85544217      -0.00121772       0.00568840       0.00775218
Cl      13.77788566      15.95895012       8.70776121      -0.03353193       0.00685847       0.00596976
Cl      11.45830278      18.40571840       7.04437000      -0.00390364       0.00011519      -0.01156732
C       13.27101784      15.68222764       7.16469959      -0.02105635       0.02060869      -0.00010024
Cl       1.51994710      13.21006246       8.05667642      -0.01535743       0.01228189       0.02276832
Cl       1.33138464      15.29686940      10.06492646       0.02037722       0.02604157       0.01614359
Cl       3.92341017      14.33458432       9.23250225      -0.00349450       0.00114249      -0.01301039
Cl       2.18419644      12.63534192      10.81956175       0.00877419       0.02628338       0.02001527
C        2.21718805      13.87495692       9.54890541      -0.00119016       0.01570407       0.00946518
Cl      18.48463500      12.34038392       5.15028939      -0.00206667       0.00074621       0.00853032
Cl      16.04551440      10.81118312       5.22282213       0.00076354      -0.00290245       0.00175026
Cl      16.15981877      13.35076971       6.60122382      -0.01036641       0.00030276      -0.00418200
Cl      17.64493472      11.11331418       7.63577499      -0.01109031       0.00610328       0.00805712
C       17.09565820      11.89110067       6.13997564      -0.00562357       0.00101043       0.00365929
Cl       5.97982933       9.19079320       9.43629076       0.00316989       0.01655116      -0.00719514
Cl       3.94885370      10.73215131       8.06025965      -0.01899126       0.00164533       0.01073160
Cl       3.32255215       8.09984534       9.08410915       0.00855857      -0.00110698       0.01989754
Cl       5.06762516       8.38866720       6.79108201      -0.01620093       0.00715974       0.00339559
C        4.57645967       9.10592884       8.34128275      -0.00649185       0.00645013       0.00603194
Cl       6.79359891       8.05723219       0.83662106       0.00827938       0.00607407       0.00266784
Cl       8.40189000       9.96666636       2.31872628       0.00288755       0.00950491       0.00347921
Cl       9.61327859       7.54715363       1.26843050       0.00575265       0.00711337       0.01111300
Cl       7.75671941       7.39716569       3.49584004       0.00277512       0.01307754       0.00787234
C        8.14377679       8.24233622       1.97532537       0.00472759       0.00900277       0.00619191
Cl      17.31296950      17.87516313      12.55309076       0.01471846      -0.00168122      -0.01724428
Cl      17.09628019      16.53516313       9.99527369      -0.01143456       0.00998089      -0.02069631
Cl      17.78954509      19.33777150      10.11315659       0.00104636       0.00636202      -0.01392633
Cl      15.09458656      18.49196101      10.79575825       0.00317264       0.01362558       0.00319941
C       16.84348657      18.06490265      10.87343054       0.00134248       0.00646544      -0.01304749
Cl       0.36095172      17.07843053       3.72564417      -0.00879784      -0.00418504      -0.00224888
Cl       1.20720997      18.00566648       6.34549179      -0.00157788       0.00309223      -0.00693485
Cl       2.26773482      15.53863740       5.24165487      -0.01004404      -0.00382069      -0.00017270
Cl      -0.49590446      15.69725331       6.13216970      -0.00807363       0.00815123       0.00537878
C        0.83634848      16.58692908       5.35167924      -0.00705120       0.00087877      -0.00116920
Cl       4.41405679       5.03747708       6.98793774       0.00279248       0.00356802       0.00252749
Cl       6.08629794       2.84666590       7.83747948       0.00404670       0.00450608       0.00004031
Cl       6.75794697       5.55272740       8.62543432       0.00622477       0.00489643      -0.00297564
Cl       7.07217452       4.74553267       5.86908841       0.00012663       0.00378736      -0.00276536
C        6.07089241       4.54930042       7.33054264       0.00349949       0.00413671      -0.00065306
Cl      12.42062899       2.79640669       8.25648045      -0.00518197      -0.00665465      -0.00715306
Cl      11.11757580       5.24906233       9.14615475      -0.01254318      -0.00612354      -0.02068519
Cl      10.90496833       2.83864210      10.73004857      -0.00440966       0.00195128      -0.00748509
Cl       9.54148997       3.03500060       8.17079669      -0.00608790      -0.01545618      -0.00674033
C       11.00732588       3.47478771       9.07742287      -0.00679791      -0.00657062      -0.01061201
Cl      13.50905999       8.41738830       5.09814668       0.00167936      -0.00318789      -0.00728026
Cl      10.89902579       8.84911231       6.28032931      -0.00041145      -0.00747867      -0.01143404
Cl      12.34309273      11.07673136       5.09803507      -0.00166340      -0.00426960      -0.00583458
Cl      13.26154280       9.89232124       7.58748068      -0.00219867      -0.00508607      -0.00728017
C       12.50522206       9.55453168       6.02198982      -0.00074685      -0.00522899      -0.00775492
Cl       4.07420068       4.88242258      10.61236841       0.00717461      -0.01255912      -0.00188860
Cl       1.78549386       3.40107561       9.61598214       0.00134997      -0.00147003      -0.00548530
Cl       1.39202314       5.80530497      11.18267543       0.01083696      -0.00958580       0.00819963
Cl       2.41850263       3.37915434      12.43248472       0.00713904      -0.01921088      -0.00801909
C        2.41864806       4.36098528      10.97393573       0.00655567      -0.01058801      -0.00120392
