199
Lattice="13.598978237017768 0.0 0.0 0.0 13.598978237017768 0.0 0.0 0.0 13.598978237017768" Properties=species:S:1:pos:R:3:forces:R:3 energy=-802285.1875 stress="-0.00024093656975310296 0.0010397786973044276 -9.663912351243198e-05 0.0010397786973044276 0.004711529240012169 0.0009012489172164351 -9.663912351243198e-05 0.0009012489172164351 -0.000527103547938168" pbc="T T T"
Eu       9.11963441      14.42593011      -0.00437227       0.00973717      -0.00152321       0.00117661
Eu       6.11696635      14.74025560       3.44621814       0.01069883       0.00427771      -0.00533970
O       -0.20093802       9.91501949      10.40379152      -0.00237465       0.01248932       0.00062227
O        0.09158488       7.42960690       9.41235373      -0.01737702      -0.01149821       0.00400949
O       -0.16313637       7.80491087      12.04469942      -0.03671336      -0.02134335       0.01857471
O        2.10597949       8.53560902      10.78258244      -0.02076387      -0.03948054      -0.00067103
Cr       0.47094524       8.44154484      10.65687898      -0.03218111      -0.01103804       0.01176168
O        5.71445495       9.21781697       0.21213092       0.01999593      -0.00438893       0.00850582
O        3.78723014       7.37178003       0.74441068       0.01282847       0.00703049       0.00174391
O        3.38429852      10.03499913       1.21775853      -0.00390172      -0.00147057       0.00708690
O        5.02335038       8.62998552       2.75198394      -0.00009263       0.01473767      -0.01254535
Cr       4.47364959       8.78737432       1.21499661       0.00451357       0.01641915      -0.00403016
O       10.31207442       6.06545008       2.70317350      -0.00833607      -0.01913661       0.01859593
O        7.98232174       6.83991861       3.72932217      -0.01278222      -0.00314474       0.00096726
O        8.05188041       5.02913757       1.71342930      -0.00619209      -0.01199770       0.00757861
O        8.71401368       7.68051275       1.31001780       0.00796740      -0.01741886       0.00254774
Cr       8.75368661       6.43380363       2.35465783      -0.00590052      -0.01120478       0.00678194
O       10.34717745       1.71055254       1.94625603      -0.00476755      -0.00613812       0.00953914
C       12.21603560       2.08072525       3.37337451      -0.00131211      -0.01969356      -0.00024444
C       11.54834588       3.41836974       3.07475681       0.01911372      -0.01273394      -0.01688398
C       11.69635247       1.19681622       2.25462322       0.00210258      -0.00555280      -0.01386008
C       10.15603868       2.98395287       2.71585293       0.01473215      -0.01372853       0.01120959
H       13.30368212       2.12409203       3.37560419       0.01554289      -0.01982762      -0.01258679
H       11.88680402       1.69887010       4.34346369       0.01473162      -0.01050217      -0.00905511
H       11.53867107       4.12487105       3.89985040       0.02064425      -0.00533591       0.00202614
H       12.02343694       3.93050352       2.23700599       0.00677407      -0.01898625      -0.00682950
H       12.30854825       1.31365842       1.35400122      -0.00491729      -0.01195938      -0.00914136
H       11.60456687       0.14197228       2.51941196      -0.00248892      -0.01521710      -0.00381579
H        9.59233507       2.70951822       3.61376961       0.01579147       0.00025550       0.00599477
H        9.56945807       3.69842090       2.13280434       0.00974348      -0.00353232       0.01272085
O        0.46026934       3.74711054      13.19102681      -0.00544439       0.00115677      -0.00461406
C        0.98941754       4.80688916      11.12757830       0.00020812       0.00496569      -0.00133175
C        1.64039727       3.42471932      11.16491820      -0.00234216       0.00364950      -0.00327989
C        0.69269992       5.06063912      12.59505308      -0.00295871       0.00235329      -0.00171536
C        0.84633781       2.73383129      12.26513215      -0.00507888       0.00255889      -0.00545859
H        1.61750207       5.58072217      10.69449255       0.00241601       0.00504708       0.00220734
H        0.06768168       4.79143021      10.54311360       0.00178915       0.00917527      -0.00385465
H        1.59375110       2.88831096      10.21686740      -0.00151200       0.00634730      -0.00473490
H        2.69276856       3.51402418      11.44815140      -0.00232092       0.00154883      -0.00129949
H        1.54084143       5.53551545      13.09792414      -0.00242156      -0.00005218       0.00062814
H       -0.17572604       5.69470695      12.76275732      -0.00199640       0.00349742      -0.00241613
H       -0.05462190       2.25664577      11.85273936      -0.00572067       0.00531594      -0.00809763
H        1.40816785       1.95687104      12.79435329      -0.00713474       0.00044131      -0.00654465
O        5.26311411       2.94132898       2.21223461      -0.00711414      -0.00403778      -0.00817484
C        4.01379175       4.24648989       0.66790487      -0.00575548       0.00269455      -0.00212154
C        3.13029530       3.16211471       1.28567585      -0.00553077      -0.00010431      -0.00575370
C        5.41724724       3.76919854       0.97333900      -0.00458267       0.00335428      -0.00388104
C        3.85598489       2.92414059       2.58435695      -0.00653024      -0.00273997      -0.00581574
H        3.85547416       4.35209166      -0.40211117      -0.00499596       0.00724266      -0.00167528
H        3.82769795       5.23552426       1.09962433      -0.00710224      -0.00150573       0.00111069
H        2.09550135       3.46833984       1.41358267      -0.00661901      -0.00474039      -0.00674994
H        3.14679575       2.24937312       0.68119701      -0.00618172       0.00291559      -0.00868569
H        5.79065573       3.08173499       0.20856108      -0.00276636       0.00986896      -0.00850964
H        6.17858620       4.52381498       1.20069769      -0.00403175       0.00069633       0.00527175
H        3.67345022       3.72935819       3.30048161      -0.00461186      -0.00490975      -0.00218481
H        3.63287442       1.94633322       3.06318834      -0.00461141      -0.00348152      -0.00890981
O        5.94287430       2.52822092       5.43195066       0.00075354      -0.00645158       0.00215507
C        6.10892726       4.88982294       5.06027476       0.00238954      -0.00527304       0.00729366
C        7.48160831       4.22315506       4.82147233       0.00228852      -0.00616089       0.00699601
C        5.26409646       3.80643122       5.72272902      -0.00147405      -0.00746119       0.00067243
C        7.36071604       2.88979401       5.52651722       0.00043342      -0.00761063       0.00422463
H        6.19495325       5.76179841       5.70527353       0.00303498      -0.00754443       0.01009518
H        5.69376577       5.24301763       4.11749350       0.00414021      -0.00234529       0.00662142
H        7.65012445       4.12946609       3.74220632       0.00126431      -0.00935672       0.00678372
H        8.29912767       4.81905998       5.22147593       0.00262287      -0.00712481       0.00924172
H        5.25324183       3.89932207       6.81043462      -0.00774305      -0.00899833       0.00192094
H        4.24057177       3.71032604       5.36970209       0.00212100      -0.00750683      -0.00603474
H        7.95169864       2.05530894       5.09133600      -0.00323914      -0.00764002       0.00034446
H        7.61684765       2.93319461       6.59028543       0.00449487      -0.00998004       0.00373253
O       13.77371331       1.28734151       8.21980152       0.00866559      -0.00151505      -0.00152789
C       11.61704795       0.42353833       8.65881447       0.01383045      -0.02148074      -0.00509351
C       11.67881224       0.92270141       7.21563436       0.00887680      -0.01251982      -0.00094786
C       12.81394440       1.14325071       9.27282408      -0.00428551      -0.00219773      -0.01863124
C       13.18235653       0.89937283       6.97820195       0.00300312       0.00292337       0.00106962
H       10.67539177       0.65308976       9.16029913       0.01233827      -0.01673418       0.00216246
H       11.76848756      -0.65637204       8.69572124       0.01387849      -0.01958501      -0.00566638
H       11.12598520       0.29741600       6.51463566       0.00690740      -0.00730725       0.00469208
H       11.30098591       1.94803192       7.14869574      -0.00102377      -0.01229218       0.00227547
H       12.53774282       2.14669653       9.62739107       0.00787807      -0.02456516       0.00889265
H       13.27503203       0.59220657      10.09342579       0.01218960      -0.01472899      -0.00958064
H       13.51137838      -0.11410319       6.71253795       0.00867642       0.00372928      -0.00354716
H       13.52591711       1.59264886       6.20903783      -0.00483324      -0.00554585      -0.00621027
O        9.05403312       2.61243866      12.01659940       0.00629446      -0.00112340      -0.00163492
C       10.40810651       4.16176545      13.15010855       0.00126848       0.00885513      -0.00951803
C       10.89630559       4.10748095      11.68753058       0.00485349       0.00455850      -0.00981148
C        8.98368464       3.66465433      13.06539543      -0.00099096       0.00772727      -0.00560246
C        9.84819991       3.26547394      10.96278386       0.00588743       0.00138763       0.00027931
H       11.01753876       3.49130576      13.76356708       0.00891602       0.02253398      -0.00715700
H       10.45075117       5.14608976      13.60913820       0.00441860       0.00923112      -0.00400554
H       10.93589264       5.10102882      11.24700402      -0.00739087       0.00723380      -0.00548598
H       11.89035141       3.66881935      11.63026178       0.00805804       0.00728205       0.00073945
H        8.55445726       3.25324397      13.99949931      -0.00050487       0.00086692      -0.00270960
H        8.27778122       4.42882808      12.74038613      -0.00286621       0.00340697      -0.00921562
H        9.15593251       3.89280618      10.39678617       0.00399280      -0.00924245       0.00051898
H       10.23903224       2.47626130      10.32550128       0.01466446      -0.00171164       0.00580201
O        9.48442327       5.89842712       6.86038121       0.00489134      -0.00834337       0.00402969
C       10.98087638       7.30360211       5.68765421       0.00084531      -0.00353873       0.00358105
C       11.79567574       6.40057777       6.61659321       0.00358522       0.00027972       0.00507469
C        9.59533781       7.23138200       6.30251373       0.00000435      -0.00865030       0.00194252
C       10.78618577       5.30357135       6.91787537       0.00749475      -0.00341413       0.00585557
H       11.35416459       8.32719737       5.65012067      -0.00330168      -0.00201944       0.00315549
H       10.95042251       6.90310943       4.66798618       0.00324953      -0.00448841       0.00375801
H       12.68959361       6.00066734       6.14162516       0.00571719       0.00343320       0.00667255
H       12.10685469       6.92055140       7.52703215       0.00050898       0.00225559       0.00548828
H        9.47746038       7.95349772       7.12064372      -0.00371453      -0.00791466       0.00091076
H        8.79801318       7.35560464       5.56430542       0.00015724      -0.01227825       0.00111049
H       10.83493644       4.50695609       6.16013289       0.01135314      -0.00374442       0.00626266
H       10.92346973       4.84859220       7.90554238       0.00897689      -0.00145784       0.00645822
O        0.35024862       6.06744114       3.96672175       0.00090593       0.00011444       0.00087872
C        1.83911569       7.89838907       3.59453236      -0.00103182       0.00117731      -0.00233051
C        2.61634905       6.58388172       3.66715857       0.00061768       0.00214924      -0.00106391
C        0.46023670       7.50145379       4.11826599      -0.00010812       0.00045630      -0.00044984
C        1.51684957       5.60291248       3.30250086       0.00096905       0.00071012       0.00064735
H        2.29558832       8.68887200       4.18537368      -0.00125450       0.00233848      -0.00327033
H        1.80894591       8.23957642       2.55818410      -0.00204408      -0.00040410      -0.00282043
H        3.46164361       6.59391254       2.97925525       0.00025636       0.00251033      -0.00172696
H        2.96651082       6.39969491       4.68866405       0.00150902       0.00343749      -0.00082770
H        0.34538600       7.73016771       5.18076144       0.00051225       0.00143902      -0.00067186
H       -0.36254194       7.96199435       3.56754133      -0.00170159      -0.00073776       0.00001657
H        1.36268051       5.59575951       2.21304221      -0.00014152      -0.00115493       0.00073135
H        1.68383189       4.57538866       3.64249070       0.00207407       0.00110564       0.00229838
O        7.21793925      13.10408018      12.58971526       0.01623526      -0.00154553       0.00714433
C        5.76105262      11.47200774      11.69879126       0.00080246       0.02127665      -0.00029666
C        7.18750365      10.96141333      11.46932659      -0.00929658       0.00470781      -0.01051071
C        5.93687662      12.96018741      11.88496283       0.01344892       0.01765043       0.00638632
C        8.07016809      11.97667394      12.19978190      -0.00005017      -0.01668301       0.00588354
H        5.10396584      11.24591731      10.86032224      -0.00602649       0.02915074       0.00357717
H        5.35284933      10.98482041      12.58900252       0.01509647       0.03182897       0.00994781
H        7.30421858       9.96796096      11.90126335      -0.02333537      -0.00162268      -0.02138072
H        7.44858242      10.92233064      10.41094812      -0.01184683       0.01555816      -0.01248524
H        6.01580374      13.50175545      10.93742199       0.01261576       0.02147011       0.00841424
H        5.17870021      13.42610352      12.51209838       0.01608972       0.01481560       0.01076825
H        8.48443693      11.55740331      13.11918521      -0.01946596      -0.03115286       0.00766405
H        8.88407912      12.35832029      11.55476104       0.00982010      -0.02691492       0.01488809
O        4.98851467      12.60541076       3.36311389       0.00726619       0.00684702       0.00575071
C        6.77341239      11.04266276       3.14623360       0.00337487       0.00672370       0.00854349
C        6.48394476      11.67473456       1.76640514       0.00612395       0.00343968       0.00927195
C        5.52261678      11.35186822       3.94596544       0.00326198       0.00821960       0.00639033
C        5.12140253      12.34358672       1.91554390       0.00783038       0.00446844       0.00483613
H        6.88437776       9.95930330       3.05990240       0.00370974       0.00809324       0.00978743
H        7.67999141      11.45665578       3.60235931       0.00652085      -0.00122035       0.00611445
H        7.26279681      12.41541503       1.49606223       0.00965282      -0.00180349       0.00540683
H        6.44005542      10.90066744       0.98514990       0.00608590       0.00687721       0.00906074
H        4.78181172      10.57121415       3.76110240       0.00406280       0.00617567       0.00984775
H        5.65760027      11.53161543       5.01142175       0.00617007       0.00846305       0.00408007
H        5.02009546      13.31735955       1.39395554       0.00991968       0.00270598       0.00364865
H        4.29942387      11.65701698       1.61535801       0.00694808       0.00452513       0.00077404
O        4.27085099       5.74369110      10.02303593      -0.00782531       0.01198775       0.00522688
C        5.88356306       4.45112356      11.11255101       0.00081252       0.01733518      -0.00223088
C        5.94121572       5.85596902      11.72145758      -0.00305933       0.01623790       0.00107306
C        5.24561830       4.75364959       9.76614117      -0.00447103       0.01674497       0.00024503
C        4.65374398       6.49703114      11.20686166      -0.00484878       0.01461728       0.00250182
H        6.85406463       3.96343899      11.01729073       0.00257613       0.02174486      -0.00588097
H        5.22544967       3.78789934      11.68018960       0.00530860       0.01331802      -0.00169945
H        5.99715103       5.89340569      12.80879458      -0.00300578       0.01327142       0.00118756
H        6.82391622       6.37625836      11.34402006      -0.00400329       0.01953340       0.00313973
H        6.01405358       5.12309559       9.06425173      -0.00786880       0.02057686      -0.00148246
H        4.74684123       3.89180269       9.31100313      -0.00211862       0.01518872       0.00022285
H        3.83549685       6.45154698      11.92773288      -0.00377291       0.01737544       0.00426328
H        4.76857420       7.54867263      10.94396522      -0.00480498       0.01419264      -0.00026216
O        2.92194851       9.28310144       7.23548199      -0.00664973       0.00124574      -0.00194548
C        5.02724172       8.76244746       6.34270558      -0.00433058      -0.00187796       0.00305611
C        4.95333492       8.16638197       7.75116577      -0.01050824      -0.00271918       0.00225380
C        3.95577320       9.83763114       6.44815168      -0.00412035      -0.00070691      -0.00120887
C        3.45876525       8.23447121       8.07151881      -0.01150006      -0.00372154      -0.00648248
H        6.01241587       9.14903216       6.08074880      -0.00426045      -0.00062396       0.00705585
H        4.75399735       8.03826611       5.57242062      -0.00183918      -0.00072536       0.00029448
H        5.33902189       7.15052310       7.82590090      -0.00858085      -0.00163981       0.00156737
H        5.52817617       8.78398553       8.44836926      -0.01505090      -0.00078389       0.00546911
H        4.36589008      10.73986492       6.93865525      -0.00560310       0.00061715      -0.00123885
H        3.52863337      10.13869172       5.49021812      -0.00248179      -0.00217548      -0.00194526
H        2.94067767       7.30597612       7.81690980      -0.00898179      -0.00231010      -0.01741691
H        3.21411976       8.45430243       9.11993579      -0.01672226      -0.01322091      -0.00522649
O        9.26601512       6.78155159      11.16086592       0.00007170       0.00140405       0.00585198
C       10.51996289       8.80239582      11.31739233      -0.01515381       0.01005560      -0.00553671
C       10.64116551       8.21264815       9.91457926      -0.02126127       0.01286408      -0.00707316
C        9.97738522       7.62334291      12.10979818       0.00983980       0.00269949      -0.00218931
C        9.39968241       7.34627084       9.85124860      -0.01243713      -0.00112569       0.00341237
H       11.48715988       9.13338533      11.69235017      -0.01638910       0.02352904      -0.01467937
H        9.81654712       9.64307887      11.31272960      -0.02838743      -0.00139022       0.00335002
H       10.70246399       8.96560625       9.13081099      -0.03758559       0.01428124      -0.00687294
H       11.55184761       7.61059465       9.84716763      -0.01457939       0.02334693      -0.01558278
H       10.81887866       7.05090071      12.51386369       0.02381039       0.00959358      -0.02191997
H        9.30342401       7.86071739      12.93869239       0.01989585      -0.00567036       0.00858414
H        8.50632556       7.94938423       9.61911807      -0.02049911      -0.01158261       0.00697975
H        9.44853686       6.53259582       9.12517157      -0.00757197      -0.00186050       0.00464818
O       10.67260604      11.11529121       2.68667072       0.00629988      -0.00185722       0.00448692
C       11.08245099      11.51441355       0.39806196      -0.00355168       0.00037348       0.00276899
C       12.24227800      10.67513577       0.99852655      -0.00099856      -0.00549907      -0.00935265
C        9.99464551      11.42574312       1.49282887       0.00168277      -0.00388831       0.00581455
C       11.62352656      10.10733967       2.27598185       0.00763568       0.00436302      -0.00548822
H       11.41780162      12.55744011       0.23287359      -0.01126539       0.00095259       0.00101143
H       10.75625454      11.10422719      -0.55769200      -0.00478515       0.00621307      -0.00465295
H       12.57922974       9.89833027       0.31223185       0.01178809       0.00418931      -0.00426644
H       13.09760749      11.30724876       1.23885033       0.00801522      -0.00641418      -0.02573480
H        9.45080097      12.37305771       1.68729392      -0.00906370      -0.00711711       0.00589450
H        9.25750372      10.64117291       1.26428861       0.01307201      -0.00840265       0.01033853
H       11.08502868       9.17056547       2.09044087       0.02217588      -0.00257379       0.00722474
H       12.32653461       9.97414140       3.09395056       0.01595435       0.00937165      -0.01075840
