197
Lattice="14.281724451631485 0.0 0.0 0.0 14.281724451631485 0.0 0.0 0.0 14.281724451631485" Properties=species:S:1:pos:R:3:forces:R:3 energy=-3519253.0 stress="-0.0005738880718126893 -0.0002133595189661719 -0.00011787805851781741 -0.0002133595189661719 -0.0003964562783949077 0.0006324388959910721 -0.00011787805851781741 0.0006324388959910721 -0.0013875686563551426" pbc="T T T"
Fm      10.74342776      14.89690632      10.14076241       0.00142550       0.00281847      -0.00691338
Fm       8.38155037      12.07188201      12.15498034       0.02071112      -0.00853986       0.01229465
O       12.58952061      11.00029387      11.67200633       0.02436543       0.02592731      -0.01161873
O       10.48602944      13.16395257      11.42297877       0.01635987       0.01632155       0.01341248
O       12.39028144      13.03192937      13.64729090       0.01782262       0.00111294       0.01243770
O       10.10803248      11.18916469      13.27392580       0.02801514      -0.01181066      -0.00204337
W       11.49783944      12.04552128      12.51893193       0.02201223       0.00576669       0.00015247
O        9.83894911      13.84413696       8.50018624      -0.00233242      -0.00142437      -0.00529552
O       10.05629559      10.99035424       9.17195502      -0.01185369       0.00520110       0.00718826
O        8.10797376      11.76630077       7.28949795      -0.02528548       0.00009918       0.01910830
O        7.76210783      12.41322900      10.10841083       0.00770092       0.01809061       0.02006328
W        8.94565036      12.24734982       8.73557396      -0.00364398       0.00264275       0.01338083
O        5.24860979      11.25408827       1.12202964      -0.00094032      -0.01146901      -0.00808209
O        7.15530527      12.74881765      -0.60296036      -0.00107026      -0.00648105      -0.00629193
O        8.02796843      10.79501747       1.39283471       0.00123978       0.00001454      -0.00620139
O        6.90397145      13.24230654       2.37019935      -0.01063323      -0.00301754      -0.00819325
W        6.81756091      12.03130268       1.09238485      -0.00402433      -0.00518012      -0.00693154
O        3.20976144       9.64367876       3.61719763      -0.01065673       0.00348735      -0.00284471
O        2.38367498       7.67564093       3.28804670      -0.00933200       0.00187416       0.00196944
O        4.22703434       7.86764151       4.59248676      -0.01213479       0.00674874       0.00203830
C        4.36184057      10.50156760       3.91765723      -0.01289119       0.00538141      -0.00086892
C        3.91777530      11.92515959       3.75097175      -0.01294610       0.00381017      -0.01396676
C        3.37366528       8.36867257       3.89955182      -0.00936019       0.00293633       0.00202310
C        2.55094569       6.26133809       3.32865543      -0.01210397       0.00170892       0.01396926
H        4.70358209      10.27610486       4.92401402      -0.02035385       0.01257581       0.00321454
H        5.12788510      10.25275134       3.18438838      -0.00755063       0.00023279       0.00667506
H        4.79558678      12.57017386       3.81518869      -0.01398489       0.00506993      -0.01369908
H        3.48864220      12.05958513       2.75983570      -0.00732733      -0.00414508      -0.01745114
H        3.20299925      12.21075270       4.52366052      -0.01766627       0.00888883      -0.02018100
H        3.33627480       5.96441622       2.63244888       0.00187305      -0.00385117       0.03280407
H        1.59758207       5.84021557       3.02102388      -0.00679982       0.00270807      -0.00325470
H        2.82318185       5.92539200       4.32749686      -0.03484301       0.00785371       0.02185968
O        9.47163838       8.03314433       0.67396937       0.00267485       0.00344497       0.00060962
O       11.55677980       8.52840921       0.49634048       0.00167012       0.00672206       0.00033354
O       10.98492946       6.34699863       0.71516043       0.00489351       0.00561297      -0.00452949
C        8.41393158       7.06421971       0.79609961       0.00360513       0.00207490      -0.00236223
C        7.10470155       7.81111228       0.77156936       0.00250953      -0.00004405      -0.00773599
C       10.69996609       7.52275871       0.63343016       0.00366154       0.00524521      -0.00142637
C       12.93507621       8.15126284       0.52687864       0.00266203       0.00941963      -0.00703571
H        8.51321050       6.34297958      -0.01847813       0.00791413       0.00149652      -0.00121629
H        8.55819608       6.51265570       1.72799862       0.00111853       0.00352868      -0.00106549
H        6.28915051       7.13088643       1.01800960       0.00395137       0.00100414      -0.00062212
H        7.11262803       8.62740078       1.48958431       0.00267017       0.00639832      -0.01504801
H        6.91485295       8.25705520      -0.20304973       0.00040948      -0.00958123      -0.01160085
H       13.17749190       7.69781011       1.48591913       0.00881324       0.01095860      -0.00795749
H       13.48642752       9.07708488       0.40534946       0.00002326       0.01066795      -0.01076556
H       13.15581966       7.46340832      -0.28720130      -0.00099742       0.00921106      -0.00765178
O        9.97531335       2.94307029       4.17514264       0.00555280      -0.00443432       0.00177972
O       11.41463663       4.56152129       4.21645913       0.00310581      -0.00177282      -0.00131120
O       11.99762731       2.62154918       3.20552153       0.00025487       0.00340718      -0.01066560
C        9.61514386       1.57732254       3.82409557       0.00708109      -0.00404245      -0.00009506
C        8.14616798       1.39723236       4.07411847       0.00896424      -0.00905299       0.00801571
C       11.19870538       3.30127266       3.80414542       0.00367433      -0.00054872      -0.00450468
C       12.69929091       5.07221257       3.84941789      -0.00105052       0.00297251      -0.00983105
H        9.87493522       1.41317545       2.77985167       0.00205512      -0.00068424      -0.00180590
H       10.21853615       0.90215783       4.43404636       0.01211473      -0.00419062      -0.00551546
H        7.85882004       0.36456516       3.86294830       0.01039605      -0.00841913       0.00413164
H        7.89002341       1.66449599       5.09987527       0.01493939      -0.01629626       0.01123813
H        7.56727451       2.02087238       3.39768183       0.00303935      -0.00674289       0.01526399
H       13.48577784       4.53945282       4.38681094       0.00485212      -0.00070114      -0.02242616
H       12.69097262       6.12194273       4.12900362       0.00041492       0.00054875      -0.00096233
H       12.85796333       4.96934664       2.77774770      -0.01217447       0.01226891      -0.01231241
O        7.14178770       7.48984360       3.79599541      -0.00612735       0.00787169      -0.00466876
O        6.05972113       5.67566255       3.35243445      -0.00050697       0.00395732      -0.00237142
O        8.01598349       5.51398008       4.48478426      -0.00931799       0.01200819       0.01629382
C        8.31531117       8.21875875       4.26336492      -0.00978705       0.01121852      -0.00167432
C        7.91133097       9.66008069       4.40010772      -0.01223958       0.01002032       0.00008224
C        7.17045400       6.17739647       3.94012178      -0.00913990       0.01051331       0.00213283
C        6.01193065       4.24861478       3.35004200       0.00222407       0.00402337       0.00370803
H        8.65023325       7.75659294       5.18988126      -0.01013815       0.01068807      -0.00139427
H        9.10024851       8.08681356       3.51287604      -0.00826892       0.01418847      -0.00035781
H        8.71726519      10.22981474       4.85501618      -0.01218805       0.01022692       0.00002698
H        7.71339086      10.09750545       3.42105221      -0.01257069       0.01057317       0.00038475
H        7.03074010       9.75520403       5.03126674      -0.01222965       0.00839631       0.00020584
H        6.75894345       3.85137461       2.66412944       0.00898045       0.00234005       0.01207195
H        5.01391632       3.98531937       3.00686549       0.00555655       0.00002795      -0.00393144
H        6.20188781       3.84506610       4.34179546      -0.00569477       0.00889669       0.00714272
O        8.67776573       3.42964132      13.34700303       0.01132151      -0.01824105       0.00063169
O       10.71683412       2.79394752      13.51954649       0.01077947      -0.02444984      -0.00740200
O        9.58092177       2.24404976      11.64599273       0.00590751      -0.00514035      -0.01016098
C        7.38506576       3.47525335      12.68683719       0.01031885      -0.01417860       0.00199026
C        6.48816712       4.30860965      13.56570842       0.00844914      -0.02950770       0.01408482
C        9.64604619       2.78523934      12.74446729       0.00935259      -0.01457402      -0.00463533
C       11.84906842       2.05043639      13.04153511       0.00654928      -0.02658068      -0.01425026
H        7.50618366       3.92111724      11.70143023       0.00876886      -0.00073782       0.00791103
H        7.02775010       2.44920114      12.58864802       0.01435567      -0.01425231      -0.01136453
H        5.45245252       4.20394767      13.24750074       0.00943241      -0.02587461       0.01039261
H        6.56604603       3.99430071      14.60499066       0.00768553      -0.04688816       0.00881518
H        6.74273720       5.36181512      13.48889472       0.00715558      -0.02785823       0.03169415
H       11.65587182       0.97714263      13.07732034       0.00014178      -0.02549645      -0.02234972
H       12.65478910       2.29136698      13.72746507       0.00776961      -0.03754710      -0.01173677
H       12.10595314       2.36628357      12.02691740       0.00813973      -0.01846170      -0.01123512
O        8.98763813       7.40081363       7.48388848       0.00840771       0.00811822       0.00756560
O       10.86856296       6.33565552       7.63370520      -0.00504637       0.00154735       0.00268085
O       10.43498948       7.97620893       9.13160773       0.01619753       0.00723720       0.00035727
C        8.17674289       8.58696240       7.75157625       0.00730750       0.00642905       0.00362992
C        6.74300937       8.28900608       7.40582260       0.00318110       0.00434346       0.01058520
C       10.11482781       7.31939478       8.17766186       0.00166374      -0.00932091      -0.01654917
C       12.18104256       6.24151003       8.19259455      -0.00971498      -0.01384436      -0.00197554
H        8.31258306       8.86623621       8.79367129       0.01417395       0.01408596      -0.00117397
H        8.57930878       9.39831531       7.14581128       0.00367683       0.00557750      -0.00673231
H        6.18587943       9.22683107       7.43148853       0.00456062       0.00842336       0.02019863
H        6.64303686       7.88688441       6.39795638      -0.00475552       0.01095076       0.01365772
H        6.30263886       7.57146006       8.09551637       0.01097916       0.00590040       0.01357643
H       12.83176960       6.98743315       7.73286228      -0.00027016      -0.01313403       0.00702728
H       12.54043140       5.24381732       7.95737429      -0.00957852      -0.02005923      -0.01831432
H       12.15698026       6.41616551       9.26528969      -0.00505923      -0.03303947      -0.00033897
O        4.10304592      10.81454847       7.24844075      -0.01419045       0.01088595      -0.00117513
O        5.19817580      12.52540289       6.55316576      -0.01712142       0.01247667      -0.00326446
O        4.47732096      12.51826582       8.70136767      -0.00752828       0.00813282      -0.00003743
C        3.45291546      10.05999789       8.28316789      -0.01102906       0.01114279       0.00111070
C        2.69735282       8.94525462       7.60530826       0.00102028       0.00123486       0.00456831
C        4.59338105      12.01116967       7.61445769      -0.01266746       0.01002264      -0.00207865
C        5.81498329      13.80275001       6.75128468      -0.01383619       0.01052284      -0.00051038
H        4.22361202       9.67273176       8.95265068      -0.00995970       0.02194968       0.00637507
H        2.80592039      10.72313992       8.85802052      -0.01849368       0.00900853      -0.00512999
H        2.23987407       8.29785957       8.35427401       0.00116739       0.00320166       0.00619856
H        1.91371710       9.35147010       6.96537091       0.00187914      -0.00874260      -0.00295526
H        3.36583279       8.34795546       6.98482463       0.00875546       0.00170717       0.01250184
H        5.07993115      14.53220074       7.08804292      -0.01570919       0.01485516      -0.01470514
H        6.21745056      14.07050542       5.78050815       0.00043041       0.00414518       0.00389388
H        6.61655140      13.71623448       7.47907736      -0.02490523       0.01027706       0.01171249
O        9.66475706       7.84448156      11.91290852       0.00788617      -0.01204342       0.00516444
O       11.52512589       6.77271233      11.93321028       0.00631009      -0.01378675       0.00680284
O        9.63903781       5.64482116      11.37580012       0.00629884      -0.01080155      -0.00071159
C        8.27192173       7.96621545      11.57600866       0.01024564      -0.00640416      -0.00285523
C        7.96101778       9.43350931      11.71774641       0.01364905      -0.00613403       0.00205304
C       10.21023668       6.66140836      11.70387158       0.00727195      -0.01272857       0.00397205
C       12.22761836       5.53270468      11.97718020       0.00617246      -0.01450778       0.01017562
H        8.11358712       7.59361192      10.56401726       0.01665409       0.00000378      -0.00608397
H        7.68121116       7.34508589      12.25002381       0.00345808      -0.00857610      -0.01063851
H        6.91190353       9.65418458      11.51091872       0.01522993      -0.00308045      -0.00271954
H        8.19837897       9.75159273      12.73982968       0.00811864      -0.01089157       0.00477546
H        8.58160263       9.98665159      11.00182654       0.01939814      -0.00483346       0.00766995
H       11.98849140       5.01530447      12.90598644       0.00382552      -0.01273665       0.01066932
H       13.28245676       5.79402462      11.94912465       0.00603783      -0.01391866       0.01250495
H       11.96580438       4.91127898      11.12051816       0.00820203      -0.01563533       0.01053631
O       10.80168020      11.15532202       3.38891185      -0.00612965      -0.00878465       0.00519345
O       11.06974390       9.73599458       4.97176419      -0.00013456      -0.00320460       0.00862163
O       12.42680406       9.58724164       3.16667239       0.00574708       0.00255054       0.01248300
C       10.99441715      11.63968186       2.02993805      -0.00697389      -0.00970161       0.00496116
C       10.54944202      13.07589121       2.01994096      -0.01304874      -0.01179093       0.00387486
C       11.51602771      10.11400038       3.76556443       0.00046581      -0.00288114       0.00971925
C       11.79439986       8.68836388       5.60461199       0.00965906       0.00675362       0.01574422
H       12.04383609      11.52423086       1.75720194      -0.00626493      -0.00522801       0.00629455
H       10.37036060      11.02753943       1.38042160      -0.00354314      -0.01285657       0.00486669
H       10.59997674      13.44578695       0.99683419      -0.01078276      -0.01064718       0.00434101
H        9.52436613      13.15978543       2.38433064      -0.01467183      -0.01613258       0.00047094
H       11.20657801      13.70351741       2.62292247      -0.01727292      -0.01047501       0.00685868
H       11.36349286       7.72337900       5.33213944       0.01598571       0.00213355       0.02337612
H       11.68099138       8.86484040       6.67080216       0.01172128       0.01400652       0.01433799
H       12.84486976       8.71978955       5.31794685       0.00835276       0.01327743       0.01250955
O       13.85351430      13.01146597       7.78279774       0.00684620       0.02488045       0.00033608
O       14.23564307      12.94115913       5.66102574       0.00821063       0.01518802       0.00023839
O       12.35182956      11.96011394       6.44928709       0.03205240      -0.02129608       0.00925487
C       13.00279788      12.78362607       8.93152954       0.00515771       0.02806774       0.00038049
C       13.61089454      13.59873793      10.04463399       0.00111178       0.03542088      -0.00262585
C       13.37348855      12.57145351       6.61534961       0.01858038       0.00430572       0.00434770
C       13.83833281      12.56640155       4.33076639       0.01407441      -0.00123047       0.00385681
H       11.98239048      13.09735356       8.67961437       0.00612336       0.02530175      -0.00369754
H       12.96247814      11.72125349       9.17242681       0.00787008       0.02993232       0.00454795
H       12.99142212      13.56139490      10.94336800      -0.00717645       0.04875925      -0.00685889
H       14.58903048      13.21355300      10.32642858      -0.00245321       0.03434484       0.00977735
H       13.72627255      14.64139469       9.73674460       0.00821141       0.03214380      -0.01513755
H       13.90622322      11.48824884       4.19882901       0.02295358      -0.00155121       0.01332788
H       14.53717603      13.06863012       3.66971419       0.01003566      -0.00074823       0.00002828
H       12.81905181      12.89203155       4.13618924       0.01196724      -0.01117089      -0.00022376
O        7.78951303       3.37878316       7.69548241      -0.00337730       0.00433172      -0.01289661
O        5.83738407       3.78807807       6.83806110      -0.00112738       0.00006976      -0.01725898
O        6.71235677       5.27067394       8.30054096      -0.01749412      -0.00774097       0.00112677
C        8.86516564       3.77229535       8.58430935      -0.00873134       0.00017530      -0.00412564
C        9.99511509       2.80111015       8.36273118      -0.00276801       0.00800797      -0.00908095
C        6.78703220       4.24980359       7.66682180      -0.00766203      -0.00285238      -0.00943780
C        4.72600300       4.68621171       6.69702465      -0.00440946      -0.00458713      -0.01917310
H        9.15275909       4.79138149       8.34630612      -0.01292982       0.00403386       0.00748160
H        8.50137913       3.75002204       9.61079247      -0.01326475      -0.01250675      -0.00617927
H       10.74629236       2.95053308       9.14822183      -0.00531709       0.00740918      -0.00638801
H        9.62412762       1.77027606       8.37366016       0.00454383       0.00525415      -0.01606909
H       10.47046241       2.96013319       7.39497193      -0.00175811       0.01843457      -0.00685602
H        4.27921992       4.89819984       7.66824910      -0.00537232      -0.00452720      -0.01978612
H        4.01689847       4.16673540       6.05978425      -0.00196791      -0.00858949      -0.01875088
H        5.04168745       5.62058455       6.23364838      -0.00757398      -0.00448513      -0.02126549
O        3.74840120       4.71483101      10.45681790      -0.00142203      -0.00273570      -0.01484998
O        3.80337703       6.84824060      10.82904837      -0.00513794      -0.00399113      -0.01258566
O        5.71585769       5.66622474      11.05753842      -0.00913173      -0.00706781       0.02387883
C        4.41708417       3.43417167      10.35958400      -0.00383073      -0.00427957      -0.00418106
C        3.36874515       2.38356219      10.11531703      -0.00347430      -0.00301689      -0.01101641
C        4.54318270       5.73211191      10.79977080      -0.01034021      -0.00470094      -0.00020786
C        4.55750813       8.01069003      11.20411987      -0.01239535      -0.00398430      -0.00042984
H        5.14472989       3.49051335       9.54957439       0.00406048      -0.00782894       0.00259104
H        4.96228291       3.25259886      11.28519799      -0.01302163      -0.00217941       0.00162312
H        3.84917982       1.41394275       9.98362779      -0.00441897      -0.00429693      -0.00448580
H        2.68103930       2.31825590      10.95825870      -0.01098993       0.00054232      -0.01685110
H        2.79637258       2.60869870       9.21584092       0.00475758      -0.00407487      -0.01645613
H        5.01544710       7.87145327      12.18224945      -0.02352981      -0.00548608       0.00446761
H        3.84538269       8.82862121      11.23003270      -0.01397611      -0.00517188      -0.00681787
H        5.33743897       8.20138558      10.46827251      -0.00417611      -0.00047077       0.00904560
