194
Lattice="13.288058700020125 0.0 0.0 0.0 13.288058700020125 0.0 0.0 0.0 13.288058700020125" Properties=species:S:1:pos:R:3:forces:R:3 energy=-2254851.0 stress="-0.0018007669132202864 -0.0003324926510686055 -0.0004982966056559235 -0.0003324926510686055 -0.004051510244607925 9.094585402635857e-05 -0.0004982966056559235 9.094585402635857e-05 -0.003203636035323143" pbc="T T T"
Fm       3.36333470      15.14488912       2.30581405      -0.00850368       0.00643865      -0.00559760
Fm       6.34077859      10.45531753       4.27570823      -0.00222893      -0.00206174       0.00238708
S       10.01953103       2.02743141       9.77540798      -0.00301278      -0.00392562       0.00298733
S        5.55493925       1.38574210       8.50198194      -0.00002545      -0.00065070      -0.00229585
S        8.05959576       1.42797770      10.60976421      -0.00401080       0.00028044       0.00019589
S        6.69482593       2.63547745       9.80538744      -0.00002408       0.00115147      -0.00487271
O       10.01437533       3.47458330       9.92050894      -0.00220015      -0.00343847      -0.00238045
O        5.14412289       0.25894182       9.37424987      -0.00101122       0.00222886       0.00053704
O       10.06364515       1.55116850       8.41080409      -0.00006604      -0.00890368       0.00526142
O       10.83748827       1.30652626      10.73142709      -0.00510466      -0.00059640       0.00710833
O        4.43222457       2.24115201       8.14907137       0.00137532       0.00000691      -0.00409931
O        6.37038241       0.96206301       7.38522830      -0.00064397      -0.00422704      -0.00088823
S        7.69444155       7.36700279       5.63362188       0.00730270       0.00295006       0.00315899
S        5.52976730       7.48508722       9.45520550       0.01029855       0.00162995       0.00322115
S        8.31718277       7.42548740       7.68414509       0.01155174       0.00604811       0.00127557
S        7.02731822       8.72406563       8.49879268       0.01126249       0.00225222       0.00609981
O        7.42645527       8.79516318       5.31878644       0.00362119       0.00131851       0.00103770
O        6.25062442       6.94278015      10.62253538       0.00746161       0.00080204       0.00432140
O        6.50991331       6.54765366       5.53357632       0.00888985       0.00100771       0.00758974
O        8.87451139       6.89197192       4.94369951       0.00703710       0.00455910       0.00294593
O        4.57515092       8.51384515       9.80626937       0.00961673       0.00093460       0.00144920
O        5.11664668       6.48566857       8.50866985       0.01206806       0.00168967       0.00224435
S        3.84737400       9.16123639       3.72942626      -0.00595967       0.00884646      -0.00893125
S        1.51346568      12.97465919       2.00176496      -0.01783997      -0.02311987      -0.01136143
S        3.53553231      11.28968002       3.95654855      -0.00410192       0.00428975       0.00084966
S        3.48908716      12.03772301       2.06675254      -0.00205174       0.00986901       0.00170099
O        4.91997642       9.12838689       2.72364118      -0.00122431       0.01048252      -0.00808692
O        1.55196922      13.74884822       3.25259710      -0.01239923       0.01563200       0.00330168
O        2.64067564       8.45574010       3.40153819      -0.00431460       0.00822218      -0.01394238
O        4.37994495       8.96400696       5.07789520      -0.00488375      -0.00262667      -0.00796402
O        1.79996804      13.86334472       0.86663163       0.00088196       0.00707343      -0.01710105
O        0.47947084      11.99935628       1.87045680       0.00691006       0.00589070      -0.00969918
O        8.34827756      11.01585341      12.22378074       0.00051260      -0.00266442       0.00477356
C        7.05580929      11.63069974      12.16772960       0.00144011      -0.00068950       0.01188108
C        5.95439899      10.64254517      11.88776741      -0.00101411       0.00312978       0.00960250
H        6.88104383      12.14901860      13.11837242       0.00454562      -0.00521713       0.01481879
H        7.07831794      12.39416430      11.38586843       0.00116697       0.00334787       0.01602125
H        4.99746716      11.16230205      11.84724528       0.00025000       0.00534314       0.01427385
H        6.11188145      10.15278567      10.92772639      -0.00444496       0.00749359       0.00692499
H        5.90297481       9.87189372      12.65978191      -0.00108554      -0.00044285       0.00587805
H        8.24163679      10.04934729      12.10897553      -0.00110620      -0.00271958       0.00757504
O        1.14387595       7.93538246      -0.78205626      -0.00957784      -0.00571960      -0.00765681
C        2.17789482       7.80370647       0.20167155      -0.00925595      -0.00494897      -0.00805367
C        3.50717708       8.34248848      -0.26149571      -0.01148236       0.00228104      -0.00515881
H        1.87348118       8.30131217       1.12385763      -0.01137075      -0.01058626      -0.00591552
H        2.23838068       6.73352235       0.40944081      -0.00416929      -0.00607783      -0.01258426
H        4.25356958       8.20464382       0.52119568      -0.01046316       0.00072026      -0.00686385
H        3.84884057       7.86051552      -1.17445962      -0.01022566       0.00862594      -0.00814682
H        3.44315607       9.41618100      -0.44995860      -0.01529962       0.00327754       0.00063913
H        1.22864947       8.79758649      -1.19994571      -0.01177374      -0.00356776      -0.00437720
O        4.33521932       0.33284331      12.07060361       0.00445545       0.00536603       0.00189638
C        4.95606247       1.16764017      13.01393119       0.00272884       0.00479090       0.00314969
C        4.28606199       2.53188970      13.13890543       0.00506040       0.00574881       0.00031935
H        4.90624610       0.63472678      13.97651045      -0.00160647       0.00541106       0.00304747
H        6.02187022       1.30978023      12.80189202       0.00341791       0.00258868       0.00690438
H        4.70144350       3.09691341      13.98720501       0.00065975       0.00404146       0.00334213
H        4.48518547       3.14269161      12.26222878       0.01190122       0.00647177       0.00230673
H        3.19838382       2.41741636      13.23995624       0.00406784       0.00813134      -0.00693084
H        4.66444966       0.50801145      11.16985807       0.00471721       0.00605886       0.00234787
O        3.72179190      12.08612192       7.63677375      -0.00069085      -0.00261718       0.00621600
C        4.64377279      11.01155973       7.53661481      -0.00648391      -0.00631970      -0.00333592
C        5.92776039      11.41371092       6.82117076      -0.00368148      -0.00525442       0.00368737
H        4.88525514      10.62511973       8.52960498      -0.01081704      -0.01887207      -0.00697243
H        4.13657355      10.21485028       6.99713264      -0.01027992       0.00242233      -0.01283047
H        6.56462151      12.03663043       7.44472064      -0.00556435      -0.00901794       0.00906560
H        6.49881911      10.51436244       6.56969375      -0.00349629      -0.00460517       0.00304795
H        5.68701354      12.02354810       5.93976634       0.00155506      -0.00083517       0.00553527
H        4.07958461      12.68370845       8.32518239       0.00446247      -0.00660212       0.00729880
O        8.28773024       8.27240473      11.91783718       0.00403166      -0.00109321       0.00657704
C        9.41483995       7.81617324      11.16703604       0.00359911       0.00230311       0.00435591
C       10.65971514       8.50055637      11.66924664       0.00367403       0.00067723       0.00521979
H        9.49933093       6.72850846      11.24914072       0.00393726       0.00220186       0.00044563
H        9.26718947       8.05046211      10.10903692       0.00261471       0.00609119       0.00553393
H       11.51202226       8.21565868      11.05138000       0.00280899       0.00143097       0.00403723
H       10.53824032       9.58314224      11.63286299       0.00418873       0.00059420       0.00760214
H       10.88121260       8.21475412      12.69778488       0.00425233      -0.00166481       0.00432947
H        7.48896869       7.89100308      11.50227080       0.00439323      -0.00100172       0.00630067
O        8.54015188      10.97790204       3.55037606      -0.00363505       0.00303487       0.00455183
C        8.41929958      10.23234804       2.31714520      -0.00213405       0.00624198       0.00288755
C        9.60362398       9.33592111       2.06485907      -0.00227773       0.00665450       0.00205654
H        7.49798308       9.61915184       2.35189220      -0.00227827       0.00695771       0.00021516
H        8.30356041      10.95773506       1.51187527      -0.00080012       0.00805026       0.00455338
H        9.45549445       8.81482725       1.11883014      -0.00095221       0.00983112       0.00024150
H       10.52187662       9.91930739       1.99397227      -0.00216851       0.00630152       0.00559349
H        9.70668018       8.59754122       2.86261255      -0.00397866       0.00420496      -0.00017115
H        9.21546707      10.56376820       4.13431065      -0.00251177       0.00322062       0.00345899
O        6.38407670       4.52482179      11.78493733       0.01021567      -0.00090557       0.00220579
C        7.17010564       4.96060900      12.87140091       0.01100791      -0.00388216       0.00269485
C        8.56784836       4.36619666      12.86586579       0.01003426      -0.00512820       0.00074198
H        7.22656507       6.05277232      12.87743638       0.01207190      -0.00417459       0.00481756
H        6.64002671       4.65746650      13.77688805       0.01120245      -0.00511615       0.00226259
H        9.16888141       4.79727735      13.67137910       0.01039562      -0.00796030       0.00160301
H        8.53654608       3.28483766      12.99829144       0.00887915      -0.00530848      -0.00212958
H        9.06736675       4.55023122      11.91497954       0.00968591      -0.00307970       0.00119105
H        6.33921726       5.25152562      11.14184444       0.00877512       0.00092255       0.00461318
O        6.94173436       4.02189486       6.96961317       0.00518084      -0.01821959      -0.02364743
C        8.10874059       3.41897089       6.43728356       0.01176786      -0.01340298      -0.01309994
C        9.40303804       4.15034499       6.74917522       0.00588703      -0.00872135      -0.00185445
H        8.14554089       2.42811088       6.88418396       0.01103771      -0.01322806      -0.01320428
H        8.00977241       3.28971600       5.34728263       0.02172993      -0.01287584      -0.01381928
H       10.24573844       3.51975520       6.46025401       0.01057292      -0.00490603       0.00449410
H        9.48158699       5.09341306       6.21095004       0.00622800      -0.00803043      -0.00039974
H        9.48602532       4.32595669       7.82034178      -0.00319860      -0.00887544      -0.00134864
H        6.78985676       4.88391104       6.56566575       0.01437549      -0.01143542      -0.01228899
O        2.44572771       4.11371419       8.93591031       0.01015198      -0.00423397       0.00088340
C        3.37766083       4.19944714      10.00332823       0.01029292       0.00304633      -0.00035375
C        3.00646052       5.33979127      10.91667573       0.00422347       0.00239885      -0.00258496
H        3.38698843       3.25094908      10.55174322       0.01610783       0.00436217       0.00138313
H        4.38250256       4.35880554       9.60521631       0.00902683       0.00801377      -0.00110179
H        3.77732915       5.45279455      11.68093366       0.00127822       0.00615716      -0.00049587
H        2.93864873       6.26930361      10.35252023       0.00260862       0.00141467      -0.00363509
H        2.04525040       5.16868020      11.39524837       0.00339955      -0.00065611      -0.00553828
H        2.80129825       3.43045730       8.35551613       0.01320911      -0.00477226       0.00333577
O        8.91742102      11.68542166       9.53989856      -0.00712514      -0.01550847      -0.00026757
C       10.01683864      11.02842847       8.94493016       0.00225592       0.00181815      -0.00131002
C       11.36547471      11.51259823       9.43963191      -0.00528437       0.01465631       0.00522849
H        9.93330686       9.93809873       9.09034342       0.01501340      -0.00005150      -0.00896898
H        9.93096116      11.21026306       7.87154643       0.00307320       0.00773166      -0.00008738
H       12.17771711      10.95599186       8.96811362       0.00241573       0.02904195       0.00219086
H       11.49223453      12.57094544       9.22266821      -0.01869931       0.01780385       0.01439052
H       11.45309399      11.39191937      10.52079934      -0.00595914       0.00675349       0.00403111
H        8.93180938      11.51293477      10.49663022      -0.00476144      -0.01418514      -0.00029692
O        5.91489370       4.47159882       3.27468916      -0.00380993      -0.00160226      -0.00542274
C        7.16335402       5.09932196       2.96011043      -0.00320285       0.00147223       0.00484106
C        6.96298849       6.48618639       2.39035608      -0.00262292       0.00193220       0.00711040
H        7.80291724       5.12818829       3.83987861      -0.00960079       0.00089131       0.00923067
H        7.63519745       4.43906811       2.23336966       0.00366876       0.00445235       0.00687504
H        7.90037906       6.87027913       1.98514232       0.00029939       0.00759230       0.01979079
H        6.22478002       6.47483736       1.59147468       0.00713676       0.00134338      -0.00163004
H        6.60816185       7.17360240       3.15329398      -0.01462010      -0.00277425       0.00555018
H        5.44478845       4.94766633       3.97901835      -0.01269282      -0.00339861      -0.01012209
O        3.39542602       4.99372080       4.41052086       0.00988720       0.00281258      -0.00843263
C        2.76260067       4.70956643       3.18563202       0.00199121       0.00439984      -0.00381720
C        1.60751798       3.72402674       3.31068619      -0.00150663       0.00927651       0.00476530
H        2.42004744       5.62573943       2.69110530       0.00219071       0.00509399      -0.00200422
H        3.55412819       4.29529556       2.53741992      -0.00410792       0.00119543      -0.00866874
H        1.30046462       3.33893313       2.32787952      -0.01199587       0.01263358       0.00739939
H        1.87795491       2.87471065       3.94852645       0.00029032       0.00758806       0.00122305
H        0.72393596       4.18734955       3.75027620       0.00522190       0.01339039       0.01330607
H        2.82510059       5.57982858       4.96132425       0.01315339       0.00262750      -0.00484160
O        1.00262710      12.06693897       8.04512014      -0.00159023      -0.01286864      -0.01662064
C        0.62945368      13.25378564       7.36057319      -0.00019866      -0.00118250       0.00399745
C       -0.03662221      12.94643045       6.03143893      -0.00949809       0.02095735       0.00410640
H       -0.06459605      13.81051456       7.99715864       0.00663322      -0.00608602       0.01561284
H        1.51079016      13.88643592       7.20028171       0.00191826      -0.00371200       0.00777293
H       -0.25947817      13.86354659       5.48451007      -0.00993994       0.02965213       0.01932117
H        0.61475860      12.33203877       5.40857400      -0.01611099       0.02778351      -0.00879780
H       -0.97397624      12.41283694       6.18970537      -0.01016670       0.02215791       0.00220521
H        1.96063447      11.94871636       7.92055551       0.00035676      -0.00519918      -0.00679012
O       10.07470263       9.93613119       5.62064300       0.00644290       0.00677177      -0.00300323
C       11.03701467       8.96137932       6.06666138       0.01469493       0.00897584      -0.01712915
C       12.43326223       9.43324840       5.77208023       0.00986582       0.02036867      -0.02175734
H       10.90601133       8.81127472       7.14229412       0.02160563      -0.00087295      -0.01791197
H       10.83032973       8.00697635       5.57825012       0.01731808       0.01218450      -0.02383205
H       13.11706315       8.59404543       5.90240527       0.01625254       0.02380173      -0.03391651
H       12.52159603       9.77910499       4.74233558       0.00086415       0.03041915      -0.01881126
H       12.73951895      10.23830416       6.43703593       0.00936684       0.01587009      -0.01642907
H        9.20993361       9.63169342       5.92676719       0.01090642       0.00357275       0.00541747
O       13.11635471       6.48277171      10.46299693      -0.00338596      -0.00647199      -0.00590894
C       12.21574923       5.45093279      10.84575627      -0.00149223      -0.00542539      -0.00092576
C       12.88665755       4.18655554      11.34498981       0.00080454      -0.00429273      -0.00170475
H       11.51943376       5.81588323      11.61291219       0.00147742      -0.00445780       0.00133592
H       11.62376387       5.22082272       9.96226377      -0.00500852      -0.00711748       0.00211477
H       12.13155234       3.42431327      11.54208967       0.00263974      -0.00530691       0.00011305
H       13.58070192       3.80080152      10.59792912      -0.00017594      -0.00344146      -0.00287899
H       13.43653623       4.37365517      12.27200094       0.00258602      -0.00327346      -0.00316170
H       13.60921664       6.78735458      11.23882001      -0.00230955      -0.00400506      -0.00752585
O        5.65062560       1.89752394       2.89413934      -0.01545993       0.00014830       0.01115887
C        5.62868711       1.28937812       4.20980464      -0.01252744       0.00094517       0.01147288
C        4.33671923       1.61502311       4.92694755      -0.01837420      -0.01708400       0.00596327
H        5.74855455       0.21161146       4.05193581       0.00238412       0.00282279       0.01172892
H        6.48733711       1.63917380       4.78216240      -0.02037466       0.01338127       0.01440772
H        3.48365060       1.02798304       4.56042880      -0.01330632      -0.01162673      -0.01398602
H        4.42727391       1.40924671       5.99002417      -0.02785717      -0.03989388       0.00216129
H        4.12031655       2.68560319       4.84169604      -0.01930982      -0.01623355       0.02597640
H        5.80118474       2.87242952       3.04897084      -0.01028895       0.00019909       0.00815934
O       11.74138286       5.45566999       2.67271806      -0.00756320      -0.00839007       0.00640470
C       12.18257566       6.50087551       1.81130555      -0.01047212      -0.00758034       0.00597727
C       12.73723225       7.68345077       2.57305845      -0.00866973      -0.00871533       0.00487989
H       12.94744677       6.05540168       1.17261355      -0.01264068      -0.00699678       0.00334504
H       11.36607378       6.81731379       1.15046833      -0.01268852      -0.00749888       0.00890058
H       13.04725959       8.47798196       1.89260973      -0.01099644      -0.00783494       0.00456715
H       11.97511117       8.09642117       3.23507023      -0.00635390      -0.00908133       0.00756212
H       13.59419885       7.39769978       3.18235788      -0.00654407      -0.00831907       0.00176615
H       11.11540928       5.83347278       3.29887323      -0.00738425      -0.00939253       0.00720601
O        1.87200370       6.77839413       5.79792068       0.00780720      -0.00483689      -0.00996125
C        1.70320215       6.85026336       7.23845743      -0.00339976      -0.01120624      -0.01112232
C        2.04765870       8.21494791       7.78045542       0.00390902      -0.01716501      -0.00210041
H        0.66325416       6.59185137       7.44853236      -0.00708729      -0.00312631      -0.02019942
H        2.32667674       6.08402539       7.69850873      -0.01347178      -0.01886690      -0.01065356
H        1.84126320       8.24617736       8.85015659       0.00210775      -0.02252679      -0.00258431
H        3.10742111       8.42403202       7.64982943       0.00516698      -0.02255372       0.00078001
H        1.46645881       9.00819641       7.30744675       0.00904922      -0.01103669       0.00184530
H        2.30545029       7.58422159       5.49924395       0.00524864      -0.00130727      -0.00330485
