194
Lattice="14.326469028357149 0.0 0.0 0.0 14.326469028357149 0.0 0.0 0.0 14.326469028357149" Properties=species:S:1:pos:R:3:forces:R:3 energy=-2109281.5 stress="-0.00026045306003652513 5.786607289337553e-05 0.00037502680788747966 5.786607289337553e-05 -1.3874449905415531e-05 -0.0006585092341993004 0.00037502680788747966 -0.0006585092341993004 -1.1342513062118087e-06" pbc="T T T"
Fm      10.14514491      13.04471362      10.77737036      -0.01316413       0.00356421      -0.01614952
Fm       6.70800232      15.71364239      11.46194423       0.00812250       0.00747174       0.01342890
O       11.25398858      12.18506891       9.11341797      -0.00450373      -0.01099324      -0.00123388
O        9.74924012      13.75983587       8.74925709       0.01295280      -0.00375068      -0.01409297
O       10.73894423      12.76193260       6.97970193       0.02648535      -0.02534452      -0.03216505
C       10.60011744      12.89730648       8.18863718       0.00592925      -0.00698498       0.03010887
O        6.54483806      13.71650548      12.49210186      -0.00429976       0.01063103       0.01019204
O        8.39985548      12.40885345      12.40603646      -0.01063651       0.00510550      -0.01340508
O        8.30396418      14.30580171      11.24232500      -0.01635283       0.00353473      -0.01381254
C        7.73394553      13.41213366      12.10035255      -0.01127773       0.00626612      -0.00544715
O       11.51313667      12.92095865       0.34799006      -0.04379559       0.01505399      -0.00845122
O       10.27040920      14.71068126      -0.11752398      -0.01695168       0.03104329      -0.01615137
O       11.18720891      13.52469502      -1.75125980      -0.02225977       0.01714541      -0.01070786
C       10.98486263      13.72531058      -0.45670153      -0.02807803       0.02123836      -0.01295453
O       12.84041514       2.81672018       3.69245142       0.00220817      -0.00762226      -0.00486735
C       13.72596424       3.90156350       3.80942510       0.00156761      -0.00686914      -0.00291264
C       13.32371776       1.77689842       2.85067960       0.00283681      -0.00495309      -0.00732429
C       13.09610700       4.93789691       4.71264460       0.00208732      -0.01044542       0.00141147
C       12.29367006       0.68062538       2.78357863       0.00519919      -0.00714612      -0.00789040
H       14.69258030       3.56471481       4.21806464       0.00249147      -0.00759324      -0.00564381
H       13.93007748       4.33054409       2.81279186      -0.00084680      -0.00380316      -0.00200760
H       13.52120555       2.18508612       1.84676728       0.00021994      -0.00304002      -0.00699699
H       14.28078561       1.40464337       3.24774453       0.00431722      -0.00382093      -0.00971523
H       13.75136561       5.80335466       4.82305449       0.00161184      -0.01034756       0.00309533
H       12.14223351       5.26705774       4.30201579       0.00085932      -0.01042847       0.00411455
H       12.90582572       4.51575954       5.69927369       0.00395732      -0.01380081       0.00032909
H       12.61368438      -0.12138680       2.11809687       0.00699797      -0.00623888      -0.00773123
H       12.10328735       0.26710058       3.77424118       0.00584440      -0.00802863      -0.00802964
H       11.35812692       1.05541914       2.36847555       0.00435138      -0.00940502      -0.00750467
O        9.75583703       3.35240212       4.16822132       0.00112572      -0.01016989       0.00246209
C        9.31344865       3.44465823       2.83449690       0.00342587      -0.00785393       0.00151759
C        9.32401575       2.16947053       4.84076011       0.00327837      -0.01315159      -0.00245440
C       10.12941658       4.50283730       2.12590952      -0.00123090      -0.00073287       0.00709672
C       10.26310215       1.86967790       5.98200094      -0.00016963      -0.01216082       0.00095922
H        9.43955027       2.47762477       2.32843399       0.01041318      -0.00516886      -0.00159764
H        8.23899503       3.69626037       2.79662016       0.00218213      -0.01422055       0.00035667
H        8.29149820       2.30888354       5.19867004       0.00129324      -0.01833712      -0.00633810
H        9.31563890       1.33270862       4.13129825       0.00967493      -0.01195139      -0.00402391
H        9.75811079       4.65292802       1.11140183       0.00074823      -0.00095230       0.00634514
H       10.07466596       5.45449892       2.65581759      -0.00774789      -0.00291580       0.01044886
H       11.17335418       4.19369121       2.07688705       0.00039274       0.00496215       0.00821418
H        9.94852062       0.97658892       6.52695483       0.00170065      -0.01419821      -0.00186937
H       11.26712537       1.69925029       5.59767351       0.00212552      -0.00664764       0.00433217
H       10.30838008       2.71126262       6.67351390      -0.00684828      -0.01381385       0.00315279
O        9.99520202      10.90804157       2.31191228      -0.00804895      -0.00061989       0.00466114
C       11.04522697      10.02375701       1.99880307      -0.00122023       0.00917432       0.00152028
C        9.00254048      10.94827760       1.30581784      -0.00027335       0.00932065      -0.00308615
C       12.18825220      10.28348616       2.94779791      -0.00829679       0.00422256       0.01134539
C        8.16386962      12.18555183       1.50402043       0.00290149       0.01085937      -0.00069731
H       10.69682941       8.97769486       2.08139668       0.00640041       0.00544238      -0.01411484
H       11.36718455      10.19065746       0.96222427       0.00393823       0.02541235       0.00636756
H        9.47940658      10.97674812       0.32110490       0.00972006       0.01641098       0.00262660
H        8.38762811      10.03406669       1.35931284      -0.00445446       0.01117468      -0.01639114
H       12.96330855       9.52765400       2.81429434      -0.00259790       0.01105174       0.00672663
H       12.61292362      11.26639958       2.74708926      -0.01290855       0.00917879       0.02725455
H       11.84607872      10.26067548       3.98245874      -0.01291303      -0.01077910       0.00963062
H        7.34832743      12.20806777       0.77953431       0.00807995       0.01718687      -0.00615686
H        7.75492197      12.20209623       2.51579028      -0.00303540       0.00725198      -0.00272080
H        8.78300656      13.07054724       1.35065415       0.00704971       0.00914133       0.00619467
O        2.63922703       3.19436414      12.37235569       0.00289135      -0.00786813       0.00386879
C        2.07641777       3.80244478      13.52426360       0.00119051      -0.00603628       0.00161894
C        3.26536089       1.96017231      12.66709167       0.00265110      -0.00730130       0.00732112
C        1.50354632       5.14198666      13.13371976       0.00216663      -0.00671434      -0.00190225
C        3.81967669       1.38927732      11.38237610       0.00293292      -0.00964351       0.00844130
H        1.29883504       3.14933222      13.94379938       0.00027514      -0.00524107       0.00133945
H        2.85551001       3.91930559      14.29308251      -0.00017792      -0.00482790       0.00282311
H        4.06966909       2.12120992      13.40010916       0.00279215      -0.00481018       0.00661856
H        2.54156341       1.26697883      13.11728885       0.00211614      -0.00527579       0.00970836
H        1.02332641       5.61102332      13.99333842       0.00120178      -0.00462847      -0.00363737
H        2.28704418       5.80860707      12.77034524       0.00314909      -0.00803181      -0.00227050
H        0.75974003       5.02359692      12.34637498       0.00330842      -0.00817712      -0.00272593
H        4.41227883       0.48653961      11.57637396       0.00997689      -0.00439000       0.01042555
H        3.01983268       1.13168572      10.68876979       0.00366113      -0.01864781       0.01100658
H        4.44258471       2.14164624      10.88559465      -0.00407255      -0.00714966       0.00338992
O        7.18669995       7.79955262       4.71054872       0.00139832       0.00296710       0.00153883
C        8.25451650       8.73640893       4.81832398       0.00124663       0.00282568       0.00027236
C        7.65489994       6.47501031       4.57030919       0.00131714       0.00297952      -0.00121321
C        7.67608015      10.10512208       5.06693592       0.00145718       0.00288451       0.00223204
C        6.47345812       5.53478853       4.53988418       0.00137377       0.00282806      -0.00004810
H        8.91516284       8.43257175       5.64233686       0.00285414       0.00252125      -0.00119424
H        8.84920075       8.72704697       3.89303864       0.00014508       0.00388472      -0.00035256
H        8.24250083       6.38154923       3.64405463      -0.00100684       0.00471030      -0.00276786
H        8.33130000       6.23070923       5.40013478       0.00318146       0.00197773      -0.00295109
H        8.47507219      10.84375124       5.13896668       0.00162232       0.00225967       0.00299336
H        7.01741484      10.39003676       4.24426422       0.00187165       0.00383253       0.00207983
H        7.09804658      10.11160846       5.99268839       0.00117816       0.00169273       0.00189227
H        6.81938624       4.50365090       4.46095477       0.00157807       0.00314206      -0.00363548
H        5.88430007       5.62827921       5.45306739       0.00394825       0.00025197       0.00184371
H        5.82182212       5.76599597       3.69632457      -0.00112946       0.00479653       0.00238277
O       10.71798941       4.12105868      11.34335215       0.00061962      -0.00258279       0.00238195
C       10.60167406       4.78813311      12.57937593      -0.00158107      -0.00228494       0.00185479
C        9.99405970       2.90102109      11.28709444       0.00309571      -0.00405034       0.00131494
C       11.50108681       6.00074233      12.55805724      -0.00302118      -0.00119704       0.00203789
C       10.38994774       2.18673657      10.02379849       0.00658603      -0.00212660       0.00173396
H        9.55511440       5.09474056      12.74654743      -0.00207478      -0.00318448       0.00043963
H       10.87610991       4.10632373      13.39713068      -0.00187691      -0.00148630       0.00265270
H       10.20203481       2.28624761      12.17426995       0.00216766      -0.00402150       0.00159329
H        8.90326672       3.12430467      11.28757460       0.00238660      -0.00596227      -0.00074543
H       11.43879932       6.53904261      13.50483829      -0.00504465      -0.00047164       0.00144379
H       12.53569171       5.69772901      12.39773409      -0.00231369       0.00008484       0.00389553
H       11.21301845       6.67720626      11.75331318      -0.00264007      -0.00220446       0.00098862
H        9.75588815       1.32533597       9.81880316       0.00879742      -0.00370827      -0.00028591
H       10.32200311       2.86468898       9.17343262       0.00624890      -0.00143182       0.00195062
H       11.41858442       1.83303552      10.09068031       0.00734544       0.00030554       0.00311141
O        9.71104558       6.66836036       7.93445003       0.00692755       0.00130945      -0.00267929
C       10.95982581       7.33221530       7.80248340       0.00770196      -0.00069898      -0.00508842
C        9.79500315       5.29640360       7.59687350       0.00498766       0.00046188       0.00033258
C       10.81065212       8.74517192       8.30337044       0.01057436       0.00080103      -0.00844046
C        8.47125937       4.64280574       7.91567265       0.00448012       0.00236785       0.00229865
H       11.71925037       6.78726554       8.38244905       0.00730219      -0.00023636      -0.00409505
H       11.27785921       7.31406017       6.74889523       0.00712599      -0.00383041      -0.00517309
H       10.04434855       5.17843616       6.53219429       0.00418852      -0.00200190       0.00029391
H       10.60164703       4.82716491       8.17701899       0.00487968       0.00072104       0.00058845
H       11.75094457       9.29292984       8.25500985       0.01101246      -0.00031047      -0.01199436
H       10.08190453       9.29938190       7.71286486       0.01004137       0.00043024      -0.00841300
H       10.47361431       8.73691172       9.34042664       0.01306035       0.00399126      -0.00769471
H        8.49980947       3.57815899       7.68171700       0.00347144       0.00217345       0.00307259
H        8.25244662       4.76394354       8.97766353       0.00454515       0.00226486       0.00238757
H        7.66662206       5.10371703       7.34168005       0.00483900       0.00233415       0.00180186
O        4.30202970       7.32163790       2.24428771      -0.00249003       0.00331812      -0.00042808
C        3.04686004       6.67988843       2.13579876      -0.00169089       0.00141905       0.00155586
C        5.02788362       7.28983634       1.03259518      -0.00191134      -0.00075611      -0.00000449
C        2.35422706       6.74098920       3.47357149      -0.00077851       0.00301812       0.00192189
C        6.31311603       8.05656480       1.21061392      -0.00263521       0.00102532      -0.00239949
H        2.44530529       7.17690865       1.35944619      -0.00291073      -0.00090376       0.00102660
H        3.18935056       5.63503080       1.81677122      -0.00043210       0.00102305       0.00350157
H        5.22928033       6.24175736       0.75716026      -0.00096758      -0.00161138       0.00432662
H        4.42005577       7.72693931       0.22412045      -0.00198692      -0.00456011      -0.00199082
H        1.36762066       6.28215243       3.40579191      -0.00015752       0.00143495       0.00356750
H        2.93291065       6.21246720       4.23128573       0.00062029       0.00535857       0.00247495
H        2.23629697       7.77675732       3.79195423      -0.00212374       0.00342748       0.00004175
H        6.90361871       8.02732855       0.29438010      -0.00128357      -0.00355658      -0.00130597
H        6.10552636       9.10003035       1.44705289      -0.00347924       0.00219382      -0.00846142
H        6.89888003       7.64076566       2.03008629      -0.00352508       0.00567129       0.00058970
O        6.54060550      10.32511916      10.88648210      -0.00261217      -0.00517592       0.00183475
C        5.96688784       9.91629567      12.10277441       0.00029713      -0.00428491       0.00335974
C        7.92708470      10.04996252      10.78173253      -0.00290561      -0.00639513      -0.00026247
C        4.55488113      10.45088975      12.14024455       0.00014490      -0.00507975       0.00744162
C        8.46094712      10.88380930       9.64591283      -0.00371584      -0.01256073      -0.00490421
H        5.97015451       8.81329730      12.17980998       0.00103934      -0.00417739       0.00413245
H        6.55626687      10.30957303      12.94333895       0.00227779      -0.00357503       0.00174433
H        8.42062405      10.32034275      11.72040112      -0.00094989      -0.00271013      -0.00214463
H        8.09041078       8.97712197      10.60142103      -0.00441966      -0.00781238       0.00521235
H        4.02941086      10.09501978      13.02689801       0.00394888      -0.00435479       0.00991258
H        4.57849173      11.54079330      12.15784658      -0.00101240      -0.00504249       0.00604429
H        4.00879343      10.12801401      11.25297597      -0.00325408      -0.00668205       0.01008420
H        9.54991056      10.84228013       9.57721583      -0.00320187      -0.01142638      -0.00305386
H        8.05295663      10.56932109       8.68568752      -0.00156929      -0.02052449      -0.00344385
H        8.15756100      11.92218475       9.78039577      -0.00555866      -0.01189173      -0.01180061
O        3.10560625      11.54265618       2.47702239       0.00078174       0.00612044       0.00073817
C        2.73820418      10.49792926       1.59551426      -0.00023425       0.00624663       0.00098826
C        4.46927051      11.89901433       2.33848064       0.00103864       0.00523835       0.00033939
C        1.26364007      10.22646273       1.75975075      -0.00012046       0.00632755       0.00257699
C        4.76055603      13.04997192       3.26838364       0.00111452       0.00689232      -0.00168207
H        2.96254603      10.79728526       0.56106448      -0.00144745       0.00645183       0.00081801
H        3.33284559       9.59998829       1.82002011      -0.00024575       0.00605702       0.00005117
H        5.10593672      11.03344797       2.57564000       0.00061524       0.00537771       0.00212272
H        4.67672365      12.17677226       1.29453744       0.00153978       0.00329658      -0.00002420
H        0.95354308       9.39941677       1.11862832      -0.00105663       0.00742914       0.00158387
H        1.03839049       9.96535256       2.79372713       0.00108973       0.00465698       0.00245112
H        0.67075187      11.10084324       1.49412216      -0.00010979       0.00697687       0.00488319
H        5.79809942      13.36581750       3.16397335       0.00137018       0.00609756      -0.00167941
H        4.11067981      13.89439705       3.03828637       0.00177842       0.00674902      -0.00370150
H        4.58960131      12.75726923       4.30353642       0.00033911       0.00899208      -0.00122009
O        6.34592085       3.57662830      12.58800000      -0.00419503       0.01106464       0.01492059
C        6.10045079       4.91905906      12.15509037      -0.00184622       0.00861365       0.00615802
C        6.98614258       3.47404132      13.87006949      -0.00059667       0.01258767       0.01311743
C        5.26715637       4.89293897      10.90189049       0.00318819      -0.00196034       0.00270218
C        7.37560240       2.03255864      14.08603208       0.00296220       0.01261914       0.01161098
H        5.57564176       5.44645022      12.95945660      -0.00496760       0.01477066       0.00000450
H        7.06331757       5.41930605      11.99340470      -0.00118968       0.00718968       0.00545682
H        7.86232179       4.13068031      13.88398444      -0.00108084       0.01347730       0.01126906
H        6.28439832       3.82755195      14.63473995       0.00066260       0.01076163       0.01538816
H        5.09355817       5.91215950      10.55914412       0.00230206      -0.00507006      -0.00571720
H        5.78305595       4.35930520      10.10087013       0.00769922      -0.00682709       0.00876706
H        4.30414772       4.42122051      11.09246492       0.00360513      -0.00307664       0.00223175
H        7.75538689       1.87505608      15.09328976       0.00419371       0.01257795       0.01109257
H        6.52300112       1.35701399      13.95504383       0.00391501       0.01094221       0.01374950
H        8.19184678       1.71124836      13.42856371       0.00372103       0.01262110       0.01186053
O        5.07500829       9.23905817       7.64142235      -0.00606635       0.00140446      -0.00635308
C        4.15911015       9.52485054       6.60388581      -0.00498950       0.00144595      -0.00727370
C        5.39702386       7.86382943       7.70986710      -0.00745490       0.00102177      -0.00579968
C        3.85772319      11.00253057       6.63896327      -0.00473709       0.00151908      -0.00831708
C        6.45087052       7.68361000       8.77152399      -0.00608087       0.00002740      -0.00734463
H        4.58885122       9.22873043       5.63584956      -0.00401551       0.00100735      -0.00673091
H        3.23846377       8.93661131       6.74720219      -0.00526899       0.00178730      -0.00808361
H        4.49002549       7.28360341       7.94913205      -0.00780696       0.00232795      -0.00423078
H        5.76486694       7.52771010       6.73295552      -0.00929832       0.00020260      -0.00613332
H        3.17612240      11.27234653       5.83211741      -0.00315017       0.00131435      -0.00975324
H        3.40655874      11.27534421       7.59340105      -0.00641114       0.00206407      -0.00930952
H        4.77913198      11.57438224       6.52580835      -0.00437735       0.00124563      -0.00698290
H        6.68472417       6.62936041       8.90791301      -0.00862079      -0.00045073      -0.00651661
H        7.37294053       8.18835998       8.48680317      -0.00519574      -0.00262436      -0.00925367
H        6.10650049       8.10897690       9.71448626      -0.00361872       0.00187550      -0.00725986
