199
Lattice="14.015559477014795 0.0 0.0 0.0 14.015559477014795 0.0 0.0 0.0 14.015559477014795" Properties=species:S:1:pos:R:3:forces:R:3 energy=-1536332.375 stress="-0.002018226543441415 0.0008595033723395318 6.58294047752861e-05 0.0008595033723395318 -0.0023250989615917206 0.00022841606551082805 6.58294047752861e-05 0.00022841606551082805 -0.0035363659262657166" pbc="T T T"
Fr       3.17277540      14.77885733       1.28564237       0.01187527       0.00408949       0.04024830
Fr      -0.75149088      13.83310411       3.67121730      -0.01203499       0.00136239      -0.00915322
S       14.08958598       1.53710583       0.84848958       0.00979050       0.01231463       0.01525733
S       14.13013525      -0.46169602       0.59274563       0.02936172       0.01519291       0.00085983
O        6.45199252       2.69184052      12.30321596      -0.00666058      -0.00768465       0.00212902
O        5.03902368       4.30280957      12.07437600      -0.00309744      -0.00617728       0.00054070
O        4.66049252       2.76935348      13.68632686      -0.01168787      -0.00902038      -0.00397893
C        6.92918494       1.48171102      12.95596691      -0.00445876      -0.00453016       0.00510055
C        8.40313300       1.36207217      12.68713988      -0.00392619       0.00094360       0.00749816
C        5.33517394       3.20457223      12.77150690      -0.00739542      -0.00770605      -0.00110972
C        3.78857646       4.92062475      12.41182640       0.00249076       0.00181675       0.00406206
H        6.70540319       1.56256988      14.01939367      -0.00662646      -0.00317718       0.00455534
H        6.37605575       0.63935293      12.53497513      -0.00044799      -0.00732341       0.00626658
H        8.75323667       0.39164004      13.03881573       0.00160889       0.00614683       0.01553962
H        8.60069702       1.42297536      11.61908395      -0.00337929      -0.00583373       0.00744545
H        8.95511725       2.15930684      13.17984625      -0.00906850       0.00821979       0.00074300
H        2.96089903       4.32418449      12.02413526      -0.00310686       0.00487357       0.01201040
H        3.80903014       5.89560949      11.93755340       0.00592049      -0.00086962      -0.00075931
H        3.69190522       5.02139519      13.48957134       0.00927771       0.00818872       0.00378823
O       12.74624566       9.06742577       8.58043599      -0.00532593       0.00069942      -0.00335799
O       12.71652171       9.86870157       6.57959353      -0.00394321       0.00362785      -0.00170694
O       12.97262646       7.62742944       6.84469007      -0.00733562       0.00377524      -0.00454682
C       12.75454339       7.94976247       9.51082727       0.00027112      -0.00050265      -0.00516427
C       12.88851782       8.53610390      10.89152853      -0.00447066      -0.00150734      -0.00467873
C       12.82243715       8.73460598       7.29739247      -0.00560461       0.00162005      -0.00384590
C       12.70744915       9.69906944       5.15587407      -0.00429527       0.00671181      -0.00146052
H       11.82272523       7.39778868       9.37432500       0.00419307      -0.00611979      -0.00691310
H       13.58979014       7.29596998       9.25786006       0.00438789       0.00506952      -0.00523534
H       12.81798389       7.74240390      11.63548575       0.00289575      -0.00294799      -0.00591253
H       13.84709644       9.04290861      11.00329601      -0.00896947       0.00655649      -0.00466495
H       12.08972550       9.25090580      11.09061975      -0.01044388      -0.00893156      -0.00345436
H       13.33095170       8.85862295       4.86364259      -0.01619256      -0.00155845      -0.00214306
H       13.10036872      10.62427024       4.74386349       0.00975893       0.00136416       0.00080617
H       11.68710279       9.53847995       4.81683240      -0.00613198       0.02230544      -0.00263341
O        4.87511424       8.12121554       6.10725004       0.00065148      -0.00618745       0.00406432
O        3.17783921       9.42419617       6.14518421      -0.00104336      -0.00800977      -0.00458051
O        2.81853910       7.20197164       5.85557979       0.00336510      -0.00845921       0.00874384
C        5.48621034       6.83254088       5.93265139      -0.00089473      -0.00883701       0.01379198
C        6.96368648       7.05231840       6.07958201      -0.00099558      -0.01019529       0.01041982
C        3.55296205       8.14485489       6.00631700      -0.00124526      -0.00992936       0.00313941
C        1.77970261       9.65507852       6.01471503      -0.00187413      -0.01098748      -0.00625834
H        5.08770884       6.14651220       6.68407878      -0.00140342      -0.00159398       0.01929238
H        5.22135037       6.45978232       4.94436318      -0.00264418      -0.01549807       0.01699561
H        7.50136635       6.10940175       5.99359393      -0.00344009      -0.01236129       0.02015179
H        7.32347383       7.73571537       5.31181295       0.00056128      -0.01971740       0.00305930
H        7.18308683       7.47669892       7.05813713       0.00031618      -0.00073811       0.00581360
H        1.49606739       9.57207455       4.96483765       0.00101618      -0.00604963      -0.00735447
H        1.60521882      10.66341729       6.38320260      -0.00503543      -0.01366803      -0.00113418
H        1.22126970       8.93461236       6.60402559      -0.00117405      -0.01561010      -0.01209508
O       10.50287243       3.21472658       3.25940433       0.00578566       0.00710887       0.01697379
O        9.08783541       2.54310112       4.71969205       0.01510039      -0.00111699       0.02248342
O       10.56154810       1.03970527       3.90180516      -0.01575475      -0.00528836      -0.02527385
C       11.56785156       2.97148799       2.30241028      -0.00496039       0.01164162       0.00382385
C       11.78073925       4.22948156       1.51345056      -0.01026796       0.01522109       0.00897366
C       10.10078633       2.16916312       3.95042315       0.00018844       0.00002980       0.00195752
C        8.51420078       1.53596076       5.56299222       0.01620417      -0.00970843       0.01235665
H       12.46527630       2.68274489       2.84957136      -0.00119102       0.00732108      -0.00553828
H       11.28278302       2.13756279       1.66280332      -0.01293963       0.01624909       0.00228706
H       12.57817033       4.04317750       0.79355899      -0.01347686       0.02036778       0.00415197
H       10.87332196       4.50636580       0.98097289      -0.01330832       0.01711164       0.01571251
H       12.07047519       5.05752261       2.15904344      -0.00818237       0.01202485       0.01169425
H        8.07890778       0.73627982       4.96325229       0.01014207       0.00022651       0.00450400
H        7.75497175       2.05798399       6.13640104       0.02244392      -0.01368667       0.02305935
H        9.26539290       1.11916011       6.22842980       0.01834682      -0.02116919       0.00225018
O        6.71486197       5.63918481       3.17670087       0.01259700       0.00168395       0.00481688
O        7.72013480       7.50586360       2.79340814       0.01705007      -0.00089510      -0.00117278
O        8.81252323       5.58378677       2.30523898      -0.00195366      -0.00312209      -0.02534136
C        6.81242448       4.23804334       3.52141251       0.01095766       0.00050989      -0.00820089
C        5.42206983       3.69946306       3.74654453       0.00614461       0.00098914      -0.01208517
C        7.85209742       6.18520172       2.71696706       0.01215899      -0.00273418      -0.01065710
C        8.76499057       8.29943125       2.20859477       0.01514250      -0.00512648      -0.00772762
H        7.33731887       3.71214199       2.72391008       0.00157084       0.00485648      -0.01349834
H        7.41672122       4.16692128       4.42539540       0.01177487      -0.00930555      -0.00995156
H        5.49907546       2.67624307       4.12054634       0.00274744       0.00210905      -0.01744530
H        4.87494022       4.28434708       4.48629814       0.00946163       0.00529620      -0.00666419
H        4.84566673       3.68151026       2.82079698       0.00872760       0.00808239      -0.00757468
H        9.47776552       8.56690939       2.98675749       0.01805323      -0.00412202      -0.01087263
H        8.26984960       9.18589811       1.81671696       0.01612157      -0.00477141      -0.00765754
H        9.26116105       7.75650704       1.40741245       0.01078683      -0.00774643      -0.00785589
O        9.57312619       4.53827543      12.60389837       0.00879283       0.00824492       0.00438843
O        7.70883727       5.40753619      13.24980551       0.00511535       0.00303452      -0.00341585
O        9.42187521       6.79447209      12.71533126       0.00853166       0.00828350       0.01939437
C       10.89487745       4.67030926      12.02373784       0.00924148       0.01167953       0.00848313
C       11.44447825       3.27724337      11.86665285       0.00862810       0.01260632      -0.00010753
C        8.94740478       5.68887122      12.84302296       0.00567222       0.00512254       0.00885107
C        6.88624091       6.54801063      13.54843954       0.00228744      -0.00085700       0.00479213
H       10.79034351       5.17375997      11.06363535       0.01133350       0.01753062       0.01144582
H       11.50272093       5.28950295      12.68465641       0.00827917       0.00728482       0.01328194
H       12.42577132       3.32279402      11.39302011       0.00673229       0.01498602      -0.00286982
H       11.56470882       2.77620713      12.82776477       0.01081524       0.00739879      -0.00327444
H       10.78186245       2.68560656      11.23725643       0.00628839       0.01692499      -0.00174712
H        7.43193769       7.28375034      14.12987894       0.00413451       0.00036375       0.00077504
H        6.04954999       6.17193416      14.12681490       0.00854816      -0.00398017       0.01072909
H        6.53583988       7.00997954      12.62694908      -0.00673845      -0.00139770       0.00814870
O        9.68210174       9.35584911       6.37911580      -0.00597499      -0.00631025      -0.00489229
O       10.13893308       7.62122464       5.18679508      -0.00294228      -0.00411284      -0.00545298
O        9.95166027       7.37026111       7.43362307      -0.00542344      -0.00600576      -0.00726593
C        9.50841705       9.99329774       7.66848421      -0.01359544      -0.00605935      -0.00638863
C        9.52332501      11.47535818       7.43972270       0.00448251      -0.00638956      -0.00686997
C        9.92276836       8.04421649       6.43454066      -0.00442727      -0.00732279      -0.00376868
C       10.53290725       6.23897097       5.08529545      -0.00723102      -0.00487190      -0.00827171
H        8.56423792       9.65309224       8.09949906      -0.02145326       0.00214210      -0.01754306
H       10.32141053       9.67658991       8.32155468      -0.02456903      -0.01456994       0.00245783
H        9.36512799      11.99718045       8.38091670      -0.00286139      -0.00400749      -0.00983275
H       10.47977540      11.79082633       7.02066895       0.01217578      -0.01676432       0.00370175
H        8.72203970      11.78430530       6.76942939       0.01697555       0.00114409      -0.01769230
H       11.48246057       6.10481898       5.59884451      -0.00409234      -0.00730421      -0.01531501
H       10.61974784       6.03969005       4.02296844      -0.01496276      -0.00468008      -0.00883034
H        9.77002468       5.60000199       5.52716433      -0.00520912      -0.00318886      -0.00297394
O        4.50192764       9.09744277       3.55684829       0.00876376      -0.00493500      -0.00002073
O        3.44066168       7.33836765       2.92971874      -0.00460774      -0.00674422      -0.00228477
O        5.22807095       7.99705838       1.70431327      -0.01412374      -0.00864421       0.01153082
C        5.67321131       9.94539582       3.57823195       0.01420829      -0.01635128      -0.00882357
C        5.47428897      10.97812823       4.65565741       0.00547782      -0.00141734      -0.02353120
C        4.48660774       8.12719525       2.64094369       0.02185446      -0.01323375      -0.03047913
C        3.26190606       6.25159364       2.02062704      -0.00758560      -0.00100835      -0.00757244
H        6.54032183       9.31751286       3.77491000       0.00608808      -0.01690224       0.01102972
H        5.79636333      10.38682701       2.59285112       0.02523481      -0.03309625      -0.01166677
H        6.29746571      11.69412216       4.62902854       0.01324074      -0.00869070      -0.01899540
H        4.53815699      11.52074293       4.51702048       0.01334885       0.00663824      -0.04382209
H        5.45315645      10.50367509       5.63220340      -0.01314983       0.01130404      -0.01763311
H        2.93148348       6.62464694       1.04970862      -0.01355347       0.00292361      -0.00226894
H        2.50023566       5.61994254       2.46827009      -0.00662437       0.00029194      -0.00331618
H        4.19681553       5.70637539       1.90067553      -0.01159453      -0.00218067      -0.01373921
O        5.48993974      11.06091000      11.37791366      -0.00926797       0.00901155      -0.00185434
O        7.38599913      10.01889621      11.44547469      -0.01034369       0.00703104      -0.00210247
O        7.37316662      12.26229287      11.73810182      -0.00903055       0.00517857       0.00850733
C        4.72868265      12.27662387      11.52228087      -0.00727540       0.01023659      -0.00243063
C        3.27040723      11.91261407      11.62047069      -0.00748134       0.01315218      -0.00417029
C        6.80586426      11.20791769      11.54074884      -0.00960293       0.00678885       0.00209367
C        8.81828564      10.03174321      11.60049854      -0.01162621       0.00615157       0.00562041
H        5.07112024      12.80122813      12.41632451      -0.00732638       0.00937909      -0.00160632
H        4.94170736      12.91973604      10.66453040      -0.00487540       0.00981644      -0.00151819
H        2.66577006      12.81941892      11.64808399      -0.00528847       0.01456943      -0.00007752
H        2.94127125      11.29520793      10.78641026      -0.00952744       0.01783162      -0.00628778
H        3.08366260      11.36066485      12.53426378      -0.00847451       0.01191139      -0.00486214
H        9.28184369      10.47957801      10.72091034      -0.00688478       0.01381958       0.01249492
H        9.11230898       8.99363118      11.70984805      -0.01164324       0.00571057      -0.00131446
H        9.09951726      10.60051046      12.48509780      -0.01686201      -0.00143850       0.01181805
O        3.77791786      11.50878789       0.91981849      -0.00472364       0.00570670      -0.00096224
O        5.63760383      12.60335966       1.11210935      -0.00667593       0.00804394       0.00780958
O        5.70002168      10.54668141       0.17071503       0.00193009       0.00575474      -0.00143482
C        3.05448352      10.25244189       0.72948919       0.00037172       0.00442505      -0.00578956
C        1.57891419      10.52501664       0.68066821      -0.00034669      -0.00212468      -0.01172972
C        5.09353814      11.44961707       0.67614205      -0.00897115       0.01577836       0.00652125
C        7.07504023      12.64732466       1.01969372      -0.00844121       0.01136558       0.00732163
H        3.44354474       9.76165368      -0.16061270       0.00548594       0.00834644      -0.00608978
H        3.28713466       9.63915287       1.59038654       0.00103907       0.00290267      -0.00669003
H        1.05933011       9.56845246       0.60410772       0.00414006      -0.00386044      -0.02124534
H        1.24371380      11.01833739       1.59191647      -0.00820377      -0.00892369      -0.01077488
H        1.29256100      11.14711747      -0.16426212       0.00134955       0.00076167      -0.01031530
H        7.50630300      11.91766124       1.70487180      -0.00663960      -0.00372435      -0.01074778
H        7.35528596      13.65273164       1.31759072      -0.00858981       0.00406702       0.02980789
H        7.39510226      12.43819002       0.00204051      -0.01076454       0.03410323       0.00231490
O        4.91792761       9.76912088       8.60705122      -0.00304275      -0.00060809       0.00409780
O        4.33640403       7.71689962       8.92769752      -0.01181690       0.00460787       0.01925107
O        2.75643889       9.32663609       9.14657271      -0.00640762       0.01173154      -0.00349064
C        4.57740414      11.14853695       8.34077752       0.00341886      -0.00124052      -0.00666554
C        5.85516886      11.92298171       8.17574032       0.00739542      -0.00954378      -0.01007691
C        3.89168913       8.98393937       8.91571253      -0.00758529       0.00620565       0.00585528
C        3.33072496       6.71278896       9.11627157      -0.01772100       0.01174094       0.02500058
H        3.97565977      11.17180660       7.43336207       0.00509122      -0.00552437      -0.00772554
H        3.96936954      11.52552270       9.15668672       0.00395903       0.00737846      -0.01044953
H        5.62077915      12.96395982       7.95452063       0.01439817      -0.01067616      -0.02160426
H        6.46975966      11.90880105       9.07389630       0.00368034      -0.00357506      -0.00764905
H        6.45013883      11.53488059       7.35192983       0.00830600      -0.02168734      -0.00353134
H        2.73787374       6.92094754      10.00515561      -0.01633106       0.02114606       0.02352399
H        3.88000654       5.77953467       9.22655340      -0.02355045       0.00928895       0.03091905
H        2.68237073       6.66250786       8.24233903      -0.01768762       0.01058916       0.02544543
O        7.55256289       2.07434714       9.21481507      -0.00811108       0.00175281      -0.00241236
O        9.66852093       1.62097651       9.30079644      -0.00861401       0.00032812       0.00264928
O        8.27075734       0.09475464       8.38886696      -0.00930574      -0.00424868       0.01631558
C        6.20047826       1.68009586       8.88211834      -0.00780159       0.00259632      -0.00321779
C        5.33113951       2.90562453       8.91608479      -0.00429621       0.00530130      -0.01286790
C        8.46963870       1.16018768       8.92046106      -0.00939369      -0.00454742       0.00499940
C       10.74296153       0.68699940       9.11281005      -0.00979151      -0.00168270       0.00819571
H        6.20928698       1.21284286       7.89762475      -0.00658831      -0.00316241      -0.00010312
H        5.88698366       0.92730231       9.61062258      -0.01167464       0.00820392       0.00038326
H        4.30045936       2.61962021       8.70014550      -0.00410423       0.00734530      -0.01536507
H        5.36525216       3.37781197       9.89486867      -0.00676009       0.01035134      -0.01533176
H        5.65960554       3.62629064       8.16787102       0.00046867       0.00025442      -0.01541318
H       10.56784176      -0.21555778       9.69668122      -0.01376649      -0.00060043       0.00820285
H       11.63582300       1.19543196       9.46385251      -0.01068912      -0.00256257       0.01129524
H       10.84239472       0.41814865       8.06143270      -0.00575662      -0.00265592       0.00922203
O        8.78950748       5.38700533       9.47450456       0.01101632      -0.01877719       0.01068067
O       10.52875083       4.54227505       8.56599243       0.01207058      -0.00904681       0.00445198
O        8.55864884       4.39823983       7.44165466       0.01154214      -0.00683469       0.00486785
C        7.39401936       5.77080433       9.54184437       0.01254891      -0.01318607       0.00916970
C        7.32837521       7.21113907       9.97858360       0.01798914      -0.01207548       0.00349699
C        9.21570470       4.74645993       8.39636025       0.01200807      -0.01073290       0.00728810
C       11.22594730       3.89724227       7.49964531       0.01222900      -0.00160434       0.00039421
H        6.93587579       5.60492152       8.56812826       0.01339920      -0.01449487       0.00931719
H        6.93350763       5.10752772      10.27569717       0.00991018      -0.00932309       0.01041245
H        6.30689012       7.47962128      10.23783353       0.01529188      -0.00038410      -0.02087101
H        7.96467970       7.36748332      10.84562948       0.00048909      -0.01494962       0.01636273
H        7.65547273       7.88358425       9.18751210       0.04467368      -0.02006730       0.00812155
H       11.57558508       2.93022676       7.85560474       0.02254815       0.00144178      -0.00158635
H       12.07414253       4.52672541       7.24018561       0.00535551       0.00579312      -0.00364203
H       10.56943426       3.76578222       6.64274360       0.00916559      -0.00609744       0.00372356
