199
Lattice="13.445183596790676 0.0 0.0 0.0 13.445183596790676 0.0 0.0 0.0 13.445183596790676" Properties=species:S:1:pos:R:3:forces:R:3 energy=-1482754.5 stress="-0.0006961874314583838 -0.00019777753914240748 0.0005715193983633071 -0.00019777753914240748 -0.0014935578219592571 -0.00026874529430642724 0.0005715193983633071 -0.00026874529430642724 -0.0021753590553998947" pbc="T T T"
Fr       8.16794843      13.82532004       0.45897890      -0.00189304      -0.00241990      -0.00414923
Fr       5.34332685      11.77037679       2.92751347      -0.00795130      -0.01594739       0.00813790
S       12.05457838       0.60259366       0.27415625      -0.00813700      -0.00089281       0.03198904
O       13.16650611       0.35538812      -0.65792544      -0.00425720      -0.00657576       0.00337374
O       11.71685357       2.06215911       0.32126953       0.01308523      -0.02992976      -0.00168273
O       10.84216247      -0.16378240      -0.16617298       0.02285349       0.00314951      -0.01735765
O       12.42962253       0.16550116       1.64770627      -0.00522101       0.00302207      -0.04079151
O       12.50672063      10.98678314       2.09166280      -0.01192582      -0.00993815       0.01463491
C       11.59567262      10.19590975       1.35499724      -0.00939757       0.00281304       0.00890002
C       11.92863722       8.74101691       1.62891984      -0.00905597       0.00081629      -0.00173022
C       10.16185731      10.52986906       1.73920022      -0.01087445      -0.00159854       0.00673404
H       11.70660543      10.39438294       0.28044770      -0.00868825       0.00957245       0.00875700
H       11.19411606       8.07997012       1.16715001      -0.00845705       0.00289252      -0.00504678
H       12.91569229       8.47961094       1.24523591      -0.00849755       0.00482556      -0.00299205
H       11.93944185       8.54834850       2.70564591      -0.00809485      -0.00564711      -0.00284503
H        9.45298959       9.90575540       1.19296946      -0.00936165       0.00307345       0.00001726
H        9.97546041      11.57561080       1.49443010      -0.01082565      -0.00027016       0.01671281
H       10.01562591      10.40049071       2.81590152      -0.01292312      -0.01209948       0.00530589
H       12.39880200      11.94445625       1.84984389      -0.00440704       0.00308990       0.00812094
O       13.57356954       4.23761246       3.01735318       0.00802356      -0.03859413      -0.02475080
C       12.55161151       5.06798858       2.44388988       0.01921248      -0.01694947      -0.01027352
C       12.82504845       5.30023860       0.96575402       0.01456283      -0.00487271      -0.00885177
C       11.18808685       4.43625794       2.65231639       0.01158977       0.00453755      -0.00770688
H       12.61629683       6.00706397       3.00049950       0.03483395      -0.02235025      -0.00346923
H       12.03484135       5.90662885       0.51754597       0.02044259       0.00931744       0.00142200
H       13.77601850       5.81531610       0.81903030       0.02040681      -0.01738234      -0.01116218
H       12.84780468       4.33878256       0.44787641      -0.00104340       0.00038570      -0.01763077
H       10.39920985       5.06156839       2.23339352       0.02152447       0.02342080       0.00501651
H       10.98646381       4.29542438       3.71298410       0.01460046      -0.00488636      -0.00881219
H       11.16338543       3.47268733       2.14032346      -0.00814081       0.01166582      -0.01754943
H       13.45894957       3.36735751       2.61664503      -0.00257267      -0.03369875      -0.03560974
O        8.87015198       0.29833802       5.42885362      -0.00291187      -0.01231417       0.00125617
C        8.82575152       1.08412949       4.23585481       0.00566588      -0.00510263       0.00420156
C        8.35197714       2.50224096       4.51271348       0.00828381      -0.00599492       0.01102026
C       10.16203471       1.05306829       3.53064080       0.00605398      -0.00577305       0.00901702
H        8.06802654       0.57916597       3.62306756       0.00487131       0.00066021      -0.00101313
H        8.21545692       3.05333742       3.57943647       0.01644756       0.00032567       0.01383656
H        7.40667423       2.50132354       5.05706186       0.00557482      -0.00571223       0.00538954
H        9.08604426       3.04260848       5.11306599       0.00733995      -0.01314802       0.01837038
H       10.13995564       1.57151132       2.57183913       0.01048637      -0.00554511       0.00937890
H       10.50024479       0.03515507       3.34980465       0.00616247      -0.00592470       0.00876359
H       10.92163514       1.55639900       4.13447357       0.00557258      -0.00732255       0.01197392
H        9.57611660       0.64934296       5.98310608      -0.00199777      -0.01922587       0.00335863
O        3.73001986       0.83780434       3.83439552       0.00749123      -0.00226390      -0.00107154
C        4.41886536       2.09751516       3.92140989       0.00211778       0.00071004       0.00297677
C        4.48198963       2.77535218       2.56442305       0.00064853       0.00287497       0.00413334
C        3.76221867       2.97067030       4.97115740      -0.00285169      -0.00316495       0.00328445
H        5.42915086       1.81804416       4.23862239       0.00242728       0.00522371       0.00388132
H        5.13389925       3.64965195       2.60506262      -0.00440720       0.00637609       0.00715569
H        4.85898341       2.10031338       1.79755687       0.00592870       0.00575705       0.00442491
H        3.48880791       3.11813444       2.26419536      -0.00043520      -0.00212275       0.00251630
H        4.32239078       3.89682412       5.11252448      -0.00626857      -0.00121209       0.00474023
H        3.70621645       2.45609366       5.92897014      -0.00101694      -0.00402963       0.00300580
H        2.75148018       3.23710101       4.65392621      -0.00346430      -0.00651301       0.00328591
H        2.84842735       1.00689663       3.48043097       0.00671369      -0.00513428       0.00192368
O        7.97425798       7.62333713       5.56545757       0.01315457       0.00720555       0.00427473
C        7.45051938       7.35220330       4.27369142       0.00361108       0.00452138       0.00929040
C        7.06815139       8.64758001       3.56111337      -0.00552972       0.00254846       0.01177974
C        8.41769653       6.51561841       3.45627435      -0.00233620       0.00671446       0.00151199
H        6.53281413       6.78598329       4.44815806       0.00654912       0.00286764       0.01759928
H        6.66903550       8.44069403       2.56395750      -0.01711357       0.00019913       0.01740073
H        6.30916129       9.15895315       4.15385715       0.00135031       0.00253092       0.01978290
H        7.94649521       9.28996248       3.45026143      -0.00808948       0.00328839       0.00013611
H        8.00871956       6.27850842       2.47110501      -0.01238003       0.00226626       0.00728464
H        8.64099200       5.58334880       3.97443004       0.00834541       0.00929782       0.00081258
H        9.36038803       7.05049979       3.30967920      -0.00727397       0.01104888      -0.01122177
H        8.84069502       8.04781727       5.45133688       0.01153237       0.00890994      -0.00213940
O       13.37151711       0.03882745      10.10829885       0.01151919       0.00679618       0.02587298
C       12.36184596       0.63183681       9.31793167       0.00716400       0.00066346      -0.00642449
C       11.37875193       1.44642717      10.14367311       0.01277357       0.00162709      -0.00477457
C       13.03146681       1.47399448       8.24136065       0.00862607      -0.00582600      -0.00693983
H       11.79471697      -0.16919537       8.80894088       0.01145518      -0.00283009       0.00345647
H       10.61990099       1.89555314       9.49693992       0.01056541      -0.00203024      -0.00512253
H       10.87960069       0.82759413      10.88859632       0.01292486       0.00492768      -0.00061229
H       11.90203709       2.24139823      10.67984457       0.01132736       0.00562413      -0.00878892
H       12.29873121       1.86190199       7.53063876       0.00647451      -0.01161830      -0.00842536
H       13.76607233       0.87934523       7.69763863       0.00890723      -0.00728373      -0.00419520
H       13.54830594       2.31932269       8.70170130       0.00732446      -0.00233631      -0.01276913
H       13.16972369       0.14920227      11.06398256       0.01538445      -0.00243222      -0.02291930
O        9.42896168       2.60829438      12.69181202      -0.00242786       0.01275855       0.00010651
C        9.03811083       3.78819329      12.01817935       0.00420636       0.01137367       0.00796515
C        7.92376288       3.40488697      11.06096553       0.00751817       0.01718935       0.00074595
C        8.57478516       4.84038243      13.01667569      -0.00137052       0.00771761       0.00967848
H        9.89178913       4.17256844      11.44272254       0.00494844       0.01770297       0.01100358
H        7.63267855       4.24046339      10.42222355       0.00708238       0.02085544       0.00663212
H        8.24361725       2.57780833      10.42977937       0.01094696       0.02278110      -0.00507569
H        7.04031898       3.08204401      11.61884299       0.00672106       0.01110604      -0.00399198
H        8.15962949       5.71347322      12.51257939       0.00160018       0.01055998       0.01265047
H        9.39905843       5.16028471      13.65417931      -0.00512165       0.00346109       0.01613701
H        7.79378521       4.41627065      13.65235331      -0.00537647       0.00455766       0.00278063
H       10.37744921       2.56986506      13.01082684       0.00783858       0.00891555       0.00119784
O       12.43374067       6.55060265       5.88196689      -0.00373149       0.00250942      -0.00722122
C       11.95903286       5.79626555       6.99616614       0.00395334      -0.00317889      -0.00854588
C       11.12414539       6.65296436       7.92915815       0.01013279      -0.00875670       0.00134885
C       11.17708339       4.57324396       6.54133239       0.00268397      -0.00141668      -0.00979233
H       12.86131090       5.46545123       7.52017938       0.00770897      -0.00512317      -0.01621616
H       10.80911208       6.07469307       8.79800063       0.01702284      -0.01322226       0.00067155
H       11.69081597       7.51717868       8.27466261       0.01157272      -0.00983380       0.00136731
H       10.22120851       6.99796505       7.41685795       0.00628565      -0.00754471       0.00941375
H       10.87227235       3.97331822       7.40275191       0.00697196      -0.00543664      -0.01105882
H       11.78311810       3.95855515       5.87555134      -0.00047544       0.00167208      -0.01490089
H       10.27549142       4.89247850       6.01255021       0.00008437       0.00005069      -0.00413455
H       11.71707988       7.12490989       5.57177429      -0.00468548       0.00745803       0.00292860
O        4.06711454       7.77510920       4.89704781      -0.00774367      -0.00525004       0.00808549
C        3.08505378       7.57728320       3.86283211      -0.00431219       0.00124539       0.00405484
C        3.05738490       6.13313333       3.41189647      -0.00413055       0.00377434      -0.00370321
C        1.71876729       8.05861766       4.31108716      -0.00504011       0.00145827       0.00084814
H        3.44542279       8.20175310       3.04202788      -0.00034919       0.00517768       0.00848064
H        2.37781341       5.99337162       2.57043264      -0.00105490       0.00874694      -0.00679159
H        4.05527907       5.79978655       3.12392009      -0.00355306       0.00483779      -0.00231445
H        2.68501997       5.49637801       4.21545057      -0.00662214      -0.00057036      -0.00838327
H        1.00135184       7.99930113       3.49034809      -0.00183150       0.00641723      -0.00214744
H        1.76352853       9.09308016       4.65449155      -0.00489223      -0.00029187       0.00543978
H        1.32627792       7.42917986       5.11448358      -0.00944417      -0.00121692      -0.00348303
H        3.90566548       7.11809592       5.58238035      -0.01407944      -0.00577492       0.00628421
O        7.06744553      12.91059006      11.12695293      -0.01108038      -0.00825214      -0.00453824
C        7.30324572      11.49740967      11.23340316      -0.00347126      -0.00754872      -0.01831250
C        6.20432880      10.83131848      12.03862544       0.00299025      -0.02051374      -0.02086660
C        7.46973245      10.86972227       9.86532035      -0.00521512       0.00648645      -0.02434993
H        8.24563207      11.41470346      11.78058248      -0.00182956      -0.00771466      -0.02247402
H        6.42829028       9.77566504      12.19576286       0.00868722      -0.02042970      -0.03232077
H        6.08562994      11.31424031      13.00838219       0.00645996      -0.03096525      -0.01570857
H        5.25309859      10.90978060      11.50429291      -0.00010386      -0.02121192      -0.01517515
H        7.67318577       9.80441052       9.96701654       0.00194338       0.00710292      -0.03538436
H        8.29465783      11.33316222       9.32497879      -0.01024121       0.01638928      -0.02281550
H        6.55884037      10.98949228       9.27372390      -0.00792968       0.00604691      -0.01977419
H        6.16231768      13.05749042      10.82986533      -0.01069576      -0.00969125      -0.00376137
O        3.64675550      11.51341026       0.28070943      -0.00027633      -0.00008494      -0.00424421
C        2.26485700      11.42898880       0.73982349       0.00029719       0.00454462      -0.00820994
C        2.07152312      10.14865451       1.52274071      -0.01150773       0.00420147      -0.01279145
C        2.02483362      12.65714183       1.57902205       0.00615866       0.00207382      -0.00676325
H        1.60017788      11.45956071      -0.12765338       0.00035679       0.00957234      -0.01203763
H        1.05276062      10.10715804       1.90472925      -0.01199615       0.00946389      -0.01422346
H        2.25772562       9.26265675       0.90780233      -0.01437082       0.00331486      -0.01171165
H        2.75974275      10.12873387       2.37359055      -0.01435758       0.00085517      -0.01006643
H        0.98132374      12.71774311       1.87898851       0.00333264       0.01430612      -0.01391475
H        2.24205161      13.55881539       1.00539601       0.02550323       0.00276564       0.00024045
H        2.65608814      12.61855153       2.47033769      -0.00244692      -0.01052487      -0.00268603
H        3.80555777      10.75482716      -0.28848425       0.00177387      -0.00006184      -0.00365052
O        4.21489851       2.54156729      11.21710220      -0.01939344      -0.01045251       0.00981393
C        4.09462971       3.96221822      11.03854857      -0.00846228      -0.00847057       0.00509274
C        3.24593217       4.29314158       9.82365053      -0.00770736      -0.00736474       0.00485826
C        3.57695433       4.61573697      12.30915996      -0.00575995      -0.00326675       0.00333643
H        5.11891075       4.29605140      10.85492433      -0.00885326      -0.01473030       0.00411297
H        3.17878298       5.37458406       9.68675950       0.00018478      -0.00711280       0.00151294
H        3.68004984       3.85865760       8.92347267      -0.01111320      -0.01222835       0.00578713
H        2.23047719       3.90972352       9.95416021      -0.01004700       0.00053706       0.00611364
H        3.53199799       5.70079227      12.19622411       0.00250245      -0.00311586       0.00068535
H        4.22540090       4.38032597      13.15426933      -0.00785024      -0.00510952       0.00440596
H        2.56896908       4.25983482      12.53686500      -0.00795704       0.00465725       0.00359075
H        3.32389807       2.18710000      11.31925414      -0.01469010      -0.00422378       0.01075075
O        1.43850829       8.99879593       7.95649485      -0.01518062       0.01221853       0.00168657
C        2.44355334       9.93326849       8.36533149      -0.00758302       0.00341241       0.00014314
C        3.49223175       9.25746240       9.23751877      -0.01217028      -0.00444272      -0.00092375
C        3.08261383      10.60387816       7.16185029      -0.00773916       0.00341281       0.00073546
H        1.89993038      10.67295037       8.95787240      -0.00102139       0.00624564       0.00336152
H        4.19856525       9.99578418       9.62353275      -0.00715443      -0.00918253      -0.00169277
H        3.02553776       8.74368861      10.07833957      -0.01688087       0.00195607       0.00034811
H        4.06266709       8.52689270       8.65710744      -0.01754779      -0.01048960       0.00127147
H        3.80442831      11.36026369       7.47668104      -0.00350249      -0.00045878       0.00004995
H        2.32688350      11.08496480       6.53992611      -0.00719412       0.00818045       0.00375856
H        3.60920619       9.85435160       6.56352831      -0.01370682       0.00040343      -0.00033212
H        1.80726599       8.45876817       7.24961887      -0.02018268       0.00759803       0.00130536
O        9.70115891       9.31320355      12.11609293      -0.00236583       0.00912529      -0.00527036
C       10.00496437       7.95331448      11.76889933      -0.00113727       0.00824118       0.00007701
C        9.06772591       7.47257905      10.67379676       0.00377625       0.00537400      -0.00250208
C       11.46798926       7.80269076      11.39887740       0.00025213       0.00709091       0.00611241
H        9.80276445       7.38340052      12.68019554      -0.00466959       0.01059484       0.00040191
H        9.21536447       6.41172503      10.46553633       0.00408678       0.00479437       0.00164384
H        8.02868865       7.62163170      10.97201231       0.00274888       0.00721784      -0.00772840
H        9.24519562       8.02418469       9.74883718       0.00839441       0.00237259      -0.00330818
H       11.70506458       6.76455839      11.16030642       0.00119675       0.00634697       0.01123835
H       12.10994884       8.12514802      12.21870933      -0.00295518       0.01055789       0.00702575
H       11.70239662       8.40401733      10.51639236       0.00330276       0.00360370       0.00450675
H       10.24136711       9.88498053      11.56073744       0.00460136       0.00757065       0.00062451
O       10.63764116       8.76025158       5.19688658       0.00463270       0.00909951       0.00724548
C       11.27175474       9.71503077       6.10719999       0.00195423       0.00710934       0.01056576
C       12.10976480      10.69790326       5.32560775       0.00225443       0.00889578       0.01408106
C       10.19803372      10.37591479       6.94536058      -0.00090045       0.00449374       0.00887045
H       11.92483748       9.11314587       6.74157708       0.00049737       0.00644216       0.01143500
H       12.64280868      11.35853363       6.01038380       0.00128341       0.00798168       0.01590966
H       12.84205456      10.18485376       4.70188365       0.00342430       0.01022352       0.01424439
H       11.49109599      11.31184525       4.66717091       0.00293177       0.00910831       0.01423755
H       10.66218250      11.00628860       7.70754778      -0.00316326       0.00198425       0.01229361
H        9.57930986       9.62657423       7.44221297      -0.00274849       0.00344369       0.00453147
H        9.55332725      11.00219570       6.32408985       0.00155517       0.00649089       0.00872822
H       10.72249257       9.11094367       4.30320536       0.01977883       0.00459328       0.00640622
O        5.75452899       2.98226367       7.61626754      -0.00383598       0.00213462       0.01295805
C        6.02123472       1.83048420       8.43304443      -0.00409479      -0.00173116       0.00673243
C        4.94383500       0.77588441       8.23163242      -0.00417417      -0.00052530       0.00130808
C        7.40653546       1.28355673       8.15111392      -0.00425476      -0.00075501       0.00440323
H        5.95542274       2.20738031       9.45404130      -0.00400894      -0.00711051       0.00863624
H        5.12189714      -0.09031600       8.87544201      -0.00423720      -0.00374105      -0.00330060
H        3.95745409       1.17729503       8.46336376      -0.00423305      -0.00187238       0.00356270
H        4.94911419       0.41700247       7.19763288      -0.00411137       0.00504943      -0.00030778
H        7.68765550       0.53171144       8.89008392      -0.00426625      -0.00309843       0.00155938
H        8.14318089       2.08890779       8.17620866      -0.00431491      -0.00082055       0.00707416
H        7.44282996       0.81975744       7.16404870      -0.00427001       0.00271039       0.00272496
H        5.92389503       2.72452828       6.70501713      -0.00104728       0.00756223       0.01159649
