197
Lattice="14.43623111532088 0.0 0.0 0.0 14.43623111532088 0.0 0.0 0.0 14.43623111532088" Properties=species:S:1:pos:R:3:forces:R:3 energy=-795969.6875 stress="0.0005340641946531832 -3.17952326440718e-05 0.00011639594231382944 -3.17952326440718e-05 0.0007876248564571142 0.00014067436859477311 0.00011639594231382944 0.00014067436859477311 0.0003635986940935254" pbc="T T T"
Gd      14.21269378      14.31303807       4.07704350      -0.01506835      -0.00489956       0.01511861
Gd       4.75643803      12.98270541       6.78528480      -0.00690016       0.00159959      -0.00836101
O        8.68321162      13.12016997       7.38573200      -0.01832700      -0.02515543       0.00358614
O        6.51976420      11.92030062       6.20782460      -0.00915857      -0.00293663      -0.00969815
O        6.13944177      13.06800886       8.41299066      -0.00946450      -0.00965357      -0.00650126
O        7.78693823      10.84071610       8.40580489      -0.01718503      -0.03364527      -0.00349623
Cr       7.42134319      12.19499852       7.65770297      -0.00648391       0.01675043      -0.02076244
O        2.92868644      14.37077006       7.36122419      -0.00255341       0.00397965       0.00750530
O        1.73416807      15.27859944       4.97297105      -0.01866470       0.00540566       0.01093306
O        0.53343287      13.41160747       6.19684611      -0.01274133       0.00498167       0.01293150
O        3.05914273      12.95186490       5.28999160      -0.02091860       0.00681314       0.00362504
Cr       2.04153582      14.03545093       6.01091981      -0.01149025       0.00763098       0.01270990
O        0.53419938      12.10403318       0.72536140      -0.02907377       0.02789313      -0.02524340
O        0.40894319      12.36690390       3.44930043      -0.03438227      -0.00502950      -0.02160341
O        0.64047818      14.49535640       2.13235842      -0.02008137       0.01714355       0.00932249
O        2.73071351      12.73519239       2.04868827      -0.03372812      -0.00348850       0.01225822
Cr       1.15009242      12.85206243       1.97862822      -0.02103007       0.01901639      -0.00118548
C        9.27109165       2.85507189      13.59721972       0.00220812       0.00005114       0.00055885
C        8.04985578       1.95250358      13.47847892       0.00230059      -0.00006461      -0.00107184
C       10.59014784       2.09149154      13.60950366       0.00239938       0.00014484       0.00091209
C        6.72769082       2.70596458      13.56627762       0.00208291      -0.00068843       0.00044334
C       11.80820717       3.00376647      13.65224795       0.00230658       0.00025937       0.00195420
C        5.51631498       1.79690364      13.41740037       0.00212762      -0.00005692      -0.00379210
H        9.27189897       3.57375513      12.76967537       0.00259029       0.00067447       0.00116268
H        9.19459517       3.45127424      14.51479885       0.00157671      -0.00067616       0.00114605
H        8.08135784       1.19070145      14.26689590       0.00241919      -0.00150016      -0.00247151
H        8.09508087       1.40361632      12.53038393       0.00243066       0.00171173      -0.00212771
H       10.60266831       1.41922402      14.47321309       0.00223038      -0.00037634       0.00059825
H       10.64437235       1.44388346      12.72827758       0.00289618       0.00052328       0.00058609
H        6.67838769       3.22817221      14.52783962       0.00088909      -0.00394057       0.00222367
H        6.70375567       3.48490143      12.79637762       0.00281815       0.00226519       0.00348759
H       11.86095490       3.62909564      12.75816904       0.00249239       0.00112163       0.00244175
H       12.73723537       2.43605810      13.71552092       0.00231820      -0.00001669       0.00100412
H       11.76656684       3.67135828      14.51610903       0.00264638      -0.00104707       0.00324465
H        5.49958156       1.32031916      12.43519063       0.00201398       0.00445542      -0.00595254
H        5.52866551       1.00288845      14.16656851       0.00113717      -0.00334734      -0.00722142
H        4.58254954       2.34788669      13.53756013       0.00220931      -0.00055504      -0.00159665
C       12.17326235       8.76807550       9.28927679      -0.00333911      -0.00069395      -0.00002715
C       10.93302662       8.91744782      10.16250153      -0.00364316       0.00106439      -0.00066438
C       11.91981195       7.98971611       8.00329504      -0.00365955       0.00031759      -0.00059816
C       11.19857273       9.69122853      11.44946230      -0.00357240       0.00136974      -0.00079969
C       13.15914302       7.87366691       7.12605649      -0.00270817      -0.00249561       0.00082862
C        9.96106321       9.82771670      12.32614066      -0.00349218       0.00268275      -0.00097102
H       12.56045989       9.76205176       9.03717720      -0.00125738      -0.00128222       0.00102591
H       12.96696029       8.27149048       9.86137024      -0.00473133      -0.00250784       0.00063701
H       10.54684915       7.92155146      10.41406281      -0.00554811       0.00196338      -0.00090951
H       10.14119283       9.41822253       9.59430473      -0.00271726       0.00217879      -0.00157245
H       11.55218298       6.98912474       8.25815816      -0.00649354       0.00117618      -0.00163263
H       11.11293252       8.47642808       7.44550342      -0.00166038       0.00262915      -0.00162692
H       11.99857342       9.19749665      12.01218481      -0.00415644       0.00043558      -0.00039655
H       11.57760324      10.68616923      11.19452269      -0.00225185       0.00072917      -0.00090691
H       13.52563501       8.86001427       6.83461645       0.00067389      -0.00334057       0.00233449
H       12.95773667       7.31343110       6.21107216      -0.00321708      -0.00108770       0.00001968
H       13.96931599       7.36713242       7.65667139      -0.00492494      -0.00547175       0.00142768
H        9.15901360      10.33602395      11.78820751      -0.00304636       0.00376207      -0.00138563
H        9.58537022       8.84695726      12.62648399      -0.00490868       0.00334854      -0.00107279
H       10.17018289      10.39449511      13.23495212      -0.00322134       0.00284150      -0.00114062
C        2.85621005       9.77647106       4.32298198       0.00436592      -0.01057144       0.00205338
C        3.41935348       9.83942488       5.73731752       0.00738406      -0.00068071       0.00064600
C        3.91383374       9.46188859       3.27138863       0.00317353      -0.01114636       0.00088848
C        2.37476908      10.12872151       6.81099371       0.00814277       0.00232914       0.00109780
C        3.34754501       9.41394076       1.85790884      -0.00092110      -0.01633135       0.00258178
C        2.99121942      10.31439488       8.19394726       0.00829687       0.01111099      -0.00038719
H        2.06039964       9.02263223       4.28341005       0.00903960      -0.01566637       0.00770373
H        2.38505195      10.73056381       4.08031030      -0.00159015      -0.01415190      -0.00235145
H        4.22295303      10.59843648       5.76734380       0.00638366       0.00032227      -0.00564463
H        3.92328182       8.89804029       5.97982250       0.00971124       0.00145248       0.00483724
H        4.69757204      10.22390353       3.32108340       0.00246683      -0.01028875      -0.00340811
H        4.39825614       8.50917680       3.51354154       0.00482295      -0.00995511       0.00279149
H        1.78453784      11.00654214       6.53254053       0.00636831       0.00000629      -0.00302578
H        1.66816802       9.29337004       6.84944198       0.01020986       0.00107244       0.00631911
H        2.57855504       8.64326885       1.76852287      -0.00106944      -0.01702036       0.00867448
H        4.12562572       9.19766554       1.12329231      -0.00330268      -0.01906217       0.00073630
H        2.89561465      10.36959576       1.58915687      -0.00223207      -0.01699418       0.00159364
H        3.59365983       9.44857499       8.47796357       0.01607680       0.01636560      -0.00090340
H        3.67227913      11.18498344       8.24580182      -0.00363450       0.02000185      -0.00144619
H        2.23505530      10.47308750       8.96468157       0.00824046       0.00271925       0.00110881
C        8.60795836       4.71855535       8.47821600       0.00070995      -0.00030306      -0.00032252
C        7.50602151       5.76407733       8.60170585       0.00409418       0.00317350       0.00086415
C        8.97315849       4.04500008       9.79532053       0.00003844      -0.00137681      -0.00057924
C        7.21868525       6.46882548       7.28176960       0.00533172       0.00500699       0.00164184
C       10.08214448       3.01262081       9.64231006      -0.00222167      -0.00376481      -0.00136102
C        6.12660367       7.52424838       7.36871468       0.00813693       0.00783229       0.00306711
H        8.30381754       3.95348728       7.75347887      -0.00230354       0.00071335      -0.00010756
H        9.50450861       5.19227070       8.05876976       0.00188115      -0.00301626      -0.00122228
H        7.78884684       6.50962881       9.35336626       0.00713679       0.00212780       0.00101617
H        6.59041097       5.28829082       8.97308661       0.00288388       0.00603580       0.00149766
H        9.27752093       4.81348236      10.51422151       0.00207141      -0.00211981      -0.00059287
H        8.08174104       3.56991735      10.21900405      -0.00082672       0.00044082      -0.00013608
H        8.14327735       6.93603410       6.92624244       0.00638175       0.00273685       0.00142198
H        6.94882207       5.71895224       6.53001531       0.00278717       0.00632638       0.00103071
H        9.78402451       2.21189926       8.96280771      -0.00408691      -0.00284714      -0.00146870
H       10.34363131       2.55672142      10.59828217      -0.00276259      -0.00462222      -0.00144467
H       10.98699319       3.47280569       9.23770301      -0.00127365      -0.00552873      -0.00147092
H        5.17845398       7.08097169       7.68377056       0.00705576       0.01014143       0.00282755
H        6.38940444       8.31131459       8.07825382       0.01056030       0.00652537       0.00401834
H        5.96545623       8.00206957       6.40164735       0.00939725       0.00970698       0.00390676
C       12.46699848       8.78018462       2.88467100       0.00165361       0.00430793      -0.00062045
C       11.11132823       9.31169306       3.33360102       0.00143665       0.00179161       0.00197756
C       12.37957239       7.88645881       1.65194936       0.00131547       0.00297419       0.00034797
C       11.17601315      10.23933852       4.54191240       0.00196016       0.00530089      -0.00080061
C       13.72732850       7.32058020       1.22534627       0.00178161       0.00487074      -0.00089239
C        9.80402248      10.71465134       5.00121706       0.00191903       0.00247143       0.00180602
H       13.14274572       9.61812694       2.67945179      -0.00079693       0.00584623      -0.00261395
H       12.92494612       8.21867874       3.70809971       0.00466508       0.00601518      -0.00113970
H       10.44781372       8.47007997       3.56698708       0.00456758       0.00040573       0.00613725
H       10.63751474       9.84041905       2.49789576      -0.00277229      -0.00194305       0.00194246
H       11.68061881       7.06556105       1.84980744       0.00298628       0.00193429       0.00196801
H       11.94483368       8.45954227       0.82617266      -0.00077808       0.00156340       0.00033683
H       11.68082145       9.71898092       5.36200230       0.00661452       0.00984554      -0.00067523
H       11.81625304      11.09909847       4.29876502      -0.00136854       0.00696772      -0.00520681
H       14.42659030       8.12271685       0.98446718       0.00029637       0.00595284      -0.00200864
H       13.63601419       6.67838866       0.34729552       0.00205474       0.00417084      -0.00050873
H       14.17310923       6.72537709       2.02582387       0.00370134       0.00606193      -0.00103787
H        9.27104476      11.21940283       4.19207012      -0.00169181      -0.00040580       0.00238092
H        9.18121797       9.87510860       5.31882500       0.00489312       0.00087646       0.00447088
H        9.86233838      11.41069153       5.83929472       0.00159238       0.00374237       0.00080493
C        9.56405763      12.83775355       1.43463451       0.00096063       0.00524011       0.00604954
C        8.11550770      13.03569964       1.85327893      -0.00139195       0.00065598       0.00141615
C       10.54923616      13.72829003       2.18502669      -0.00512149       0.01197934       0.00637591
C        7.14064862      12.17657046       1.05761202       0.00170098      -0.00053504      -0.00187010
C       11.96067659      13.62169360       1.62466028      -0.00277117       0.01665197       0.01177770
C        5.68906830      12.44797920       1.41397024      -0.00028974      -0.00423922      -0.00467803
H        9.84783233      11.78682433       1.56095279       0.00628237       0.00694683       0.00985203
H        9.65535255      13.04621457       0.36173890       0.00400240       0.00303359       0.00584304
H        7.85042502      14.09238681       1.72310348      -0.00272977       0.00047621       0.00120153
H        8.00035166      12.82673281       2.92279337      -0.00328019      -0.00031281       0.00094494
H       10.19971111      14.76475941       2.11529663      -0.00829387       0.01038972       0.00194255
H       10.53382628      13.47189669       3.25431352      -0.00708055       0.01691602       0.00759563
H        7.30188806      12.35257421      -0.01190604       0.00388557       0.00078923      -0.00145039
H        7.37565521      11.11988384       1.22795823       0.00360785      -0.00034195      -0.00255124
H       12.43240463      12.66003556       1.85152914       0.00234775       0.02209890       0.02405706
H       12.61733112      14.42866217       1.97582392      -0.00999170       0.02579067       0.00336986
H       11.96137280      13.72053404       0.53660188       0.00099482       0.00349652       0.01075450
H        5.50247739      12.27909098       2.47527895      -0.00239123      -0.00694603      -0.00546825
H        5.41299507      13.48364362       1.20624524      -0.00224237      -0.00445499      -0.00347866
H        4.99756990      11.81534633       0.85988481       0.00228141      -0.00514497      -0.00737399
C        2.61054867       4.34435868      11.05207534       0.00030226      -0.00085308       0.00005052
C        1.44029312       3.38737438      11.24547288       0.00007379      -0.00030009       0.00206704
C        2.20195644       5.81331724      11.05827964      -0.00032222      -0.00068827       0.00038352
C        1.84846812       1.91806908      11.23940836      -0.00007993      -0.00015211      -0.00101691
C        3.37733922       6.76152449      10.86294931       0.00018257      -0.00041145       0.00040224
C        0.67474103       0.97664643      11.47164145      -0.00023204       0.00051677       0.00111270
H        3.35249401       4.17286145      11.84126575       0.00074765      -0.00062916      -0.00067997
H        3.11730041       4.11378131      10.10778554      -0.00068830      -0.00021963      -0.00062835
H        0.69796220       3.55894935      10.45655248      -0.00161564       0.00235535       0.00436169
H        0.93645277       3.61948873      12.19117713       0.00298099      -0.00217116       0.00365934
H        1.45926325       5.98157905      10.27102935      -0.00046729      -0.00062231       0.00040326
H        1.69697493       6.04081392      12.00296095      -0.00024827      -0.00088877       0.00039998
H        2.33000885       1.67944728      10.28615599      -0.00293809       0.00235911      -0.00241801
H        2.60565914       1.75299980      12.01252238       0.00369401      -0.00165643      -0.00508523
H        4.12365963       6.62739552      11.64869962      -0.00054602      -0.00004642       0.00151102
H        3.06274355       7.80589410      10.87808331      -0.00036894      -0.00014454      -0.00044358
H        3.87452162       6.57988544       9.90819172       0.00066610      -0.00148270       0.00069927
H        0.20390409       1.17055086      12.43728968       0.00325259      -0.00148860       0.00343004
H       -0.08767466       1.10389072      10.69978640      -0.00161128      -0.00087127       0.00263360
H        0.98911254      -0.06724472      11.46208915      -0.00345365       0.00042534      -0.00652563
C        3.53824166       1.91215999       2.50547756       0.00894115       0.00154614      -0.00496712
C        4.48096302       2.07965400       3.69112910       0.00017333      -0.00347233       0.00249594
C        2.85620740       3.20973306       2.08305105       0.00511177       0.00239831       0.00407000
C        5.24284679       0.80017627       4.02689803       0.00081068      -0.00252327       0.00369057
C        1.78275587       3.00142563       1.02034738       0.01113686       0.00860403      -0.00294304
C        6.01138468       0.88249718       5.34667172      -0.00467339      -0.00115120       0.00679529
H        4.08148774       1.49239237       1.65189440       0.01768446       0.01433787      -0.00555986
H        2.77678831       1.17196966       2.76280038       0.01104975      -0.00564638      -0.01799233
H        3.89445452       2.39164590       4.56195958      -0.00665385      -0.00783062      -0.00040945
H        5.19780148       2.88725168       3.49359787       0.00049850      -0.00148273       0.01181496
H        2.40486730       3.68030632       2.96404653      -0.00062132      -0.00850548       0.00682601
H        3.61048470       3.91523776       1.71637519       0.00375560       0.00936225       0.01499371
H        4.53505820      -0.03803248       4.03980372       0.00136137      -0.00339717      -0.00005848
H        5.94534302       0.57094177       3.22046825       0.00497675      -0.00115483       0.00642884
H        2.18967646       2.49656789       0.14081662       0.01732641       0.01950172      -0.00651520
H        1.34742976       3.94759919       0.69212934       0.00901480       0.01021677       0.00412248
H        0.98145107       2.36431170       1.39939885       0.01260500       0.00168657      -0.01224801
H        6.70715003       1.72678460       5.34517829      -0.00363542      -0.00175631       0.00807835
H        5.33728173       1.06153468       6.20194814      -0.00850722       0.00174665       0.00330395
H        6.62468456      -0.01154498       5.52801293      -0.00598608      -0.00097033       0.01152375
C        9.95819174       5.24453532       4.44948558       0.00533813      -0.00877357      -0.00134836
C       10.66302879       3.91393775       4.69282169       0.00196761      -0.01147187      -0.00795428
C        8.54069676       5.06760175       3.91153042       0.00437480      -0.00322020       0.00026304
C       12.09910013       4.04609778       5.18931791       0.00272614      -0.01523590      -0.00941758
C        7.84670317       6.38035329       3.57207491       0.00809628      -0.00069824       0.00284985
C       12.83401338       2.70234952       5.23604686       0.00027032      -0.01634979      -0.01970899
H        9.92700199       5.82714289       5.37780589       0.00884151      -0.01263832       0.00132006
H       10.54419747       5.83849234       3.73794115       0.00608611      -0.00744845       0.00031325
H       10.66188808       3.34316692       3.75595797      -0.00085741      -0.00774381      -0.01049840
H       10.08431933       3.31992546       5.40966663       0.00191061      -0.01367165      -0.00976726
H        8.57712768       4.43325929       3.01889672       0.00150260      -0.00207339      -0.00077158
H        7.94721146       4.51512017       4.64731088       0.00376825      -0.00256702       0.00021026
H       12.64892422       4.73141240       4.53631216       0.00252305      -0.01293321      -0.00694421
H       12.10687073       4.50188820       6.18444570       0.00540766      -0.02152026      -0.00650883
H        7.79185717       7.03759141       4.44157459       0.01053893      -0.00187904       0.00398847
H        6.82739688       6.21443348       3.21884071       0.00745630       0.00277619       0.00321215
H        8.38540655       6.91823560       2.78914932       0.00936595      -0.00099688       0.00346063
H       12.31717187       1.99815651       5.90287978      -0.00136431      -0.01854452      -0.02288775
H       12.84852437       2.28181229       4.21535519      -0.00333270      -0.00708146      -0.02363569
H       13.86690827       2.81406622       5.58352978       0.00128162      -0.02137254      -0.02060880
