197
Lattice="14.057248210216892 0.0 0.0 0.0 14.057248210216892 0.0 0.0 0.0 14.057248210216892" Properties=species:S:1:pos:R:3:forces:R:3 energy=-1009766.3125 stress="-0.0011157800909131765 0.00030514312675222754 -3.0372472792805638e-05 0.00030514312675222754 -0.0023074066266417503 0.00017645832849666476 -3.0372472792805638e-05 0.00017645832849666476 -0.00019404223712626845" pbc="T T T"
Gd       3.94456788      13.98436002       0.47096877       0.01125392      -0.00398539       0.00551800
Gd       7.60175229      11.93792568       2.57838633       0.00439844      -0.00234981      -0.00130638
O       15.43583844      11.43064333      12.64053838       0.00558104       0.00489724       0.01085672
O       16.06368256      12.95800609      14.81823303       0.00455560       0.00398684       0.00829506
O       14.30372745      13.80899131      12.90603545       0.00175774       0.00212258       0.00567862
O       17.04142091      13.68692744      12.58594624       0.00478929       0.00143194       0.00842571
Cr      15.59470028      12.92749586      13.17431801       0.00397587       0.00384212       0.00858384
O        7.45854435      12.38457621      14.26490017       0.00936303       0.01045987       0.00018816
O        8.70525110      14.21640020      12.77911861       0.00038072       0.01433212      -0.00294935
O        6.44335314      13.03735695      11.56455694       0.00569844       0.00032276       0.00151318
O        8.78079934      11.68925297      12.08209873       0.01389384       0.01256257       0.00128719
Cr       7.91998753      12.84073677      12.76275285       0.00814569       0.00863302      -0.00017828
O        7.23213917      10.53371588       6.53305106      -0.00207484       0.00014246      -0.00124860
O        6.21655137      11.83199767       4.33205407       0.00239635       0.00377745      -0.00109079
O        8.74296679      11.65400729       4.55447298       0.00139892      -0.00463685      -0.00086297
O        7.41961330      13.16103910       6.41532718       0.00649369      -0.00054586      -0.00087577
Cr       7.40172921      11.80031106       5.55730814       0.00177224      -0.00040470      -0.00102770
S        3.59836011       6.94413274       1.91759441      -0.00388682      -0.02025032       0.00143889
O        4.40297171       8.10212885       1.40091042       0.00392491      -0.02563393       0.00255191
C        1.86428622       7.48043166       1.94154751      -0.00000495      -0.00900275      -0.00260387
C        3.88512659       6.92099690       3.67956230      -0.00709818      -0.02006532       0.00220656
H        1.58161032       7.70211302       0.91335974       0.00382591      -0.00819638      -0.00331755
H        1.74226235       8.36288977       2.56739631       0.00516018      -0.00723629      -0.00435743
H        1.24840219       6.67176136       2.33507632      -0.00663571      -0.00401451      -0.00294995
H        3.18653354       6.24863698       4.17391985      -0.01360697      -0.01291990       0.00240918
H        3.76050240       7.93079436       4.06693049       0.00068672      -0.01838140      -0.00007308
H        4.90769741       6.58666241       3.86538884      -0.00980133      -0.02700099       0.00370588
S        5.90823320      12.08300141      10.51945123       0.00718688      -0.00626916       0.00275703
O        5.41023236      10.83566297      11.02932516       0.01474196      -0.00525761       0.00558302
C        4.62978145      13.03561324       9.77961125       0.00458124      -0.01198518       0.00415987
C        7.16469385      11.84884406       9.32446585       0.00744864      -0.00002701       0.00313744
H        3.90213382      13.22718168      10.57460307       0.00487153      -0.01012455       0.00534555
H        4.20178657      12.43254707       8.98109852       0.00205617      -0.01737207       0.00710857
H        5.05619981      13.95614872       9.38512941      -0.00099179      -0.01171947      -0.00241883
H        7.36000016      12.79077338       8.81322730       0.00883809       0.00180820       0.00617953
H        6.83995674      11.10967565       8.58974413       0.00685787       0.00187156      -0.00205965
H        8.04400047      11.48922362       9.85937173       0.00854412      -0.00420375       0.00032774
S        4.78182157      10.88507954       1.71890142       0.00347683      -0.01788390      -0.00000399
O        5.10510804      12.42647299       1.73155977       0.00684234      -0.01873070      -0.00466565
C        4.10425078      10.60180186       0.07054416      -0.00431445      -0.01657504       0.00349295
C        3.35813590      10.81069549       2.79419115       0.00744307      -0.01074184       0.00585496
H        4.43007603       9.62640381      -0.26595724      -0.02484822      -0.02507335       0.00930454
H        4.54014718      11.37125713      -0.57229221       0.01030681      -0.02906840      -0.00077433
H        3.01988163      10.68071948       0.07042202      -0.00228608       0.00582824       0.00603661
H        3.03962101       9.77881898       2.86348729       0.01186462      -0.01110643       0.02080281
H        2.58907367      11.45620846       2.36714916       0.00383820      -0.01794377       0.00177035
H        3.72053046      11.17916657       3.75306368       0.01071288       0.00252148      -0.00066353
S        5.87873130       1.91371427      12.38275120       0.00081727       0.00568569      -0.00468493
O        5.83557394       0.86596241      13.50610957      -0.00269761       0.00776079      -0.00278273
C        6.91010958       3.24579779      12.98687780       0.00452316       0.00208220      -0.00409076
C        4.29796139       2.72052697      12.54507870       0.00252742       0.00868574      -0.00831659
H        7.93813672       2.88882523      12.97771670       0.00267895      -0.00272709      -0.00002505
H        6.58904196       3.51645883      13.99298577       0.00220573       0.00522578      -0.00570096
H        6.78622191       4.08927189      12.30650631       0.01039534       0.00116736      -0.00591293
H        4.26619021       3.49488206      11.77649611       0.00232709       0.00397588      -0.01318257
H        4.22461867       3.12895291      13.55640767       0.00333816       0.01497234      -0.01096430
H        3.54003557       1.95355540      12.35830179       0.00211035       0.00796960      -0.00206961
S        4.93567298       8.41427210       7.11147806      -0.00084674      -0.00151181      -0.00612327
O        3.83713876       7.53414419       6.58341329      -0.00505924      -0.00052208      -0.00025788
C        4.77865732       8.34565741       8.90767355       0.01044105      -0.00378585      -0.00529891
C        4.34036241      10.10801823       6.91111076      -0.00079679      -0.00110191       0.00030561
H        5.09691255       7.34995213       9.21400083       0.01243721      -0.00376181      -0.00826010
H        3.73535813       8.51470687       9.17840028       0.01206154      -0.00432935       0.00071025
H        5.41719327       9.09637464       9.36719629       0.01299883      -0.00398137      -0.00863166
H        5.02682796      10.79057807       7.40320945       0.00404497      -0.00294724      -0.00415438
H        3.32890882      10.17613999       7.30867914       0.00218183      -0.00051673       0.00782766
H        4.36896963      10.33348872       5.84656261      -0.00891624       0.00009003       0.00059074
S        8.00173504       7.33089891      12.59717229       0.00382102       0.00228226      -0.00003994
O        9.07941691       7.35019537      13.64638737       0.00810421       0.00574438      -0.00390530
C        8.62052962       8.25044580      11.18193017      -0.00394070       0.00229436      -0.00312230
C        6.77815222       8.54140719      13.10760468       0.00259539      -0.00111008       0.00439271
H        9.36762983       7.63841356      10.68094284      -0.00437437       0.00363426      -0.00509945
H        9.02585736       9.20015934      11.53278267      -0.00475071       0.00376835      -0.00603074
H        7.79389017       8.41792427      10.49089534      -0.00726788      -0.00066058       0.00029700
H        6.06385734       8.67876203      12.29583206      -0.00018850      -0.00274854       0.00669921
H        7.28982238       9.48253526      13.31885669       0.00075729       0.00025685       0.00277789
H        6.27310511       8.16117090      13.99361521       0.00661492      -0.00274588       0.00563982
S       10.10409333      10.19223421       0.64897508       0.00644642       0.00390811      -0.00636923
O        8.95664726      10.27936384       1.66394355       0.00729293       0.00344524      -0.00564140
C       11.19260751       8.94891986       1.33056774       0.00859541       0.00614890      -0.00621215
C       11.09720633      11.65069991       0.99213493       0.00531819       0.00506991      -0.00911126
H       10.65948653       8.00765334       1.22288895       0.00977769       0.00530410      -0.00380855
H       11.40796575       9.18560969       2.37221419       0.01042566       0.00798346      -0.00709766
H       12.10349463       8.92812192       0.73188189       0.00725846       0.00635885      -0.00810112
H       12.02342434      11.60753929       0.41763436       0.00399999       0.00528206      -0.01126041
H       11.28922149      11.70330224       2.06494881       0.00761032       0.00580721      -0.00964838
H       10.51553382      12.51243512       0.66341950       0.00386271       0.00416420      -0.00829118
S       10.06054079       4.67638491       9.03984823       0.00686437      -0.00506139       0.00082365
O       10.02317306       6.17660766       9.12099934       0.00377189      -0.00573087       0.00716606
C       10.10538614       4.25186886       7.29506089       0.00537492       0.00235513      -0.00100052
C        8.36650580       4.13531456       9.33937493       0.00846690      -0.01012172      -0.00012151
H       11.05697954       4.61450955       6.91170826       0.00513728       0.00298739      -0.00051685
H        9.27047777       4.73156672       6.78418925       0.00519142       0.00528763       0.00205422
H       10.08259092       3.16610666       7.22204899       0.00383690       0.00285253      -0.00563914
H        8.32009537       3.04908071       9.26499355       0.01033079      -0.00956580      -0.00744447
H        7.70397627       4.61371248       8.61771407       0.00670424      -0.00636002       0.00405523
H        8.11033529       4.45663139      10.34648086       0.00974480      -0.01730004       0.00219443
S        3.29040903       5.24738028       9.98798796      -0.00453722       0.01972473       0.00065392
O        4.59763369       4.49713004      10.09899864      -0.00513244       0.01754206      -0.00622296
C        2.98778827       5.99108083      11.59648567       0.00196623       0.01479977       0.00410515
C        1.95868424       4.03096708      10.01988316      -0.00560910       0.02121359       0.00043917
H        3.78251194       6.71780902      11.75712960       0.00269294       0.01381147       0.00314625
H        3.01719707       5.22472519      12.37111317       0.00485537       0.01205732       0.00124037
H        2.00996114       6.47386379      11.55884163       0.00217929       0.01526652       0.00854668
H        1.01280487       4.57238928      10.03822968      -0.00471531       0.02251442       0.00537238
H        2.04924993       3.38783614      10.89446194      -0.00365201       0.01769568      -0.00246683
H        2.05134503       3.43811517       9.11120008      -0.00935182       0.02488480      -0.00217687
S       11.56450776      14.27009474       8.22984773       0.00555283       0.00638032       0.00655425
O       11.29005147      15.72440836       8.44944987       0.00524250       0.00622106       0.00635701
C       10.04590929      13.39131569       8.59464988       0.00408560       0.00713933       0.00092363
C       12.49834758      13.66874493       9.64827168       0.00087103       0.00576642       0.00913805
H        9.32963610      13.62455080       7.80584532       0.00646756       0.00914776      -0.00062719
H        9.68727541      13.73787047       9.56663496       0.00161060       0.00593816       0.00043891
H       10.24513388      12.31626370       8.60360740       0.00210683       0.00689721      -0.00005692
H       12.63620074      12.59232829       9.53434998       0.00073625       0.00580685       0.00942107
H       11.96063246      13.89792939      10.56716385      -0.00178571       0.00589031       0.00746806
H       13.46107178      14.17627597       9.64578112       0.00101562       0.00522359       0.01211153
S        8.05349521       6.65167856       4.34386319      -0.00110126      -0.00050961      -0.01158968
O        6.73756886       6.26431797       4.93802988       0.00520742      -0.00614068      -0.00161541
C        8.08246299       8.44290476       4.27934928      -0.00703186      -0.00034398      -0.01092470
C        7.91699354       6.37222313       2.56563155      -0.01443605      -0.00037359      -0.01047844
H        8.06418882       8.81131727       5.30343600      -0.00408335      -0.00130455      -0.01054630
H        7.19080443       8.78676871       3.74721704      -0.00962983      -0.00210182      -0.00743388
H        8.98324674       8.78338336       3.77009442      -0.00931087       0.00183178      -0.01351075
H        8.85325338       6.60979079       2.06342052      -0.02411819       0.01527867      -0.02058929
H        7.11443754       6.98899765       2.16027309      -0.02899027      -0.01227209       0.00079734
H        7.68479420       5.31699064       2.43720879       0.00050327      -0.00362684      -0.00932910
S        3.22191646       3.06110253       2.24980673      -0.00652279       0.00259501      -0.00172068
O        3.19468570       1.58089955       1.85512480       0.01358514       0.00215399      -0.00054871
C        2.64514658       3.09749586       3.93667400      -0.00242156      -0.00619056       0.00038207
C        1.81352524       3.75368104       1.37767620      -0.01966298      -0.01939693       0.00274217
H        3.26379066       2.38892665       4.48460373       0.02028666       0.01627356       0.00248991
H        1.59434771       2.81764186       3.98989527       0.00670663      -0.03745627       0.00285950
H        2.83041060       4.09645414       4.32924577      -0.03312550       0.00247000      -0.00903095
H        1.89469902       4.83697452       1.41588917      -0.04422791      -0.01759309       0.01345031
H        0.87856167       3.39339797       1.80108343      -0.01072258      -0.04445630       0.00087194
H        1.90932625       3.42428356       0.34442532      -0.01177792      -0.00944907       0.00011407
S        2.31968650      13.39523731       5.88984677      -0.00164982       0.00139904      -0.00018656
O        2.76161357      14.78992163       6.20578806      -0.00374889       0.00243068      -0.00262600
C        1.04019662      13.53740959       4.62288722       0.00137150      -0.00259502      -0.00353619
C        1.22230632      12.88555035       7.22905796      -0.00417829       0.00377510      -0.00148177
H        1.51863825      13.88684506       3.70823387       0.00350238      -0.00735907      -0.00414912
H        0.29065368      14.25099823       4.96728067       0.00178562      -0.00009263      -0.00808446
H        0.58787274      12.56100064       4.44822576       0.00008461      -0.00234696      -0.00051944
H        0.80570788      11.89625472       7.03081790      -0.00192975       0.00245918       0.00095958
H        0.42948669      13.62545341       7.33596142      -0.00598276       0.00243150      -0.00605681
H        1.82231473      12.84749767       8.13645471      -0.00609359       0.00831568      -0.00012273
S       10.35139221       9.75910978       6.84495107      -0.01257360      -0.00215489       0.00535846
O       10.56396463      10.20320753       8.25952185      -0.02132136       0.00060308       0.00576138
C       11.13414847       8.14301710       6.69164638      -0.00440449       0.00165820       0.01020781
C       11.54821864      10.66234669       5.83544976      -0.01239270       0.00184402       0.00967979
H       10.58445007       7.45962753       7.33916819      -0.00243998       0.00000414       0.00994633
H       12.16848276       8.24038242       7.02178714      -0.00546271       0.00696322       0.01174576
H       11.06323778       7.81488131       5.65314515      -0.00078317      -0.00003343       0.01057890
H       11.51407827      10.26903713       4.81860583      -0.00940322       0.00274574       0.00930611
H       12.53340990      10.53805182       6.28708509      -0.01308630       0.00407097       0.01153985
H       11.23051284      11.70287642       5.81791108      -0.01524503       0.00088273       0.00953060
S       13.21829306       7.67031530      11.61822871      -0.00190163       0.01116836       0.00027561
O       14.17143638       6.76430937      10.88035005       0.00548512       0.01928461       0.00033772
C       11.94137863       6.59139942      12.27310905       0.00300539       0.00463998      -0.00436892
C       12.22844590       8.48940492      10.37342304      -0.00526583       0.00930770       0.00151116
H       12.40382354       5.95824008      13.02853438       0.00560264       0.00545093      -0.00565348
H       11.55205374       5.98704791      11.45368947       0.00884980       0.00290786      -0.00543100
H       11.13827526       7.17640696      12.72331976       0.00055110      -0.00102673      -0.00124767
H       11.52116318       9.16083972      10.85732855      -0.00873484       0.00456214       0.00277428
H       11.69984594       7.73952401       9.78417084      -0.00028044       0.00766811      -0.00016262
H       12.90230867       9.06362995       9.73996033      -0.00684616       0.01410306       0.00364901
S        6.21763776       3.46288308       6.14801917       0.00058520      -0.00714284       0.00273407
O        5.84397604       3.13093961       4.72658771       0.00479740      -0.00938699       0.00211418
C        5.90309074       1.96789122       7.10299837      -0.00722405      -0.00398725       0.00486046
C        4.87606308       4.43306874       6.82688070       0.00081700      -0.00149760      -0.00517148
H        6.63799027       1.21947703       6.80588013      -0.00945891      -0.00717878       0.00732164
H        4.89479921       1.61299028       6.88083715      -0.00811619      -0.00041334       0.00373224
H        6.00723495       2.21813692       8.16096588      -0.00808450      -0.00250035       0.00453573
H        5.06642239       4.57710451       7.89096411      -0.00434425       0.00015523      -0.00455327
H        3.94233372       3.88343455       6.68995064      -0.00022218       0.00159279      -0.00929266
H        4.85970102       5.39110052       6.31450927       0.00675681      -0.00282973      -0.00740370
S        1.11993089       8.69180446       7.39500190      -0.00404906       0.00748786      -0.00013132
O       -0.11211498       9.46808247       7.75259569      -0.00292575       0.00928962       0.00025022
C        1.12302958       8.60327644       5.58977975      -0.00424790       0.00801133      -0.00006020
C        0.80008690       6.94473041       7.68926956      -0.00703011       0.00827509      -0.00058430
H        1.34494982       9.60328680       5.21637187      -0.00478977       0.00820969       0.00033014
H        0.13193879       8.28439309       5.26306534      -0.00397873       0.00778770      -0.00017622
H        1.90266716       7.91121882       5.28868650      -0.00391257       0.00845268      -0.00028187
H        1.70846268       6.40714941       7.42010813      -0.00835928       0.00672450      -0.00158948
H       -0.05784604       6.61867758       7.10078062      -0.00818244       0.01023278       0.00023086
H        0.59108373       6.84303139       8.75505971      -0.00594535       0.00864074      -0.00042516
S        7.81541653       1.24202945       3.48268667       0.00179163      -0.00315815       0.00053275
O        8.36971152       0.00103386       2.76181241       0.00332740      -0.00213850       0.00048587
C        6.44133889       1.70211714       2.43485707       0.00245169      -0.00417781      -0.00090200
C        8.95143290       2.54784770       3.02413230       0.00124171      -0.00235119       0.00198852
H        5.60449772       1.07353723       2.74629283       0.00322513      -0.00581184      -0.00220455
H        6.73964929       1.50123526       1.40766099       0.00416724      -0.00226609      -0.00072952
H        6.18229757       2.73952322       2.62131267       0.00002921      -0.00491130      -0.00042762
H        8.59583820       3.46252432       3.49763399       0.00129186      -0.00310452       0.00321175
H        8.99715350       2.64080671       1.93989784       0.00120308      -0.00119429       0.00217777
H        9.92355482       2.27424015       3.42676805       0.00127822      -0.00297891       0.00142811
