200
Lattice="12.51568139070376 0.0 0.0 0.0 12.51568139070376 0.0 0.0 0.0 12.51568139070376" Properties=species:S:1:pos:R:3:forces:R:3 energy=-941316.375 stress="0.003274578833952546 -0.0005768191476818174 0.0009343985293526202 -0.0005768191476818174 0.000523181282915175 7.662980806344422e-06 0.0009343985293526202 7.662980806344422e-06 0.0011605246691033244" pbc="T T T"
Ho      11.50065811      12.72284068       6.61780078       0.00476253      -0.00192073       0.00146082
Ho       8.32385571      13.29490592       3.92461665       0.00021826      -0.00266625       0.00763756
O        3.38712767      13.64360233       8.33458937       0.01012862      -0.00142717      -0.01148768
O        1.64580581      12.41713497       9.89798960       0.01456445       0.00787172       0.00066066
O        2.44894331      11.25159007       7.62759385       0.00259525      -0.00156975       0.00081432
O        0.82633235      13.42433756       7.50929388       0.00542355       0.00020671      -0.00008160
Cr       2.09239412      12.69839185       8.36229519       0.00720921       0.00052501      -0.00289178
O        9.85720328      10.99603762       6.76218542       0.00813578      -0.00552738       0.00536382
O       10.32753606      11.91249949       4.42359961       0.00123703      -0.00011730       0.00636929
O        7.91563934      11.17785949       4.85092822       0.00254846      -0.00250766       0.00920330
O        9.84183647       9.26551884       4.59727156       0.00481382      -0.00000882       0.00065106
Cr       9.47447369      10.72820722       5.18750661       0.00361665      -0.00286153       0.00557258
O        1.12020681      11.33399762       3.53580654       0.00240946      -0.00411755      -0.00458777
O        1.97829608      11.53965640       1.02117906       0.00579828      -0.00664574      -0.00404441
O        2.29622698       9.23237626       2.35474921       0.00651635      -0.00474262      -0.00047211
O        3.75786735      11.38030633       3.04928495       0.00323057      -0.00206488      -0.00180379
Cr       2.29056975      10.87879784       2.49081356       0.00414534      -0.00452542      -0.00240940
O        4.66586863       8.02836792       0.94533304       0.00578305       0.00802555       0.00827764
H        4.63341770       8.97002743       0.65542037       0.01126612       0.00714323       0.00500665
H        3.90602777       7.94835753       1.53703810       0.00470959       0.01563325       0.00846804
O        4.40356844      10.61505286       0.02431852       0.01518414       0.00825413       0.00029643
H        4.57294187      10.58349615      -0.92711003       0.01356409      -0.00253676       0.00004925
H        3.48922149      10.93448587       0.14094971       0.01301080       0.00281714      -0.00147308
O        7.70405286       2.89723303       3.36165751       0.00304854      -0.00343974       0.00000975
H        8.34558723       3.67438363       3.60117506       0.00065149      -0.00133341      -0.00122714
H        6.97078186       3.24622991       2.84549610      -0.00207720      -0.00501870       0.00609976
O        5.61941594       9.74643902       4.28114547       0.00290538       0.00054579      -0.00141309
H        6.47509722      10.20732078       4.23332458       0.00321655       0.00002700       0.00101211
H        4.98277030      10.25305555       3.73866766       0.00414704       0.00061628      -0.00312913
O        5.02932691       2.25408664       6.41741025       0.00098562       0.00584763      -0.00691932
H        4.63672634       1.49307807       5.94041340       0.00439139       0.00654571      -0.01053336
H        4.64040841       2.12169946       7.30330943      -0.00140753       0.00138386      -0.00854468
O        8.78688486       2.79724711      11.86249750      -0.02194461      -0.00465978      -0.00950682
H        9.25852972       2.97912669      12.68078712      -0.02875839      -0.00848309      -0.00453606
H        7.90908868       3.28615836      11.93804004      -0.02190635      -0.00085731      -0.01083990
O        0.44146279       8.14385541       0.84160341       0.00796659      -0.00672802      -0.00131293
H        1.20403710       8.53415872       1.34422786       0.00769166      -0.00556858      -0.00180915
H        0.82220682       7.68329543       0.08637833       0.00843882      -0.00795153      -0.00070161
O        8.16736497       7.32811926       9.79885851       0.00582999       0.01003179      -0.00885880
H        9.05059327       7.30257816      10.22270863       0.00724460       0.00688619      -0.01233723
H        7.50783850       7.30903509      10.51090115       0.01099329       0.02616811      -0.00296159
O        2.58333963       9.22204722       9.61265624      -0.00091880      -0.00435838      -0.00516690
H        2.62085188       9.88107335       8.88859129       0.00036454      -0.00236487      -0.00358529
H        1.64802792       9.23683756       9.89542440      -0.00116435      -0.00362704      -0.00521207
O       11.80183668       3.47662448       6.02872066       0.00247405       0.00275625      -0.00220365
H       11.40373814       4.33341383       6.31446833      -0.00005993       0.00243647      -0.00445964
H       12.64103192       3.76337952       5.62805229       0.00333355       0.00314429      -0.00059303
O        9.83339453       1.89069120       5.47911719       0.00410601       0.00056094       0.00227177
H       10.50636788       2.62776539       5.42608123       0.00481282       0.00013618       0.00132747
H        9.30509956       2.06341883       6.27557808       0.00318423       0.00246019       0.00120778
O        4.68972260       5.17936814       2.50550243      -0.00301990       0.00164772       0.01126635
H        3.80269711       5.42698269       2.19977938      -0.00631127       0.00334218       0.02028745
H        4.81462681       5.82986730       3.23024652       0.00421104       0.00030174       0.01080012
O       10.34671244       1.61859047       2.74496197      -0.00132149      -0.00642821       0.00252636
H       10.47046836       0.98141298       2.03216060      -0.00169370      -0.01245816       0.00777621
H       11.14267894       1.51642433       3.31183191      -0.00071642      -0.00153354       0.00228712
O        9.17984987      10.83123057      11.49543875       0.00444129      -0.00314150       0.00008457
H        9.13544762      11.08149597      10.54156121       0.00298535      -0.00424220      -0.00014388
H       10.10531941      10.85483890      11.77189368       0.00566983      -0.00652503      -0.00244273
O        0.75288468       4.08493129       1.29924449      -0.00867575      -0.00821775      -0.00195101
H       -0.10766413       4.29780193       1.70076498      -0.00891210      -0.00430039      -0.00065146
H        1.03710863       3.15781334       1.46777224      -0.01037163      -0.00710420       0.00165097
O        2.75286091       3.80511801       8.16299478      -0.03102919      -0.00386548       0.01235413
H        2.63765878       4.75121825       8.34120385       0.00147633      -0.00817361      -0.00303817
H        1.96211554       3.36890256       8.49877914       0.00397762       0.01607348      -0.00788790
O        6.10265878      12.31494512       8.53622618       0.00792977      -0.00232510      -0.01023326
H        5.47650755      12.60485049       9.22131762       0.00892770       0.00176535      -0.01140323
H        5.69925992      11.54385004       8.08683180       0.00547982      -0.00335640      -0.00752006
O       11.86796186       7.26422460       4.47235982       0.00396518       0.00174586       0.00219018
H       11.47529845       6.76485996       5.22033921       0.00007324       0.00182632       0.00040177
H       11.31589476       8.06429395       4.45366171       0.00559001       0.00302170       0.00141653
O        2.10268085       1.83883820       1.41464825      -0.00983217      -0.00942057       0.01508452
H        2.92744463       2.00375571       1.90527219      -0.00728053      -0.00657211       0.01110640
H        2.06921886       0.89064056       1.21054265      -0.00291886      -0.00709060       0.00651978
O        5.65869232      10.14518517       7.00356520      -0.00859527      -0.00207800      -0.00329987
H        5.26184638       9.31635495       7.32861338      -0.00998179      -0.00241993      -0.00493842
H        5.51034600      10.12618709       6.03656967      -0.00441886      -0.00107707      -0.00389443
O       10.00086592       3.54975872       9.47793409      -0.00761183      -0.00047822       0.00069198
H        9.63610691       3.34727157      10.36611609      -0.01162741      -0.00324841      -0.00179916
H       10.85138755       4.02905582       9.60947806      -0.00789809      -0.00164478       0.00633582
O        1.80156718       4.67812544      11.35451186      -0.00362006       0.01088575       0.00663875
H        1.45467800       4.39105242      12.21938817      -0.00544189       0.00667720       0.00519720
H        2.60010477       4.14527917      11.17457968      -0.00603846       0.00828408       0.00452991
O        0.80162402       6.31687387       7.57902501      -0.00656453      -0.00758755       0.00036206
H        1.65540672       6.58419405       7.98698179      -0.00654922      -0.00430233      -0.00022466
H        1.05196735       5.89609150       6.72259862      -0.00501028      -0.00553577       0.00056963
O        4.44018176      13.08961617      10.88235824       0.00124362      -0.00088266      -0.00748003
H        3.51989916      12.78106792      10.84143393       0.00272255      -0.00352817      -0.01407029
H        4.83187733      12.74265024      11.69493955      -0.00314786      -0.00445368      -0.00587113
O        4.23415625       2.62517154       3.11676003      -0.00268027       0.00108812       0.00659451
H        4.43885344       3.57918479       2.92440250      -0.00176690       0.00141412       0.00724299
H        3.59408591       2.63372099       3.85780429      -0.00244281       0.00158467       0.00677826
O       -0.17461107       9.27964954      10.20922305       0.00098892      -0.00094964      -0.00175937
H       -0.29319140       9.85982169      10.98018258       0.00363553      -0.00272974       0.00085631
H       -0.74124035       8.49868514      10.40074716      -0.00083099       0.00020964      -0.00306616
O        4.73078856       7.10504121       4.44395278      -0.00313725       0.00367311       0.01156597
H        3.81371889       7.40183196       4.64888218      -0.00450429       0.00231107       0.00810646
H        5.24016960       7.93375762       4.40557909      -0.00375123       0.00378536       0.00792981
O        4.17012982       4.99776328       6.08174046       0.00067641       0.00490199       0.01163575
H        4.59487779       4.12523083       6.09181261       0.00009853       0.00398642       0.00349610
H        4.70044927       5.61691354       5.55296999      -0.00270700       0.00692146       0.01118532
O        8.59898942      11.75165831       9.07937448       0.00617767      -0.00562565       0.00001531
H        8.90957228      11.24004426       8.31082974       0.00908910      -0.00388210      -0.00042403
H        7.61982387      11.90772099       8.95185627       0.00659144      -0.00636258      -0.00277296
O        8.46636932      12.10284367       1.96804539      -0.00563095      -0.00031677       0.00658318
H        7.92307090      12.32798093       1.15877538       0.00898023       0.01101447      -0.00166503
H        8.86360441      11.21229102       1.84713477      -0.00270591       0.00176390       0.00207788
O        7.22662480       8.98868293      -0.37700553       0.00844771      -0.01225687      -0.01122494
H        7.25941919       8.74951640       0.55761222       0.00349787      -0.00646783      -0.00960039
H        7.98476936       9.58215282      -0.54097311       0.00270389      -0.00335231      -0.00750960
O       10.74289114       7.12425368      10.79954210      -0.00047340       0.00401407      -0.00105157
H       10.48335330       7.01109312      11.73605378      -0.00380113       0.00682959      -0.00089040
H       11.25970231       6.33399488      10.51397609      -0.00242111       0.00194423       0.00108850
O        1.59838224       5.07146434       5.31778478       0.00245427      -0.00420022       0.00155933
H        1.62793575       5.46673788       4.42311473       0.00371442      -0.00752303      -0.00011922
H        2.55355604       4.99914467       5.57699611       0.00197174      -0.00093248       0.00515277
O       -0.27610699       5.07808650       9.77824745      -0.00445912      -0.00186445       0.00529455
H        0.51745823       4.86380028      10.34358927      -0.00315468       0.00342065       0.00581862
H        0.09996988       5.43322193       8.94203714      -0.00615846      -0.00451295       0.00311314
O        5.45348859       7.60125610       8.06655745      -0.00488926      -0.00139236      -0.00425501
H        5.60529123       8.11486106       8.89257968      -0.00346060      -0.00217080      -0.00493939
H        6.32575562       7.47811608       7.66850603      -0.00513054      -0.00032010      -0.00617018
O       10.05677393       1.29871540       8.12141646       0.00411427      -0.00293621       0.00221074
H        9.51233352       0.65351432       8.63194844       0.00490328      -0.00383759       0.00198458
H       10.11288718       2.13654094       8.65548096      -0.00019111      -0.00191013       0.00074133
O        5.70673059       6.43961144      11.40229467      -0.01571102       0.00825308      -0.00226269
H        5.01912971       6.16222469      10.78446619      -0.02065653       0.01123869       0.00128274
H        5.23949382       6.93486143      12.10357113      -0.01043360       0.00199146       0.00547900
O       -0.03288815       1.03600589       4.52607373       0.00262265      -0.00219362      -0.00010473
H        0.75455217       1.61790721       4.69482282       0.00283148      -0.00216035      -0.00020194
H        0.35557619       0.26017797       4.05210320       0.00211347      -0.00136048      -0.00178337
O        9.34175243       4.62149310       4.08279181      -0.00202569       0.00218535      -0.00109279
H       10.04022259       4.88963927       3.43866875      -0.00125548       0.00262315      -0.00031744
H        8.96905969       5.45152441       4.45433542      -0.00352359       0.00193688      -0.00248209
O        4.15664458       3.30153799      10.55485686      -0.01304808      -0.00367904       0.00293035
H        4.18993111       2.32945205      10.67133170      -0.00891251      -0.00414748       0.00373545
H        3.88034081       3.42636025       9.62584797      -0.01276647      -0.00487088       0.00313108
O        2.27952915       2.23726091       5.06504929      -0.00010182      -0.00194988       0.00435218
H        2.29903543       2.79789441       5.85289498      -0.00266108      -0.00551971       0.00689077
H        2.68595479       1.37664031       5.33944037       0.00057664      -0.00283407       0.00152900
O        7.18389996       7.28327874       2.01539586       0.00400478       0.00497478       0.00583357
H        6.23464659       7.33739316       1.79757639       0.00346640       0.00747809       0.00793443
H        7.23451808       7.12895316       2.96623679       0.00572912       0.00670651       0.00609922
O       11.23721716       5.53515969       2.44259228      -0.00021428       0.00252782       0.00158472
H       10.73442145       6.09955652       1.81421391       0.00080260       0.00296679       0.00100774
H       11.57717684       6.17281224       3.11401440       0.00235726       0.00097049       0.00174688
O       11.93026906      10.53380357       0.24568795       0.00805794      -0.00506873      -0.00243466
H       12.69855549      11.10612202       0.43635376       0.00895523      -0.00614835      -0.00311725
H       12.28592452       9.62339819       0.42559747       0.00657180      -0.00553251      -0.00131762
O        1.97908666       6.00008589       2.67913951      -0.00222897      -0.01375684      -0.00114557
H        1.54218337       5.28927895       2.14526492      -0.00448590      -0.01227117      -0.00169276
H        1.46874568       6.79597865       2.49182307       0.00319611      -0.01062824      -0.00519106
O        9.70191368       7.12403184       0.84379386       0.00143555       0.00156319      -0.00050298
H        8.76443652       6.94901973       1.05103685       0.00162321       0.00374245       0.00137511
H        9.81568698       8.04846125       1.15238622      -0.00076861       0.00143902       0.00086687
O       10.86994441       5.94794585       6.66918021      -0.00593147       0.00014549      -0.00381492
H       10.00071480       5.91180090       7.13599001      -0.00593460      -0.00102555      -0.00449371
H       11.53845524       6.32002445       7.26891926      -0.00584354      -0.00159928      -0.00165109
O        6.45272980       3.86839672      -0.42620047      -0.01008323       0.01206869      -0.01489782
H        6.32561610       4.83592203      -0.46668557      -0.01172275       0.01244059      -0.01927856
H        5.74004398       3.55365619      -1.01391644      -0.01397771       0.00708175      -0.00744610
O        9.82995938       9.72024104       1.86551327       0.00545943       0.00243833       0.00025794
H       10.66683563      10.10755685       1.54432662       0.00554895       0.00150833      -0.00120844
H        9.93548080       9.52955165       2.82161253       0.00654981       0.00371698       0.00019041
O        8.01384102       6.65612980       5.23191925      -0.00944051       0.00009286      -0.00286783
H        8.36129599       7.49741943       5.56710913      -0.01481531      -0.00104979       0.00624446
H        7.87398809       6.15228332       6.04884448      -0.01414823      -0.00576134      -0.00725448
O        6.06622467      13.20902923       3.18779471      -0.00260532       0.00087567       0.01498830
H        5.51268906      12.45787088       2.92333947      -0.00014975       0.00131949       0.00932303
H        5.42831667      13.97216544       3.20885040      -0.00297018       0.00097313       0.01118275
O        3.68410744      12.53742154       5.48864088       0.00244932      -0.00023407      -0.00378780
H        3.69084025      12.04633647       4.63820544       0.00181171      -0.00050232      -0.00369929
H        3.39117677      11.92552155       6.19609446       0.00648862      -0.00107601      -0.00305226
O        3.12279576       6.61935069       8.90088064      -0.00236285      -0.00369301      -0.00263470
H        2.92347080       7.53225044       9.20617366      -0.00170187      -0.00353338      -0.00544187
H        3.94073773       6.73498939       8.37773103      -0.00260324      -0.00557573      -0.00471103
O       11.68835099      11.54031250       8.76987854       0.01001534       0.00215045       0.00399482
H       12.40096525      11.91386892       9.32404702       0.00879019       0.00515866       0.00287706
H       11.74837709      10.58465025       8.95107425       0.00969101       0.00209939       0.00728681
O       12.80055388      10.86745730       6.03274488       0.00512971      -0.00026333      -0.00086682
H       13.60302043      10.80858890       6.60450692       0.00572611      -0.00081566      -0.00162136
H       13.13856504      10.83369403       5.11161473       0.00340141      -0.00198139      -0.00145456
O        7.27404871      12.79391364      12.24853871       0.03115402       0.01728137       0.00021976
H        7.71735195      13.63743922      12.04646659       0.03182510       0.01833168      -0.00045275
H        7.82107621      12.12760694      11.79611237       0.02842644       0.01666772      -0.00204881
O        8.54982596       5.44020851       7.90967432      -0.00480613      -0.00008787      -0.00149832
H        8.90792263       4.68230535       8.41011373      -0.00501791       0.00014849      -0.00077167
H        8.29506461       6.08155884       8.61120247      -0.00407387       0.00111495      -0.00241737
O        8.02701113       8.63146375       7.29600672      -0.00744931       0.00260411      -0.01155348
H        8.16508096       8.44655851       8.24007320      -0.00233130       0.00264704      -0.01235086
H        7.33114905       9.31389612       7.24698440      -0.00979076       0.00106575      -0.00866874
O        2.29110097       8.24839023       4.93712120      -0.01048146      -0.00760736      -0.00231194
H        1.43735480       7.83545369       5.12641066      -0.01246485      -0.00834332      -0.01136492
H        2.18775438       8.61667672       4.03994819      -0.00303125      -0.00492278      -0.00204787
O        5.35021092       9.31766402      10.14253917      -0.00182959       0.00545649       0.00032550
H        5.86753729       9.07298808      10.93654984      -0.00150397      -0.00633070      -0.00403643
H        4.41412802       9.10359500      10.29210794      -0.00128482      -0.00180209      -0.00331978
O        7.33847746      13.64967424       6.07427748       0.00392247       0.00600547       0.00893006
H        6.51998737      14.20520801       6.23760434       0.00353020       0.00793874      -0.00003622
H        7.19620336      12.91183682       6.68317228       0.00061275       0.01510440       0.01964026
