199
Lattice="18.0885433692729 0.0 0.0 0.0 18.0885433692729 0.0 0.0 0.0 18.0885433692729" Properties=species:S:1:pos:R:3:forces:R:3 energy=-1568002.875 stress="0.00029281311435624957 4.434908441908192e-05 -0.0002456042930134572 4.434908441908192e-05 -0.00013545934052672237 3.228603418392595e-05 -0.0002456042930134572 3.228603418392595e-05 0.00021671358263120055" pbc="T T T"
K        1.97205601      16.70055151      10.06215251      -0.01819107       0.02313035       0.00242295
K        9.03628758      15.67995649       7.52968402       0.00304135       0.00243878      -0.00170948
S       15.69420547       0.85852818       1.32147742      -0.00671793       0.00362299      -0.02768042
S       14.68838836       0.50647054       2.89569011      -0.00123313       0.00077634       0.00202662
Cl       4.72800484      12.48324590       6.25502393       0.01108209      -0.01753129       0.00506963
Cl       4.51043342      13.29696963       9.05448176       0.00878990      -0.01946687       0.00266319
Cl       2.53731491      11.46448282       7.90034510       0.00090759      -0.00269723      -0.00466023
C        4.21932080      11.97642440       7.87093771      -0.01418973       0.00699043      -0.00928799
H        4.83797928      11.14207291       8.17982143       0.00691506      -0.03760335       0.00604250
Cl       5.33095059       8.35212081      -0.49028044      -0.00465775       0.00205940      -0.00392489
Cl       8.10089223       9.19205839      -0.09370080      -0.00018042      -0.01306432       0.01321386
Cl       5.95930879      11.18049700      -0.13692888       0.01232889       0.00255921      -0.01143070
C        6.40279212       9.52849998       0.29748500      -0.00310351      -0.00131185       0.00226252
H        6.28666455       9.41950569       1.36998014      -0.01128109       0.00549395      -0.00674328
Cl       0.90685797       6.96230522      14.04906039       0.00631501       0.00466904       0.00236017
Cl       1.28545122       5.64472631      11.46319633       0.02311039       0.00611947       0.00184757
Cl       1.70203339       4.15505446      13.94578076      -0.00661340       0.00004177       0.00474164
C        0.77426214       5.43923833      13.15423496       0.00244061       0.00349059      -0.00134313
H       -0.26914584       5.14601003      13.14417308       0.00933480       0.01210260      -0.01274925
Cl      12.54128814      13.55433743       1.30750240      -0.00656642       0.00801764      -0.00362252
Cl      14.93652003      15.17694194       0.91114843       0.00277558      -0.00977859      -0.00412779
Cl      12.29809695      16.35602197       0.49745197       0.01275051       0.01589245       0.01587331
C       13.24617430      15.18666884       1.42289512       0.00592871       0.00572264       0.01401141
H       13.21181032      15.48558738       2.46383649       0.01154115      -0.00458930       0.00435758
Cl       2.87949257      17.13920937       2.04207910       0.00719436      -0.01306626       0.00175756
Cl       2.54257922      14.25210624       1.65003944      -0.01500978      -0.01203126      -0.00127372
Cl       0.43497413      16.11175726       0.83123704      -0.00312018       0.00647287      -0.00516657
C        2.19361360      15.86529754       1.02489765       0.00547270      -0.00728810      -0.01431214
H        2.64452065      15.95123992       0.04274235      -0.00414720      -0.01168349       0.00733989
Cl       7.91523805      -0.65020693       1.96231325       0.01842301       0.00539052       0.00255355
Cl       5.91508540       1.48261243       1.83518762      -0.00281665      -0.01430695       0.01036174
Cl       8.01381925       1.58141953       3.86744916      -0.00133280       0.00093687       0.00938281
C        7.58986406       1.07574539       2.20553059       0.00457324       0.00209547       0.00639896
H        8.23915829       1.63305329       1.53986169      -0.00419863       0.00790460       0.01022777
Cl      13.49459064       5.79527801       7.11671111       0.00537336      -0.00492835       0.00820217
Cl      14.71479197       8.04204821       8.51819494      -0.00184493       0.00151812       0.00375578
Cl      16.27174245       6.53787366       6.56577989       0.00203499       0.00335154       0.00599581
C       14.64674752       7.13051796       7.01241987       0.00345051      -0.00278664       0.01073594
H       14.32116583       7.79318082       6.21871238      -0.00232852      -0.00044441       0.00370355
Cl       6.18184110       2.28548038      15.19232458      -0.00486243      -0.00683184      -0.01920230
Cl       6.47876590      -0.60958560      15.47207113      -0.00029048      -0.00716652      -0.00435439
Cl       8.42597946       0.91398133      13.91012755      -0.01054964      -0.01229960      -0.00320899
C        7.32897113       0.94201603      15.30157832      -0.00031364      -0.00410694       0.00125105
H        7.92745756       1.08674764      16.19363768      -0.00733313       0.00062011      -0.02504265
Cl       1.46446737       9.11813509       4.72903748      -0.00558078       0.00693144      -0.00205970
Cl       1.65207910       9.98767681       1.94458747       0.00616377       0.00498748      -0.00509726
Cl       4.08063221       9.48329200       3.48063553      -0.00030401      -0.00161919       0.00781921
C        2.38646239       9.00777140       3.22683035      -0.00117190      -0.00214846      -0.00099891
H        2.38172289       7.97086510       2.90878253      -0.00430737       0.00866872       0.00197934
Cl       6.75166766       5.41038958       2.27062295       0.00291979      -0.00478506      -0.01391669
Cl       4.16273156       4.87963626       1.00241941      -0.00359327      -0.00330904       0.00035167
Cl       4.28264217       5.77041601       3.78151885       0.00983596      -0.00590131       0.00088951
C        5.03726569       5.86484005       2.18557627       0.00073593      -0.00579296      -0.00265675
H        4.99243909       6.89444979       1.85003682      -0.00023075      -0.00436854      -0.00078965
Cl       5.24042884      10.23923538      11.17979479      -0.00469907      -0.00004227      -0.00390804
Cl       6.68590554       9.47647784      13.60336397      -0.00810209       0.01869608       0.00319558
Cl       4.05236553       8.33768800      13.04981055      -0.00044531      -0.00070384      -0.00013341
C        5.55618547       8.92634335      12.35273715      -0.00290891       0.01214471       0.00420602
H        6.02225559       8.11414597      11.80732393       0.00656080       0.00514995       0.00535192
Cl      13.05792770       7.14301802      11.70011814      -0.00161582       0.00254865       0.01244983
Cl      15.24217280       5.33753568      10.96534240      -0.00076415       0.00842436       0.00056130
Cl      15.84084053       7.91392564      12.18843030      -0.00097036       0.00372332       0.01078053
C       14.69042307       6.57365918      12.10233334       0.00020067       0.00112658       0.00798600
H       14.63573736       6.11765892      13.08393660       0.00254454      -0.00192361       0.00485441
Cl       1.18284772      14.85751055      12.76269445      -0.00376783       0.00116780      -0.00951660
Cl       1.37675517      15.48451269      15.60725343      -0.00063145      -0.01022962      -0.00724096
Cl       3.55778903      16.20248421      13.78597911       0.00261943      -0.01367146      -0.00438009
C        1.82311252      16.01077666      13.98800264      -0.00010337      -0.00437143      -0.00552652
H        1.34193934      16.96906574      13.81290734       0.00537155      -0.00296326      -0.00196839
Cl       9.42402061       8.01845940       7.98531323       0.00571503      -0.00541128      -0.00725525
Cl       7.85777232      10.48235069       8.14123468       0.00382885      -0.00352125       0.00518537
Cl      10.74774290      10.54784622       8.59319890       0.00453745      -0.00669498       0.00971694
C        9.43302554       9.76444441       7.70584430       0.00570025       0.00560761      -0.01070898
H        9.57997277       9.93371372       6.64435900       0.00628620       0.00685778       0.01240486
Cl      -0.25193268       1.95119895       4.37350969      -0.00283973       0.00080395      -0.00734803
Cl       0.73565550       4.53546151       3.44030195       0.00644996      -0.00434732      -0.00179205
Cl       2.59125524       2.30320782       3.77055311      -0.00022784      -0.00499056       0.01180026
C        0.93820351       2.77763839       3.35247327       0.00794901       0.00522059       0.02303200
H        0.75272012       2.47978372       2.32829251       0.00857807      -0.00696402      -0.01398179
Cl      14.61508303       2.22249248      12.85245431       0.00400421       0.00595327       0.00190709
Cl      12.02705039       1.67026841      14.08458131       0.00368944       0.00225285       0.00010137
Cl      12.17170212       3.35379072      11.71165607       0.00329772      -0.00320238      -0.00361080
C       12.88536952       1.98313029      12.56519906       0.00756731       0.00490369       0.00130834
H       12.77771501       1.10185027      11.94422519       0.00925381      -0.00346610      -0.00000083
Cl       8.39038943      12.78788826       5.18089392       0.00235866       0.00386302       0.02250499
Cl      10.04364252      14.95187138       4.14420512      -0.01457197       0.00592533      -0.00252862
Cl      11.30067773      12.58503768       5.30540195       0.00678995       0.02212671       0.01641215
C        9.92295173      13.18826541       4.38049993      -0.00451256       0.00011069       0.00037792
H        9.93231538      12.72365629       3.39943320      -0.00150438       0.00047662       0.02727779
Cl       6.94832189       5.67533688      13.53706529      -0.00942135       0.01668671      -0.00979103
Cl       9.61181516       5.18282526      14.63522477      -0.00579566       0.00005978      -0.02067398
Cl       9.31579990       6.12352507      11.88076709      -0.01478238       0.00953731      -0.01658244
C        8.65086126       6.16871490      13.52919697      -0.00771336       0.00573903      -0.01291571
H        8.69404587       7.19700295      13.86745144      -0.00016357       0.00528935      -0.00715783
Cl      10.45163504      14.11732463      14.12215205       0.00243756       0.00822034      -0.00646529
Cl      13.19507951      13.79533087      15.08967768       0.00660402       0.00938493       0.01393589
Cl      12.02086682      16.45774456      14.84770038       0.00296917       0.00804952      -0.00088513
C       11.70122018      14.75078772      15.20109837      -0.00301325       0.00543890       0.01179652
H       11.34643535      14.67641384      16.22253569      -0.00089438       0.00441498      -0.01188314
Cl      13.71377819      10.71361754      11.05496218       0.00502813      -0.00369531      -0.00576903
Cl      12.84575145      13.49145347      11.21621822      -0.00772414      -0.00647362      -0.00490383
Cl      15.50806541      12.72230206      12.18489450      -0.00764469       0.00609308      -0.00657681
C       14.22697075      12.39959825      10.98840378      -0.00949791      -0.00411241       0.00397702
H       14.64633288      12.59413697      10.00854189      -0.00349630       0.00050515      -0.01287547
Cl      16.30041771      11.94233115       2.38440524      -0.01112088       0.00594178       0.01274464
Cl      15.55299174       9.75936011       4.17217455       0.00741592      -0.01391201      -0.00036289
Cl      14.30900137       9.98036706       1.53763428       0.00322562      -0.00451023      -0.00021943
C       15.77706399      10.25352770       2.48118331       0.00945129      -0.00617903      -0.00133430
H       16.56159697       9.62971690       2.07131390       0.00302319       0.01243338      -0.00032412
Cl      15.32812577       6.57055210      15.87244897      -0.00346413       0.01762154       0.00354130
Cl      13.24812639       4.59765652      15.32893957       0.01005193       0.00438377       0.00583643
Cl      13.29915798       5.97849285      17.89513239       0.00146203       0.00597603       0.00254372
C       13.64094323       6.11294899      16.16985176       0.00981188      -0.00177024       0.01068139
H       13.01040364       6.89269722      15.75879931      -0.00912727       0.01069620      -0.00005364
Cl      11.78589453       9.11531240      17.21542868       0.00220813      -0.00613992       0.00342935
Cl      11.57458801      10.29566631      14.55156621      -0.00136076      -0.01071192      -0.00293168
Cl      10.49731889      11.70847431      16.87384364      -0.00709477      -0.00798377      -0.00218927
C       11.76131091      10.62826989      16.27640592       0.01211381       0.00174860       0.00515828
H       12.71545494      11.12033179      16.42287817      -0.01378018      -0.00848123      -0.00127232
Cl      16.32036846       2.92619635       8.80672185      -0.01160544       0.00542822      -0.01480199
Cl      14.09531351       1.04256288       9.06071306      -0.01615769       0.00992484      -0.00587074
Cl      14.65210295       2.31902052       6.48492984      -0.00727570      -0.00937814      -0.01335223
C       15.35355251       1.69786639       7.98084080      -0.01499243       0.00121172      -0.00727244
H       16.01183830       0.87427806       7.72915499      -0.01290044      -0.00457250       0.00010375
Cl      15.23705558       4.06349667       2.54395092       0.00074703      -0.00332674      -0.00557797
Cl      16.34807817       6.69356635       1.91917980      -0.00184088      -0.00292403      -0.00157785
Cl      13.76483327       6.47468001       3.28443855      -0.00189978      -0.00698453      -0.00218574
C       15.36602074       5.74781716       3.06062718      -0.00269796      -0.00559560      -0.00894171
H       15.87101082       5.76901533       4.01895179       0.00079317      -0.00568116      -0.00023174
Cl       2.05742613      10.47615633      16.48843928       0.00851285      -0.00259218      -0.00408009
Cl       3.36650284      12.18892711      14.51400741       0.00454867      -0.00256883      -0.00597213
Cl       0.81485654      10.90592459      13.87415923       0.00252195       0.00051160      -0.00120328
C        1.81421151      11.61556447      15.15651986       0.00726285      -0.00142433      -0.00341064
H        1.28534254      12.47730302      15.54547359       0.00808194      -0.00059049      -0.00119402
Cl       7.48098952      15.05444689      10.50649082      -0.00225460       0.01055303      -0.00396746
Cl       8.90538986      12.64210437      11.36667834       0.01111066       0.01219136      -0.02560665
Cl       6.69201996      13.70018407      12.96942164       0.01965222      -0.00510893      -0.00802089
C        7.35069959      13.45732198      11.35616359       0.02841301       0.02044171       0.00691842
H        6.64859640      12.86760096      10.77909672      -0.00581336      -0.00598620      -0.02141663
Cl       0.02984799       0.96811675      15.26599968      -0.01603349      -0.00202366       0.01413613
Cl       2.81742008       1.25866268      16.09943110      -0.00898527      -0.01244398      -0.00481594
Cl       0.70991220       2.73534120      17.49427475       0.00790164       0.00021020       0.00809955
C        1.13064182       1.24292867      16.64122375      -0.00298868      -0.00483359       0.00677432
H        0.99984129       0.41270673      17.32663668      -0.00405623      -0.00064807       0.00774378
Cl       5.44473885       0.36348584      11.52300864      -0.00880335      -0.03106012      -0.00847809
Cl       2.69015865       1.35900015      11.53674166       0.00572737       0.01335359       0.00283475
Cl       4.91603923       3.23885988      11.51663005       0.03540544      -0.01989317       0.02135454
C        4.38110654       1.66290471      10.98186541       0.00916813      -0.00727849       0.00637549
H        4.35594744       1.65211433       9.89565920       0.01084215       0.00396476       0.00358958
Cl      12.55235618      15.46662468       8.14746307      -0.00139098      -0.00104141      -0.00263977
Cl      11.58241318      17.43424956       6.22898270       0.00370762       0.00523914       0.00231377
Cl      14.40384499      16.70256778       6.21376855       0.00126359      -0.00953303      -0.00273636
C       12.76848397      16.13073239       6.50938320      -0.00033516      -0.00057162      -0.00285773
H       12.55180799      15.33090152       5.80835983      -0.00627504       0.00311316      -0.00392954
Cl       9.09056303       2.79680053       9.62037090      -0.00415068       0.02765845      -0.01615764
Cl       9.71006432      -0.05093093       9.73072182      -0.01359234       0.02651151       0.03544801
Cl       8.92877329       1.19572422       7.18369708      -0.00280523      -0.02466723       0.01593845
C        9.76970566       1.44713851       8.74111020      -0.00886384       0.00288679       0.01578122
H       10.81632992       1.63412129       8.51779048      -0.00355405      -0.00731131       0.00691982
Cl       0.50396399      13.96687814       4.95795692      -0.00302822       0.00704154      -0.00103873
Cl       1.92243780      15.02193575       7.27554270      -0.00322269      -0.00238847       0.00400840
Cl       0.35009682      16.82161913       5.57025433       0.00138418       0.00635063       0.00603725
C        0.47250201      15.18358785       6.22184555      -0.00869271       0.00080889       0.00739949
H       -0.38837951      14.99640291       6.85240210       0.00011113       0.00424378      -0.00223258
Cl      12.16812055       2.33306642      19.22018566      -0.00741194      -0.00670862       0.00898093
Cl      10.56324168       1.08771923      17.13015727      -0.00401273       0.00075009      -0.00181076
Cl       9.65857130       3.58343184      18.35895307       0.00457326       0.00896982      -0.00788707
C       11.07563753       2.62601560      17.87303471       0.00405126       0.00191292      -0.00461665
H       11.60297228       3.19254833      17.11359589       0.00598446      -0.00833425       0.00749543
Cl      16.85131388      11.00969676       7.49483115       0.00349098      -0.00794847      -0.00592162
Cl      13.96160892      11.25868578       7.13371710       0.00278273      -0.00471646      -0.01059346
Cl      15.57808746      13.63862233       7.48007540       0.00498106      -0.00783611       0.00203501
C       15.54441341      11.98178737       6.81887559       0.00484463      -0.00465631      -0.00680879
H       15.68524478      12.05443519       5.74651993       0.00614380      -0.00136434      -0.00358120
Cl       6.28363143       6.06413487       6.89875006       0.00358947       0.00058538       0.00939982
Cl       4.54329418       8.33673369       7.47706083      -0.00668524      -0.00142471      -0.01651762
Cl       5.13381197       6.38150037       9.56797872      -0.01254940       0.01676650       0.00648610
C        5.75792024       7.21752453       8.12865476       0.00526893       0.01295364       0.00317566
H        6.62105162       7.79918938       8.43137420      -0.01656258       0.00433336      -0.00002535
Cl      10.93041905       9.04646032       3.01925861      -0.00591554       0.00748843      -0.00016135
Cl       9.92918201       6.53259995       4.10937564       0.00118860       0.00226624       0.00193352
Cl       8.16829216       8.86264059       3.95727929      -0.00478094      -0.00236490       0.01187262
C        9.52066507       7.98602197       3.19688200      -0.00877678       0.00313862      -0.00864328
H        9.19426792       7.69470359       2.20517971      -0.00313301       0.00982781       0.01206401
Cl      14.71748826      16.69861281      11.94142338       0.00032631      -0.00162705      -0.01913483
Cl      16.75222918      15.68502405      10.09118898       0.00561205       0.01178390      -0.01762335
Cl      17.36530502      17.95901711      11.81075766       0.00487951      -0.00795613       0.01002654
C       16.41963094      16.44267210      11.67816092      -0.00143215      -0.00091039      -0.01421380
H       16.79811219      15.76272796      12.43198626      -0.00310738      -0.01280959      -0.01422590
Cl       5.77209685      17.25663431       7.97801716      -0.01033218       0.00224924       0.00026897
Cl       6.74720474      16.36935877       5.36237046      -0.00112785      -0.00496282       0.01046172
Cl       4.11681270      17.59842380       5.58342854       0.00337095      -0.00407857      -0.00525345
C        5.74391647      17.57673978       6.21334244       0.00119423       0.00017661       0.00070004
H        6.20562585      18.54580983       6.05686531      -0.00046552      -0.00691270       0.00123243
Cl       4.10196176       2.94322168       7.60967422      -0.00240771       0.00367943       0.01281873
Cl       1.48942099       4.09409188       7.04803856      -0.00250321       0.00366081       0.01131998
Cl       1.68849198       1.29794358       7.84663065      -0.00148941      -0.00187626      -0.01101077
C        2.37705385       2.95028167       8.02678523      -0.00510206      -0.00437827      -0.00014013
H        2.28333674       3.22466349       9.07241093      -0.01014093      -0.01082255       0.01146069
