191
Lattice="13.316079504400742 0.0 0.0 0.0 13.316079504400742 0.0 0.0 0.0 13.316079504400742" Properties=species:S:1:pos:R:3:forces:R:3 energy=-240029.625 stress="-0.001204727916046977 -0.00015175589942373335 4.239559166308027e-05 -0.00015175589942373335 -0.0024215062148869038 -0.0005865834536962211 4.239559166308027e-05 -0.0005865834536962211 -0.0016016078880056739" pbc="T T T"
Li      13.73069207      13.84300826       2.88939519       0.00176451       0.00501213       0.01178959
Li      11.08625070      12.71089651       2.84379287       0.00710612       0.00368382      -0.00902610
O        9.63611970       0.05295262       3.85922385       0.00477776      -0.00351119      -0.00875258
O       10.47763083       2.62386792       3.51520411      -0.00040671       0.00158498       0.01542631
O       10.82366745       1.26941903       5.90218322      -0.00837576      -0.01703098       0.00530934
O        8.40481784       2.02100663       5.20005312      -0.00656009      -0.01813143       0.00072879
Cr       9.79154817       1.43839319       4.69054492      -0.00271809      -0.00950599       0.00194371
Cr      11.93268014       2.35451378       2.59812131       0.00461000       0.00843924       0.02197045
O       12.06420886       3.53203882       1.54746672       0.01272239       0.01869047       0.03516531
O       13.20690292       2.29634951       3.59179080      -0.00087553      -0.00248024       0.02813548
O       11.89773331       0.87974747       1.87106025       0.00678210       0.01571923       0.00800079
O        2.00342741       2.78824778      11.41027909      -0.00351067      -0.01093534      -0.00154775
O        3.63362148       3.15607571      12.88118381      -0.00454953      -0.01728266       0.00050337
O        1.59528744       4.05231818      13.23120746      -0.00350332      -0.02563089       0.00493920
C        3.09072241       1.94000339      11.00109952      -0.00315762      -0.00865945      -0.00530210
C        4.27114746       2.53295119      11.74698627      -0.00367820      -0.01207086      -0.00188649
C        2.34214405       3.39941523      12.57279878      -0.00698966      -0.01628324       0.00417882
H        3.18802310       1.99024514       9.91906935      -0.00326731      -0.00353318      -0.00481290
H        2.86788917       0.91762505      11.31342748      -0.00336382      -0.01001373      -0.01002765
H        4.98360496       1.79737964      12.10863389      -0.00391631      -0.01356864      -0.00465694
H        4.80042213       3.30421769      11.18959857      -0.00348321      -0.00947270       0.00199264
O        3.71227490       2.40195401       2.78339310      -0.00127807      -0.00501640       0.01474768
O        4.24774977       0.79239012       1.36709981      -0.00419748       0.00112641       0.00719959
O        2.13903548       0.95411566       2.10488963      -0.00093767      -0.00441979       0.01516109
C        5.10144878       2.67484983       2.42119289      -0.00489366       0.00163543       0.00755098
C        5.52147205       1.36036416       1.78611237      -0.00401592       0.00668135      -0.00179715
C        3.27865836       1.36751209       2.08591529      -0.00223103      -0.00322296       0.01259069
H        5.64239330       2.92300706       3.32950630      -0.00002718      -0.00057389       0.00501242
H        5.10410936       3.51842103       1.73820807      -0.01210239       0.00457597       0.01156825
H        6.14416952       1.47655434       0.90324426      -0.01256584       0.01350233      -0.00630543
H        5.97760717       0.66030504       2.48633136       0.00644341       0.00635430      -0.00981936
O        8.32918639       5.10971344       3.33439901       0.01818964       0.00322890       0.00427282
O        8.44594625       5.96742411       1.28352715       0.00594854      -0.00124305       0.00203305
O        6.44844114       5.33697849       2.11455680       0.01222682      -0.01253331       0.00966524
C        9.67576592       5.59985274       3.19193998       0.01513911       0.00919588      -0.00153577
C        9.81465702       5.75496233       1.69472483       0.00867847       0.01058458      -0.00210357
C        7.63065896       5.45775869       2.22182930       0.01365387      -0.00411976       0.00591301
H       10.35222707       4.86558563       3.61804505       0.02053705       0.01231569      -0.00491175
H        9.75148496       6.55856067       3.71195812       0.01328481       0.00888103      -0.00125022
H       10.40199190       6.61367703       1.39094111      -0.00021222       0.01609224      -0.00296791
H       10.18264839       4.84625942       1.22172267       0.01536772       0.01460373      -0.00392066
O       11.02467399       3.06347253       9.50797996       0.00462903       0.00502181      -0.00141314
O       13.20024282       3.02836646       9.06027949       0.00144743       0.00203067      -0.01526670
O       12.28651147       4.84713959      10.02375537       0.01051395       0.00270724      -0.00911185
C       11.27501123       1.73263169       9.02074957      -0.00074208       0.00556734      -0.00548835
C       12.68272023       1.83174049       8.44723498      -0.00420079       0.00377633      -0.01350415
C       12.18649859       3.74680636       9.56733261       0.00576591       0.00343317      -0.00838369
H       10.52730288       1.47971928       8.27185780      -0.00554243       0.00814906      -0.00121060
H       11.21274468       1.05483148       9.87415347       0.00302571       0.00408646      -0.00658226
H       13.32632129       1.00108897       8.73224062      -0.00413084       0.00232276      -0.01850024
H       12.67277276       1.96072248       7.36699828      -0.00965657       0.00510293      -0.01307917
O        7.59363298       2.20694907      11.91042848       0.01914488      -0.02159241       0.02434324
O        8.99511710       3.88859199      12.30999653       0.01172557      -0.01002842      -0.00373920
O        6.81747578       4.32948531      11.95052409       0.01077574      -0.02557063      -0.00442111
C        8.92248735       1.66185565      11.76290033       0.02196653      -0.01597959       0.02629399
C        9.76913753       2.68598963      12.48498881       0.01818365      -0.00329605       0.01087591
C        7.71819968       3.55647740      12.04709601       0.01410192      -0.01945198       0.00417358
H        9.12776179       1.60697147      10.69446007       0.02056377      -0.02883219       0.02648330
H        8.95135811       0.67635672      12.21608514       0.02773045      -0.01052767       0.03751633
H        9.85660700       2.47956761      13.55211850       0.02167659       0.01136233       0.01319247
H       10.75414991       2.84689912      12.05866781       0.01691687      -0.00389760       0.00735562
O       11.21706306       6.60023523       6.22471355      -0.00599539      -0.00348241      -0.01144801
O       11.66645673       4.52066575       6.87605346      -0.00956926      -0.00414125      -0.01240170
O       13.35549673       5.90568078       6.33102953      -0.00845790      -0.00969285      -0.01997580
C        9.96793059       6.07134202       6.70884110      -0.00612512       0.00031048      -0.00787602
C       10.23000677       4.57461855       6.74556294      -0.00992075      -0.00027823      -0.00599361
C       12.19002068       5.69355242       6.47193540      -0.00734079      -0.00603355      -0.01533484
H        9.17922786       6.36258140       6.02076314      -0.00686505       0.00075140      -0.00667679
H        9.78459311       6.49885122       7.69479981      -0.00297166       0.00251007      -0.00832146
H        9.79549609       4.05923883       7.59632847      -0.00718607       0.00315408      -0.00260323
H        9.94647656       4.07010561       5.82291813      -0.01545803      -0.00116257      -0.00371623
O        3.52248941       8.58358690       1.50442547      -0.00501406      -0.01277187       0.01431218
O        3.61369513       6.52614545       0.67115976       0.00092754      -0.00475132      -0.00432099
O        5.35980868       7.94158773       0.38197039      -0.02403581       0.00066879       0.01705199
C        2.35876190       7.92622205       2.03403178      -0.00822975      -0.02024558      -0.00006321
C        2.27413923       6.66914846       1.18210053      -0.00216638      -0.00906056      -0.01607612
C        4.27520354       7.68820113       0.80151615       0.01719421       0.00073433      -0.00559086
H        1.49799141       8.58545413       1.91968680      -0.00969395      -0.02040720       0.00267543
H        2.52746957       7.71884879       3.09230872      -0.01478054      -0.03457126      -0.00139564
H        2.02520636       5.77419811       1.73734284      -0.00876273      -0.01694372      -0.03232339
H        1.59295355       6.76845127       0.33734415       0.00728172       0.00532789      -0.02242956
O        8.13460300      10.98581796      11.23790176      -0.00397406       0.00905618       0.00910043
O        6.17263562      10.21215459      10.53130039       0.00348008       0.00873946      -0.00991367
O        7.70976978       8.78410610      11.35413679       0.00149566       0.00805485      -0.00876737
C        7.39233162      12.16854588      10.91132592      -0.00248882       0.00930905       0.00613953
C        6.06855616      11.63460054      10.37452940       0.00090462       0.00931663      -0.00243379
C        7.35988322       9.89097026      11.08141369       0.00064033       0.00824106      -0.00346339
H        7.93966756      12.74253542      10.16947872       0.00129735       0.00929660       0.00981873
H        7.25166286      12.74112781      11.82270059      -0.00775244       0.00903158       0.00515020
H        5.21136700      11.97161218      10.95360016      -0.00217110       0.00409229      -0.00420946
H        5.93795531      11.86994240       9.32074279       0.00433398       0.01467059      -0.00145853
O        3.98741884      11.29468786      -0.04595576      -0.01297665      -0.00461939       0.00902135
O        4.93393545      11.31236504       1.96227078      -0.00188500       0.00334996       0.00328892
O        6.22561683      11.30509465       0.13489723      -0.01433349       0.00660604      -0.00230187
C        2.87555263      11.38904592       0.86414657      -0.00790113      -0.00584717       0.01511681
C        3.52699784      11.34142692       2.25075481      -0.00014319      -0.00417493       0.01149315
C        5.13847338      11.29134121       0.64571478      -0.00640023       0.00234345       0.00132594
H        2.21079453      10.55229966       0.67225765      -0.00750718      -0.00692815       0.01970997
H        2.36809285      12.33157478       0.67470914      -0.01031482      -0.00696570       0.01757640
H        3.32280503      12.22823259       2.84235924      -0.00115567      -0.00597179       0.01361644
H        3.28141954      10.45622758       2.82396180       0.00756823      -0.00627434       0.01104283
O        3.86567323       9.57490348       6.70434227       0.00315762      -0.00169554      -0.00382938
O        2.76111238       8.37111806       8.20682812      -0.00154998      -0.00172210      -0.00777337
O        2.37539039       8.04264067       6.00881711       0.01200986      -0.00841057      -0.00929904
C        4.51020708       9.85117647       7.96218847      -0.00611621       0.00532109      -0.00059050
C        3.49786652       9.34535704       8.97627798      -0.00830939       0.00100148      -0.00520027
C        2.94366588       8.60847140       6.89444342       0.00603211      -0.00358462      -0.00606167
H        4.69983546      10.91805409       8.00508938      -0.01367451       0.00675830      -0.00115453
H        5.44792993       9.29534430       8.00829302      -0.00278071       0.01202771       0.00543198
H        3.95112165       8.84697256       9.82690871      -0.00950614       0.00233713      -0.00367364
H        2.79666534      10.11442755       9.30552128      -0.01273715      -0.00229886      -0.00750055
O       10.52449986       8.72452984      10.67627709       0.00583822       0.00134428      -0.00483519
O       10.45788393       7.77310222      12.67289850      -0.00679559       0.00264654      -0.00490913
O       10.89043391       9.97159795      12.50350305      -0.00590906       0.00190103      -0.00300658
C       10.16755383       7.36067030      10.39506598       0.00295397       0.00254880      -0.00586665
C       10.03008658       6.72546178      11.77757731       0.00026296       0.00182489      -0.00645602
C       10.63878279       8.91212755      12.00177596      -0.00312173       0.00207311      -0.00455481
H       10.96647345       6.91524423       9.80561846       0.00222826       0.00111473      -0.00529337
H        9.22201952       7.37217026       9.85667340       0.00369221       0.00550443      -0.00645295
H        9.00605656       6.46959717      12.03173445       0.00049603      -0.00192241      -0.01008873
H       10.69014950       5.87322237      11.91043422       0.00214195       0.00385052      -0.00466865
O       10.29963765      11.19353360       1.80699560      -0.00320756       0.00387541      -0.00507158
O        9.79311159       9.03891225       1.86779035      -0.00962201       0.00580485      -0.00168906
O       11.93532640       9.67418742       2.10439698      -0.00769472      -0.00031066      -0.00399403
C        8.84725558      11.15246983       1.66485401      -0.00331345       0.00795549      -0.00534809
C        8.57513185       9.67893203       1.40758736      -0.00701740       0.00897312      -0.00424916
C       10.78103139       9.93076685       1.90991477      -0.00758624       0.00296868      -0.00348477
H        8.57488579      11.77759696       0.82247689      -0.00128762       0.00795907      -0.00585857
H        8.41230279      11.52982907       2.58950794      -0.00212854       0.01014914      -0.00591469
H        7.74075230       9.28524137       1.97965096      -0.00928441       0.01173732      -0.00558218
H        8.44098337       9.43351473       0.35775652      -0.00517729       0.00852025      -0.00429994
O        7.99479296       3.21472677       8.94709141      -0.00087202      -0.00215787       0.01005454
O        6.33210034       2.56828915       7.62401044      -0.00097075      -0.01818347       0.01856169
O        7.64335668       1.02005524       8.60672436       0.00941873      -0.00424898       0.02290930
C        7.23759734       4.41675118       8.64922868      -0.00639509      -0.00742206       0.00346059
C        6.46162679       4.00152426       7.41984334      -0.00784308      -0.01916239       0.00827813
C        7.34218690       2.16219804       8.39376522       0.00370120      -0.00940663       0.01825425
H        7.93599891       5.23445936       8.48686310      -0.01001805      -0.00624678      -0.00420389
H        6.60849634       4.65429670       9.50432509      -0.00468644      -0.00420021       0.00368887
H        5.47298571       4.43567224       7.34628490      -0.00966603      -0.02380587       0.00730835
H        7.00460663       4.15049946       6.48538373      -0.01031160      -0.02356447       0.00624180
O        3.58666331       5.41344764       8.38346776      -0.00498492       0.01056653      -0.00811556
O        3.14155647       6.38797824      10.32872405       0.00597781       0.00429259      -0.00284430
O        5.16528291       6.66221163       9.37303861       0.00214756       0.00018024      -0.01512227
C        2.24000516       5.00201683       8.69253425      -0.00312661       0.00799832      -0.00001723
C        1.85869583       5.89619108       9.86754809       0.00501004       0.00540528       0.00449207
C        4.05903747       6.20064809       9.36804671       0.00090462       0.00476125      -0.00679793
H        2.25594694       3.94611281       8.95333264      -0.00202811       0.00737590      -0.00174336
H        1.62169246       5.16694462       7.81468901      -0.01295170       0.00790979       0.00677791
H        1.25323825       6.74680637       9.56215160       0.00346524       0.00621837       0.01103204
H        1.37587499       5.36358349      10.67983469       0.01377797       0.00456095       0.00851387
O       12.46051766      10.57636311       9.44589250       0.00292385       0.00115979      -0.00903688
O       11.01764829       9.53231063       8.11614875      -0.00509769       0.00723082      -0.00417019
O       12.97193260       8.54557678       8.62130873      -0.00310129       0.00404197      -0.01850025
C       11.27817887      11.39195118       9.49308111       0.00442903       0.00271252      -0.00099826
C       10.36152925      10.76786686       8.43992269      -0.00227892       0.00637348       0.00292078
C       12.21960503       9.46529646       8.73343332      -0.00199950       0.00461447      -0.01163885
H       11.56898077      12.40695375       9.24041688       0.00535701       0.00263971       0.00041433
H       10.87063565      11.33681843      10.50141431       0.00925069       0.00042691       0.00067443
H        9.37426924      10.53709733       8.83157381       0.00140744       0.00434591       0.00993536
H       10.27898704      11.36455185       7.53119074      -0.00923416       0.00851935       0.00508922
O        7.46691737       9.02228450       4.84874447      -0.00889996       0.00240242       0.00725359
O        5.38701013       9.45955481       4.18601558      -0.00149292       0.00209419      -0.01399975
O        6.76600032      11.16465134       4.71105962      -0.00999418       0.00157058       0.00544271
C        6.92159573       7.76503134       4.39367141      -0.00365871       0.00257531       0.00093309
C        5.43545162       8.03021519       4.38112896      -0.00314528       0.00210549      -0.01656722
C        6.54872154       9.99717613       4.59266378      -0.00651777       0.00262409       0.00017723
H        7.21063954       6.96829668       5.07137737      -0.01234895       0.00281200       0.00444797
H        7.30877037       7.56835907       3.39468360       0.00850648       0.00287900       0.00591838
H        4.91478902       7.53452136       3.57017723       0.00734004       0.00436881      -0.02434307
H        4.95743443       7.78637844       5.32580247      -0.01497275      -0.00012980      -0.02369386
O        3.01222803       5.20274169       4.02052781       0.00664562      -0.00189656      -0.00977838
O        3.45388339       3.73005352       5.62387919      -0.01309893       0.02037281       0.01463437
O        5.01005654       5.24298619       5.04342849      -0.00542009       0.01128167       0.01280856
C        1.79122159       4.44250023       4.14017249       0.00454870       0.00092179      -0.01308933
C        2.12358950       3.38546469       5.19307278      -0.00820690       0.01516920       0.00405374
C        3.91852214       4.77078769       4.90826072      -0.00392121       0.01042610       0.00656220
H        1.55129275       4.01232948       3.17276671       0.01485059      -0.01098493      -0.00989729
H        1.00790988       5.11753948       4.47302584       0.00162444       0.00542948      -0.03063956
H        1.45930939       3.42852627       6.05369918      -0.01758769       0.02765396      -0.00450140
H        2.14539721       2.37965785       4.78561835      -0.00393969       0.00988370       0.01850305
O       11.47907889      10.82502141       4.64462025       0.01092601      -0.00053608       0.00001542
O       13.60351351      10.23459983       4.49408270       0.01061264       0.00037260      -0.01129508
O       12.93162007      12.23339953       3.72162498       0.00511926      -0.00179599      -0.00979715
C       11.46510486       9.42042835       5.01620352       0.01345086      -0.00036830      -0.00016253
C       12.94608273       9.04823592       5.03585794       0.01406789       0.00314510       0.00016510
C       12.70056260      11.15492828       4.24654578       0.00838225      -0.00050306      -0.00685629
H       10.89849096       8.88644239       4.25921272       0.01503296      -0.00071247      -0.00087732
H       10.98656878       9.33446074       5.98199995       0.01333079      -0.00105907      -0.00042000
H       13.34648853       8.85525879       6.02626547       0.01574410       0.01250913       0.00126737
H       13.19048953       8.21937141       4.37961831       0.01496612      -0.00209123       0.00753936
