196
Lattice="13.747697428545601 0.0 0.0 0.0 13.747697428545601 0.0 0.0 0.0 13.747697428545601" Properties=species:S:1:pos:R:3:forces:R:3 energy=-171931.828125 stress="-0.0020139236003160477 0.00022949892445467412 7.706693395448383e-06 0.00022949892445467412 -0.002996131544932723 -0.0005087656900286674 7.706693395448383e-06 -0.0005087656900286674 -0.0029137905221432447" pbc="T T T"
Li       6.03426967      13.68780610      11.19630222       0.00910135       0.00125191      -0.00897674
Li       4.96351024      12.83076508       5.75950535       0.00099605       0.00080207      -0.04191464
S       13.27696128       0.70233356       1.37761621      -0.01720000      -0.01157720      -0.03241251
S       13.61972104       0.03271287      -0.43235139       0.05960883      -0.05813801      -0.00078046
O        8.13578640       7.38144684       2.64413148       0.03550985       0.01960850       0.05384369
O       10.00532414       8.52366965       2.16824963       0.00330508       0.00982970      -0.08714071
C        7.92117596       9.70494805       2.24349176       0.00535935       0.00747353      -0.00222417
C        8.81046066       8.51202940       2.35789754       0.01261055       0.01329722      -0.01643458
H        7.77326700       9.89375744       1.17991315       0.00089933       0.01157764      -0.00080734
H        6.95830704       9.53081722       2.71437114       0.01018983       0.00142032       0.00468545
H        8.43763298      10.57319774       2.64427264       0.00365750       0.00920491      -0.00288764
H        8.79769964       6.66782633       2.68666352       0.03808123       0.02072589       0.02912477
O        7.89820799       3.93549217       4.39861652      -0.04530615       0.04802094      -0.00997388
O        9.43879655       5.56474837       4.33492685       0.03612973      -0.02504402       0.01679163
C        8.14730965       5.21859530       6.34434066      -0.00476225       0.02097846       0.00190628
C        8.58204561       4.96524998       4.93509623      -0.00604314       0.00875926       0.00806993
H        7.06552105       5.35242349       6.38435826      -0.00322381       0.03305525      -0.00065455
H        8.38749573       4.35374621       6.96799990      -0.01509523       0.01941402       0.00408572
H        8.65772086       6.09455768       6.73259141       0.00562894       0.01457076       0.00219894
H        8.26856661       3.75890051       3.51952909      -0.03757960       0.03069332      -0.00257272
O        6.33079156       9.87108902       8.39587936      -0.04931802      -0.00007051       0.00837135
O        4.36526958       8.82927342       8.09968676      -0.03174227      -0.03627129      -0.07158002
C        6.31550140       7.51517975       8.65013590      -0.01361963       0.00221598       0.01623464
C        5.53112618       8.75536677       8.36888152      -0.00370455      -0.02028896      -0.01126422
H        7.00067269       7.34804081       7.81787109      -0.00258973      -0.00082348       0.02489720
H        6.90334341       7.63109415       9.55863228      -0.01958241       0.02086217       0.01900509
H        5.64670637       6.66548255       8.73504567      -0.00010169      -0.00800802       0.02046101
H        5.80681965      10.55718495       7.95546040      -0.04274738      -0.01380250      -0.01376837
O        2.05997590       3.73899955       5.37225864       0.03074163       0.01015389       0.02379281
O        3.52064323       5.42534615       5.65245250       0.04987304      -0.00178146       0.00633660
C        4.29897738       3.16664715       5.84057553       0.02828366      -0.00902057       0.01233602
C        3.28583285       4.24531483       5.61735096       0.03673347      -0.00336337       0.01502866
H        3.94563965       2.45769420       6.58800007       0.02129611      -0.01356572       0.00385512
H        4.44500291       2.62890382       4.90550226       0.02878215      -0.00205616       0.00868669
H        5.23891946       3.61122702       6.15145609       0.02996551      -0.01754214       0.01842686
H        1.42788117       4.48988030       5.26724471       0.03598601       0.01311344       0.01823638
O       12.58672490      11.35696923       7.69635496      -0.00771242      -0.02676070      -0.00885506
O       11.10750003      10.82526608       9.31251909      -0.03167754      -0.07963055      -0.04733843
C       10.64996897      12.66472522       7.83649961      -0.00103259      -0.01729995       0.02952912
C       11.46290269      11.52950929       8.39304034      -0.01270416      -0.04527003      -0.01489735
H       11.27575881      13.44907660       7.41197869       0.00636978      -0.01567514       0.04624362
H       10.06092715      12.23562240       7.01993035      -0.01971559       0.01403583       0.02705936
H        9.97217847      13.06595680       8.58114430       0.01348308      -0.03098409       0.05001478
H       12.90652351      10.42439361       7.74857602      -0.02071569      -0.03773913      -0.05278340
O        7.72930325      11.54628700       5.01957819       0.01267886      -0.00515497       0.03259879
O        5.71835097      11.13144122       5.87618635      -0.00151184      -0.01719724      -0.00431634
C        7.27472668       9.31000367       5.60239635       0.00957492      -0.00928599       0.00900410
C        6.81641859      10.71167441       5.50551616       0.00804991      -0.01000801       0.01090483
H        7.93966704       9.06362096       4.78123613       0.00405020      -0.01732466       0.00515321
H        7.83447258       9.22529543       6.53621143       0.00891015      -0.00946841       0.00972244
H        6.42047326       8.64131932       5.61240251       0.00208443       0.00201631       0.01518074
H        7.33574104      12.43684520       5.06868481       0.01007247      -0.00493377       0.02828512
O        4.31035532       3.00502111       0.82378612      -0.01830107      -0.00721535       0.02527034
O        4.72329424       1.99077934       2.77347598      -0.02761102      -0.03147216       0.01415119
C        3.63833393       0.75932376       1.02550850      -0.02375688      -0.00816795      -0.00179966
C        4.26415188       1.95742186       1.63713513      -0.02387599      -0.01648238       0.01231137
H        2.68725381       1.00766727       0.55324666      -0.02135402      -0.00345740      -0.00364029
H        4.30163450       0.35390449       0.25984978      -0.02174595      -0.00213508      -0.00280890
H        3.47915867      -0.01029252       1.77384304      -0.02736365      -0.01455319      -0.00955108
H        4.65688222       3.77124211       1.31120398      -0.02365091      -0.01231599       0.03666657
O       12.30141139       7.44672995       5.21885368       0.01131797       0.00926328      -0.00008323
O       13.13518037       8.88842329       6.72012509      -0.02925259      -0.01600373       0.04366225
C       11.15688694       9.46692931       5.45575354       0.01070458       0.01019824      -0.00371481
C       12.31100993       8.60535817       5.86871971      -0.00530738      -0.00098303       0.01397514
H       10.94021368       9.34564897       4.39557043       0.02590506       0.01079436      -0.00610623
H       10.28088847       9.13012544       6.01739363       0.00062016       0.02218178      -0.01299753
H       11.35486921      10.50397202       5.69860219       0.01785132       0.00862999      -0.00377536
H       12.98466442       6.83106202       5.56829556       0.00512078       0.00421454       0.00521287
O        9.77065947       7.00871009      10.66500487      -0.00182752       0.00394469      -0.02029115
O       11.73966072       6.88101526       9.63870808       0.00263545       0.00437436      -0.01004586
C       11.46605376       5.78126168      11.76969857      -0.00635253       0.00935599      -0.00942498
C       11.04904757       6.58785718      10.59427230      -0.00209236       0.00612775      -0.01386306
H       11.76633721       6.45768879      12.57390544      -0.00964992       0.01170714      -0.00991434
H       10.64743873       5.17762971      12.15137384      -0.00766134       0.00756578      -0.01476523
H       12.31057312       5.15721189      11.49953844      -0.00336388       0.01088193      -0.00415591
H        9.61799378       7.54409122       9.87222849       0.00262516       0.00942561      -0.01748806
O        7.14008970       1.44400565       3.71971898       0.00124872       0.04142219      -0.02390766
O        6.34658762       0.25999415       5.42751663       0.02061331      -0.02759404      -0.06564805
C        8.57578077       1.10052529       5.57144364      -0.00170274       0.02003629      -0.02247502
C        7.26170052       0.91090218       4.90389433       0.01054642       0.00703561      -0.04197437
H        8.84403800       0.19714146       6.11791219      -0.00422553       0.02617934      -0.01195227
H        9.34856512       1.36575155       4.85667046       0.01103199       0.02472365      -0.00676712
H        8.47587271       1.89776511       6.31178076      -0.02364221       0.02589118      -0.03185317
H        6.19746819       1.44151176       3.41687364       0.00037199       0.02605683      -0.02337333
O        0.36826312       5.73391514       9.13180158      -0.00816000      -0.00202769      -0.00461179
O        1.62926589       7.56511422       9.51032760      -0.03343808       0.02810717      -0.01487318
C        2.69448945       5.49768804       8.85311284      -0.00361431       0.02769589       0.00541092
C        1.56579805       6.41294849       9.20263138      -0.01466700      -0.00610232      -0.01384917
H        2.83371925       4.78352549       9.66727988       0.01121134       0.04501647       0.01873815
H        2.44766116       4.94834161       7.94661462       0.00634746       0.00253059       0.01687796
H        3.59816639       6.07543872       8.70110123      -0.01378840       0.03947662      -0.00946048
H       -0.36870706       6.34029443       9.38530875      -0.01445345      -0.01070309      -0.01015875
O        9.77481652      13.32237140      13.15445758      -0.00734711       0.00622465       0.02196217
O        8.69772743      11.36995304      13.28349642      -0.03635508       0.02214821      -0.00193933
C       11.08657511      11.36151665      12.88801932      -0.03738523      -0.01027945      -0.00241409
C        9.75072405      11.94779726      13.14449685      -0.02801287       0.00730783       0.00667882
H       11.34401185      11.50975407      11.83538112      -0.05669082      -0.03172800      -0.01041952
H       11.84181681      11.87699289      13.47942073      -0.02027249      -0.00971003      -0.02534491
H       11.08180466      10.30087499      13.11915191      -0.04631957      -0.00632688       0.01393799
H        8.84826455      13.57996100      13.25317271      -0.00368166       0.01760212       0.02596703
O        3.17402147       7.32132914       3.61338403      -0.00378036       0.00533533       0.00885874
O        5.15157918       8.35994168       3.64262559      -0.00633544       0.01103085       0.00625074
C        4.92733694       6.26968906       2.45652686      -0.00284210       0.01372892       0.00327173
C        4.46264996       7.42961229       3.28486493      -0.00439352       0.01004040       0.00627536
H        5.25596716       5.49135389       3.15263132      -0.01436029       0.00807364       0.00209698
H        4.09705307       5.87828279       1.86784166       0.00178075       0.02191487      -0.00840182
H        5.77722910       6.56870308       1.85003546       0.00415108       0.01322744       0.01324699
H        2.98061802       7.98880507       4.28784979      -0.00396911       0.00425297       0.00921619
O        9.75477279       1.74756363       9.40523874       0.02228665       0.01625407       0.01346242
O        9.09744200       3.06818782      11.10657562      -0.01392568       0.00418544       0.01109381
C        7.94201480       1.00179733      10.69949230       0.01550512      -0.00914520      -0.00997816
C        8.98525498       2.06626463      10.45661235       0.00577266       0.00044286       0.00321692
H        7.20164907       1.05623956       9.88765833       0.01542540      -0.00446837      -0.00928469
H        8.39633036       0.00654741      10.70289372       0.02070341      -0.00642553      -0.02208425
H        7.48874340       1.24256250      11.66929505       0.01326066      -0.02269433      -0.00785279
H       10.44482234       2.42536843       9.32873134       0.01335061       0.02577722       0.02199627
O        3.47782787      11.62162408      -0.08083791      -0.00085431       0.00131240      -0.01107404
O        2.70844300       9.51009293      -0.01538039      -0.00603521       0.00123900       0.00398435
C        5.03962434       9.89615948       0.40455430      -0.00198781       0.00167494      -0.00777529
C        3.63540076      10.26624603       0.06326021       0.00083905       0.00516003      -0.00344045
H        5.77845460      10.40838788      -0.20558437      -0.00062382       0.01548709       0.00556437
H        5.22015150      10.18663139       1.44144924      -0.00648329      -0.01839913      -0.00141585
H        5.17414732       8.82308519       0.31159582       0.00202577       0.00388771      -0.02589954
H        2.51638945      11.77602428      -0.02926866       0.00021029       0.00589168      -0.01482879
O        0.29342463       3.78306136      10.97365402      -0.00241114      -0.00486955      -0.00770622
O        1.70621417       5.22500123      11.93397553      -0.00531232      -0.00936615       0.00227162
C        0.68353624       3.52440677      13.28131017      -0.00596970      -0.01876709      -0.00930125
C        0.96694189       4.26183296      12.02462126      -0.00517493      -0.01182687      -0.00524609
H       -0.29522554       3.83053823      13.66065355      -0.00648063      -0.02052135      -0.00962245
H        0.60875185       2.45692378      13.08831966      -0.00482896      -0.01793766      -0.01382928
H        1.41864422       3.75389861      14.04620001      -0.00700641      -0.02166961      -0.00768110
H        0.41762237       4.40988165      10.21787856      -0.00085343      -0.00130337      -0.00609733
O        8.28415047      10.75207032      10.52925860       0.00962594       0.03871417      -0.03211536
O        6.78566098       9.22063660      11.25797092       0.05682284       0.00714079       0.00643753
C        6.17628339      11.53998736      11.12552271       0.00112578      -0.00531510      -0.00629380
C        7.09497736      10.34402196      10.98506732       0.02764623       0.01952040      -0.01060182
H        6.52944529      12.06494346      12.03081595      -0.01071986      -0.00049421      -0.00515205
H        6.29100461      12.13150232      10.20536069      -0.01640087      -0.00464669      -0.00777301
H        5.14379820      11.22271961      11.25723216       0.00830957      -0.02556503      -0.00413653
H        8.91864836      10.02004590      10.54929270       0.02693024       0.05348742      -0.05028360
O        4.92068391       1.42504174      11.30267766       0.00581595      -0.00356317       0.01928011
O        3.17267629       2.81314357      11.21392473       0.00416851      -0.00610912      -0.04217522
C        2.72157660       0.43791865      11.21065832       0.00892894      -0.00830412      -0.00937179
C        3.52833636       1.68078165      11.24589995       0.00665075      -0.01001464      -0.01507637
H        2.62993346       0.09423806      10.17659760       0.01036745      -0.01515804      -0.00687811
H        3.16563873      -0.36302182      11.80394050       0.00712225      -0.00402562      -0.00254685
H        1.72387418       0.65657635      11.59300577       0.00727868      -0.00714135      -0.01445322
H        5.32193198       2.30865586      11.32386752       0.00395268      -0.00338566       0.01880142
O        1.15830549      11.74112013       1.72887386       0.02323210       0.01513320       0.03277820
O        0.32483223      10.99776710       3.67961174       0.00678301      -0.01190279       0.01347214
C        2.65660233      10.68344464       3.18763590       0.00760347      -0.02001047       0.01924695
C        1.25390536      11.14247782       2.92372352       0.01081985      -0.00511922       0.02313113
H        2.85739636       9.79397968       2.58970521      -0.00396448      -0.01368704       0.00637962
H        3.37734451      11.44278479       2.88190851       0.01296061      -0.02381383       0.02407197
H        2.77801661      10.43954310       4.23925098       0.01362807      -0.03309876       0.01582469
H        0.28131051      12.16269258       1.63780345       0.02330065       0.01505934       0.02849556
O        8.53784304       8.00911076      13.26229533       0.04973298      -0.03533256       0.01827732
O        9.31137659       6.03775292      14.00672202      -0.03413785      -0.06223774       0.03194791
C        7.34192663       6.05870025      12.64099447      -0.01212031       0.00899357       0.00112864
C        8.50033115       6.66824920      13.36917176      -0.00197673      -0.03207320       0.01744074
H        6.46442890       6.09153821      13.29106661      -0.01215091       0.01289883       0.00078431
H        7.10264935       6.61346396      11.73843101       0.00237477       0.03352690       0.01310882
H        7.58147109       5.02152510      12.42056090      -0.03412595       0.00897321      -0.02084053
H        9.29595560       8.32025466      13.78669600       0.04542533      -0.06478579       0.04339066
O        1.62707389       6.76814225       0.31007456      -0.06581593       0.00706482      -0.01670218
O        1.69927890       5.24331797       1.96380748       0.01062036       0.01243961      -0.01719564
C        0.52656805       7.33250985       2.27733445      -0.02330202      -0.01177478       0.01282483
C        1.34416674       6.32511881       1.53107108      -0.02321577       0.00392163      -0.00849318
H        0.97511249       8.31731118       2.15588747      -0.04104371      -0.00426847       0.00888339
H       -0.46576311       7.38761222       1.82720308      -0.03484750      -0.02560643       0.03679240
H        0.43394205       7.06996679       3.32414079       0.00720614      -0.01646520       0.01385942
H        1.94227059       6.06097500      -0.30057196      -0.04493085       0.01420331      -0.01458940
O        9.92098516      13.89136551       2.53496720       0.01989061       0.01613876       0.01003122
O       10.72718109      11.84333140       2.10736679       0.00336646       0.00871718       0.00845921
C       11.39074747      12.96270263       4.13533657       0.01558554       0.00477850       0.00756997
C       10.68783293      12.80652520       2.83047408       0.01221296       0.01235193       0.01025414
H       11.85684117      13.94509332       4.20155421       0.00541711       0.00858861       0.01879100
H       10.65480140      12.88128952       4.93664594       0.01969750      -0.01447141       0.00972283
H       12.13919400      12.18480149       4.23866346       0.02396294       0.01148483      -0.00407432
H        9.61627696      13.74656501       1.62749665       0.02209021       0.02082421       0.00890273
O        3.39707294      13.65049360       5.06851783      -0.00272176       0.00382668      -0.01166493
O        1.27682400      14.04199520       4.44620463      -0.00722943       0.02253637       0.02022825
C        1.67798786      12.49828851       6.26530965       0.00161339       0.00414616       0.00015599
C        2.01544219      13.45102324       5.17339588      -0.00058353       0.00956079       0.00624862
H        2.38391217      11.66783385       6.32026339       0.00394775       0.00635745       0.00135240
H        1.71708871      13.03003490       7.22133505      -0.00898240       0.00332071       0.00076482
H        0.67351589      12.11495134       6.12244512       0.00345260       0.00317930      -0.00867547
H        3.53776245      14.33595871       4.39162311      -0.01077067       0.00700736      -0.01049495
O       13.32148706       3.21368887       6.80307525       0.01919609       0.00240418      -0.01390436
O       13.66423128       5.23263683       5.89913848       0.01338494       0.00427688      -0.01228761
C       11.60018769       4.81803526       7.03580383       0.01872015      -0.00070024      -0.00509137
C       12.95874058       4.46594643       6.53740483       0.01647750       0.00121891      -0.01115708
H       10.92761414       4.79924059       6.17643831       0.01628067       0.01758821      -0.00332224
H       11.25717730       4.11842406       7.79438507       0.01777125      -0.01184791      -0.01618300
H       11.60137312       5.83179413       7.42925496       0.02463799      -0.00759512       0.01255164
H       14.19813019       3.05281965       6.40491252       0.01966375       0.00374884      -0.01300678
