192
Lattice="13.690249343283266 0.0 0.0 0.0 13.690249343283266 0.0 0.0 0.0 13.690249343283266" Properties=species:S:1:pos:R:3:forces:R:3 energy=-181392.90625 stress="0.0011474627535790205 9.605265222489834e-05 -3.758121783903334e-05 9.605265222489834e-05 0.0007434634026139975 0.00012054050239385106 -3.758121783903334e-05 0.00012054050239385106 -0.0003802688734140247" pbc="T T T"
Li       5.92959949      13.62081334       8.67287555       0.02136838       0.00917449       0.01012184
Li       0.71001047      16.37241145       3.72702695      -0.01023115      -0.00477913      -0.02058475
S        8.60997698       4.20032938       3.54149920       0.00776982       0.00705564       0.00672323
S       13.34810965       4.93515719       4.17851267       0.00094569      -0.01902640       0.00616191
S       10.25980941       5.34636022       2.58952221       0.01231584      -0.01701239      -0.00942959
S       11.51121647       6.07298593       3.98049596       0.01682937      -0.00282905      -0.02144155
O        8.19228236       4.97289666       4.69743740       0.01616424       0.01729620      -0.00151324
O       13.94244189       4.63831557       2.86654247       0.01048684      -0.03034723       0.01639831
O        9.12422954       2.87675253       3.84116691       0.00733125       0.00275147       0.02220109
O        7.70769026       4.26623837       2.39601622       0.00770020      -0.00703446       0.01007760
O       14.06645047       5.89131807       4.98821788       0.00554633      -0.01303768       0.00484574
O       13.08126580       3.64945217       4.85685283      -0.01570591      -0.00574267       0.01273710
O       10.12056690      11.99013397      11.07918051       0.00614370      -0.00228851       0.00257590
O       12.00604951      11.65033389      10.08792036       0.00451539      -0.00025333      -0.00051597
O       10.39233496      12.78313970       8.97518555      -0.00061525      -0.00405788      -0.00114501
C        8.77776892      12.52521990      11.09034647       0.00530193      -0.00467759       0.00447273
C        8.12120964      12.05352856      12.35955473       0.00790261      -0.00272037       0.00663829
C       10.79709533      12.19875087       9.95231301       0.00489834      -0.00487447       0.00401616
C       12.83083271      11.73498586       8.91670021       0.00226253      -0.00103115      -0.00243837
H        8.83992668      13.61637190      11.03693248       0.00359177      -0.00465316       0.00221173
H        8.25093581      12.15751210      10.20759080       0.00427531      -0.00709422       0.00584868
H        7.10183649      12.43932144      12.40595917       0.00715613      -0.00497083       0.00703057
H        8.07946244      10.96458017      12.39005586       0.01058490      -0.00264207       0.01001265
H        8.66336260      12.40493416      13.23706721       0.00831822       0.00123136       0.00502938
H       12.35403481      11.22680096       8.07939654       0.00016986      -0.00144701      -0.00111468
H       13.75854449      11.23721179       9.18231680       0.00287479      -0.00059469      -0.00459775
H       13.01092499      12.77870612       8.65904218       0.00141095      -0.00096470      -0.00345932
O        6.01241600       3.22770928      12.21918823      -0.00384090       0.00365193       0.01271607
O        4.55843883       4.55216983      11.32042965      -0.00343792       0.00445659       0.01261361
O        3.90544172       2.46439063      11.90691280       0.00382030      -0.00328135      -0.01245936
C        6.35510257       1.99274471      12.90522142      -0.00344396      -0.00023639       0.00532970
C        7.80521806       2.08606422      13.29553785      -0.00438920       0.00000526       0.00848117
C        4.74995495       3.32420139      11.83070712      -0.00261760      -0.00045651       0.00283487
C        3.19694794       4.83028320      10.96333559      -0.00236456       0.00188959       0.00597271
H        5.69836138       1.89341836      13.77011954      -0.00495300      -0.00594501       0.00333399
H        6.15460399       1.16168859      12.22382383      -0.00050060       0.00335801       0.00028419
H        8.09314566       1.17412289      13.82030274      -0.00483696      -0.00112036       0.00724542
H        8.43414345       2.19870324      12.41154120      -0.00198094       0.00247325       0.01058455
H        7.96989244       2.92227534      13.97503544      -0.00637485      -0.00184458       0.01128730
H        2.80840543       4.07232350      10.28468079       0.00465393       0.00512153      -0.00139806
H        3.21212109       5.80358077      10.48367921      -0.00296336       0.00514627       0.01279696
H        2.57302165       4.85929730      11.85605095      -0.00795223      -0.00634364       0.00223953
O       12.01269587       6.96760438      10.01035415      -0.00067045       0.00495568       0.00896776
O       11.81703904       5.26539824       8.69875425      -0.00042534       0.00812432       0.00485321
O       13.08725276       7.01666201       8.01622426       0.00225872       0.00848001       0.00984049
C       12.51240868       8.29259894      10.27187563      -0.00071579       0.00422286       0.01223445
C       12.17755960       8.62506609      11.70133931      -0.00448227       0.00292002       0.01185238
C       12.37533737       6.47503607       8.82181822       0.00018686       0.00683343       0.00866014
C       12.06683736       4.63506292       7.42914240       0.00274992       0.01053545       0.00413572
H       13.58840427       8.30565581      10.08371291      -0.00031406       0.00423047       0.01490305
H       12.03947767       8.97942367       9.56659097       0.00126892       0.00542867       0.01220486
H       12.52898468       9.63002062      11.93371186      -0.00535477       0.00275604       0.01328312
H       11.10074113       8.59401596      11.86413848      -0.00500694       0.00260427       0.00881788
H       12.64647946       7.91444296      12.38159740      -0.00650635       0.00244726       0.01282859
H       11.64400565       5.23298365       6.62522990       0.00666206       0.01345432       0.00420013
H       11.56506203       3.67245655       7.47766965       0.00101404       0.01125836      -0.00032002
H       13.13280268       4.51497783       7.25930253       0.00311479       0.00926426       0.00830236
O        2.24131791       9.73673029       4.77010223      -0.00441116      -0.00637286       0.00384593
O        2.13253072      11.15317074       3.13901763       0.00543433      -0.00395286       0.00619143
O        0.91728735       9.24816856       2.99843971       0.00099069      -0.00266427      -0.00381011
C        1.88785605       8.44224198       5.33973434      -0.00826767      -0.00573470       0.00247616
C        2.58730155       8.32713921       6.66457632      -0.01088640      -0.00760683       0.00375754
C        1.68755406       9.96566918       3.58241373       0.00327635      -0.00192142       0.00366908
C        1.68940854      11.47158567       1.81836461       0.00894342       0.00185479       0.00658217
H        0.80655341       8.38136257       5.43761799      -0.00882846      -0.00319991       0.00084166
H        2.19495127       7.66953628       4.63750248      -0.00876904      -0.00627735       0.00263533
H        2.31417690       7.37036626       7.10969710      -0.01480773      -0.00654599       0.00358201
H        3.67144815       8.37661327       6.54917726      -0.01061843      -0.01057730       0.00523965
H        2.27526090       9.11741474       7.34738217      -0.00975506      -0.00630194       0.00276279
H        1.76596780      10.60017199       1.17082459       0.01105262       0.00495034       0.00240511
H        2.34916056      12.26081143       1.47493241       0.00878082       0.00422724       0.01210462
H        0.65374927      11.81780943       1.83621974       0.00883415       0.00024480       0.00515573
O       12.79641438       1.61275727       2.64803986      -0.01308784      -0.01254064       0.00467449
O       13.47973574       0.88562580       4.55840810      -0.00713798      -0.00449638      -0.00761184
O       11.31079617       0.52491627       3.98431658       0.01168650      -0.01273778      -0.00379963
C       11.69429653       2.09798475       1.80148598      -0.00979251      -0.02056269      -0.00598292
C       12.29120826       2.85110525       0.64901092      -0.02053069      -0.01039651      -0.00300038
C       12.39576349       0.96286466       3.74506622      -0.00371802      -0.00886095      -0.00628820
C       13.13273750       0.53091941       5.90903869       0.00643823      -0.00161679      -0.00417292
H       11.10992996       1.23145709       1.49596236       0.00150622      -0.03053305      -0.01051866
H       11.06860724       2.72544562       2.43292926      -0.02481365      -0.03253344      -0.00639722
H       11.49079286       3.33639174       0.09252115      -0.02341814      -0.02391301      -0.00601356
H       12.95840322       3.63467924       1.00563381      -0.03366053      -0.00089498       0.00206533
H       12.82877826       2.19443804      -0.03513841      -0.00500419      -0.00140078       0.00078761
H       12.45055138       1.27813145       6.31066180      -0.01051098      -0.01223233      -0.00860770
H       14.06504743       0.53237925       6.45919286       0.00145873       0.01693113      -0.00223178
H       12.66382158      -0.45010806       5.93108400       0.02082442      -0.01158115       0.00022934
O        3.29586142       1.53573569       1.71655516      -0.00577065       0.00268702      -0.00878000
O        4.87305281       1.98329653       3.09474637      -0.01053122       0.00824694      -0.00334314
O        2.72939137       2.36041673       3.74799369      -0.01234052       0.00477555      -0.01425889
C        1.88652209       1.39252385       1.41558978      -0.00524956       0.00250436      -0.01401123
C        1.75351718       0.88935742       0.00363210       0.00063243      -0.00671507      -0.01135069
C        3.56368498       1.99897161       2.93007342      -0.01400679       0.00597152      -0.00670880
C        5.40610585       2.49341622       4.32976271      -0.01850491       0.01486023      -0.00341728
H        1.46038033       0.70030969       2.14394122      -0.00938411       0.00786531      -0.01230934
H        1.40476875       2.36564154       1.53114445      -0.00312239       0.00420943      -0.02205667
H        0.72413606       0.57252907      -0.16335832      -0.00033821      -0.00203573      -0.01554433
H        2.01725952       1.65942945      -0.71523857       0.00957853      -0.01364520      -0.01504707
H        2.40760075       0.03641187      -0.17067097      -0.00387867      -0.01210712      -0.00120980
H        5.24771278       3.56764549       4.39261467      -0.01871665       0.01505172      -0.01082805
H        6.47163031       2.28711514       4.28249126      -0.01826239       0.01454204       0.00379099
H        4.93986814       1.98965982       5.17689531      -0.02336501       0.02013384      -0.00326985
O        9.35950348       8.89503322       2.93990506       0.00580946      -0.00218908      -0.00033163
O        7.60146936       8.13652114       3.93452895       0.00668274       0.00131854       0.00394398
O        7.69681936       8.01433691       1.67359285      -0.01110274       0.02908349       0.00345111
C       10.16716751       9.03311802       1.74860905      -0.00134033       0.00438255      -0.00412600
C       11.43002990       9.74799470       2.14337181       0.00077176       0.00339639      -0.00759855
C        8.17416418       8.30786647       2.74262188      -0.00208747       0.01028219       0.00064027
C        6.34129505       7.44221858       3.89058090       0.00262990       0.00769123       0.00667296
H       10.36927790       8.03120160       1.36433536      -0.00210201       0.00635397      -0.00976409
H        9.59297689       9.57651211       0.99516519      -0.00553641       0.00752345       0.00189915
H       12.09677840       9.81561213       1.28301755      -0.00508345       0.00919762      -0.01144654
H       11.21472989      10.75712895       2.49789349       0.00151166       0.00156794      -0.00089089
H       11.95999479       9.20238144       2.92177400       0.00639100       0.00014867      -0.01400822
H        5.59406130       8.05126303       3.38138642       0.00352451       0.01320186       0.01271901
H        6.07220272       7.29718718       4.93208199       0.00747511       0.00412631       0.00740728
H        6.46840042       6.48520177       3.38897177      -0.00379477       0.00938708       0.00201960
O        9.85740854       5.06715394      11.64624885      -0.00004906      -0.00279868       0.00175700
O       11.48846461       3.71669205      11.25357975      -0.00077476      -0.00265161      -0.00025309
O        9.46403638       3.24162627      10.35791231      -0.00275403      -0.00401860       0.00251067
C        8.45631320       5.43600284      11.55392798       0.00029537      -0.00154567       0.00340846
C        8.30613468       6.79801069      12.17419969       0.00261273      -0.00019956       0.00114179
C       10.19149518       3.95173972      11.01656437       0.00011128      -0.00191379       0.00265861
C       12.00014971       2.54650403      10.61642569      -0.00149113      -0.00369473       0.00107066
H        8.16657563       5.41469519      10.50256518      -0.00129046      -0.00249801       0.00372803
H        7.86954750       4.68793449      12.08197409       0.00011361      -0.00011393       0.00541991
H        7.25133488       7.07581798      12.19867192       0.00317013       0.00206971      -0.00042452
H        8.65629288       6.80188554      13.20547788       0.00227997       0.00065571       0.00141102
H        8.85654745       7.54906997      11.60556124       0.00469495      -0.00248018       0.00022790
H       11.54464769       1.64907017      11.03886303      -0.00443633      -0.00282449      -0.00021350
H       13.06917636       2.55239883      10.81067423      -0.00204211      -0.00601059       0.00362594
H       11.80493253       2.57591532       9.54614394       0.00135761      -0.00318391       0.00030801
O        9.55582778       9.50154968       6.59552377      -0.00275077       0.00160527       0.00609379
O        9.51725872       7.46880094       7.31713031      -0.00326690       0.00153005       0.00732102
O        7.55545352       8.59375687       7.15634259      -0.00197613       0.00167029       0.00602272
C        8.87259547      10.66924451       6.09205381      -0.00353587       0.00001341       0.00521730
C        9.93004865      11.64976074       5.65897165      -0.00401345      -0.00119168      -0.00008380
C        8.75858179       8.52215476       7.02599356      -0.00491512       0.00061394       0.00690891
C        8.77798295       6.29175719       7.69803601      -0.00348082       0.00142693       0.00780371
H        8.23407187      10.35427076       5.26587271      -0.00575617      -0.00131552       0.00757352
H        8.23915887      11.07184885       6.88776930      -0.00097710       0.00248303       0.00591481
H        9.47907868      12.52258302       5.18606253      -0.00584236      -0.00206940      -0.00007775
H       10.50977550      11.99255622       6.51564136      -0.00089882      -0.00002256      -0.00298034
H       10.60038976      11.18926251       4.93403629      -0.00687595      -0.00270109      -0.00176451
H        8.07275433       6.53810931       8.48898745      -0.00653279       0.00265059       0.00454974
H        9.51937855       5.58775397       8.05960529      -0.00376526       0.00341615       0.01249257
H        8.26220580       5.88629098       6.83066158       0.00053596      -0.00110571       0.00653273
O        3.61731240       8.38499740       1.36883459       0.02166538      -0.02084450       0.01810442
O        4.76022284      10.16696702       1.68288005       0.02274114      -0.02082871       0.01691589
O        5.18130775       8.93981561      -0.18575281      -0.03009355       0.01734294      -0.01576078
C        3.38753713       7.07740083       0.78544165       0.00441542      -0.00805544      -0.00124906
C        1.90255328       6.82691468       0.72825410       0.00219721       0.00543983       0.00241688
C        4.58976524       9.13209434       0.84725339       0.00049502      -0.00525445       0.00540328
C        5.84986275      11.05405811       1.40581221       0.00364116      -0.00554952      -0.00288820
H        3.86679599       7.04194447      -0.19228507      -0.00132836       0.00263801      -0.00401458
H        3.88820315       6.36408498       1.44430256       0.00092819      -0.02226296      -0.01499236
H        1.72095807       5.78096066       0.47682272      -0.00745926       0.01134196      -0.01336962
H        1.43094388       7.01834518       1.69025901       0.00784007      -0.00583989       0.00714746
H        1.42532412       7.45596543      -0.02425257       0.00408023       0.02095485       0.01496066
H        6.56378744      10.96243180       2.22290065       0.01311724       0.01190941      -0.01011238
H        5.45461521      12.06853667       1.37343772      -0.01196212      -0.01195177      -0.00637547
H        6.32298369      10.78752037       0.46575204      -0.00246312      -0.00564680      -0.00566548
O        3.78287601      11.27457234       8.35639711       0.00379688       0.00730762      -0.01431790
O        4.74791553       9.86336439       9.65046880       0.00949103       0.00918633      -0.01448958
O        5.75163565      11.86153970       9.29183468       0.00160345       0.01198009      -0.01172099
C        3.77496482      12.52261261       7.63498221      -0.00232461       0.01014709      -0.01128810
C        2.53687876      12.55213922       6.78623972       0.00076792       0.00409731      -0.01586950
C        4.83949185      11.04999927       9.11924253       0.00267154       0.00911430      -0.01441848
C        5.84613048       9.40521966      10.47676565       0.01510108       0.01878778      -0.01646945
H        3.77430372      13.34936156       8.35655152      -0.00835058       0.00756298      -0.00879626
H        4.67872444      12.56805806       7.01381759      -0.00091918       0.01813565      -0.00806616
H        2.52336365      13.47304679       6.20356228      -0.00416644       0.00610965      -0.01277587
H        2.51298333      11.70602581       6.10229629       0.00990672       0.00674802      -0.01931511
H        1.65037619      12.52224933       7.41899056      -0.00175622      -0.00502735      -0.02001868
H        6.71104346       9.21656159       9.84395498       0.01473528       0.02528740      -0.01907061
H        5.48455451       8.49343981      10.93574847       0.02317294       0.01792362      -0.01279060
H        6.06104806      10.13169367      11.25410379       0.01230542       0.02264611      -0.01932327
O        6.42625981       3.84092947       7.78474068       0.00516850      -0.00156802      -0.01453912
O        7.84202032       2.24036185       7.60556816       0.01309907       0.00374785      -0.01766698
O        5.73349172       1.72675207       8.22091918       0.02215931       0.00057725       0.00791578
C        5.08515051       4.39870285       7.88834766       0.00190359      -0.01369631       0.00654225
C        5.23845252       5.84841552       8.26596461      -0.00756744      -0.01128066      -0.00083824
C        6.59605495       2.55170572       7.89753448       0.01405254       0.00094479      -0.00691573
C        8.17149247       0.85127312       7.66897010       0.02090862       0.00650349      -0.00397313
H        4.61546674       4.28214217       6.90917406      -0.01275782      -0.02309449       0.01543504
H        4.52142799       3.82763306       8.62389089       0.02076447      -0.01634388       0.01789176
H        4.25979789       6.32786724       8.26726323      -0.01179802      -0.02028580       0.00394338
H        5.67238144       5.94069808       9.26156286      -0.00198277      -0.00243589      -0.00431441
H        5.87116966       6.37965400       7.55673174      -0.01742880      -0.00900103      -0.00765553
H        8.05978076       0.46882627       8.68878689       0.04003217       0.02136474       0.00221628
H        9.21824305       0.76979003       7.41104089       0.01601687       0.00731996      -0.02279088
H        7.57632752       0.28580697       6.94381944       0.01222752      -0.00633777       0.01475359
