197
Lattice="13.442133367542068 0.0 0.0 0.0 13.442133367542068 0.0 0.0 0.0 13.442133367542068" Properties=species:S:1:pos:R:3:forces:R:3 energy=-1257538.375 stress="0.00015594704018440098 -0.0003053836553590372 0.00032990275940392166 -0.0003053836553590372 0.0003195173339918256 -0.00025402144819963723 0.00032990275940392166 -0.00025402144819963723 0.00041486017289571464" pbc="T T T"
Lu       7.57103771      13.62215351       6.18933287      -0.00799119      -0.00645903      -0.00393319
Lu       5.18032260      13.10194478       0.60699585       0.00128803      -0.00271296       0.00242341
O        7.07644521      12.10875937       7.42756513      -0.00804085      -0.00229937       0.00093635
O        5.52823192      13.64916463       6.18790483      -0.00828362      -0.00663289      -0.00304434
O        4.53111510      13.24942724       8.76809928      -0.01168397       0.00849214       0.00950664
O        4.08919862      11.32225097       6.61640544      -0.00652540       0.00046182       0.01159999
Mo       5.19952638      12.32625052       7.49380529      -0.00723460      -0.01801791      -0.01828906
O        2.85726011      10.78110468       2.58210639      -0.01012539      -0.01112515       0.00034580
O        1.16276102      13.17612456       2.29298431       0.01102149      -0.00225240      -0.00551265
O        3.22334718      12.49999186       0.41994493       0.00188344      -0.00274555      -0.00312495
O        4.31060391      13.39823110       2.56548045      -0.00105032      -0.00432989       0.00100040
Mo       2.74596754      12.47159310       2.19963276      -0.02328280       0.01724379      -0.00276065
O        8.39728115      12.26116943      10.29508777      -0.00014293      -0.00189257       0.00210458
O        6.43442668      13.20371574      12.38296013       0.00098003      -0.00438017       0.00347656
O        8.45367153      11.34830625      13.02218486       0.00114065      -0.00398895       0.00073016
O        6.26364416      10.55650923      11.31715308       0.00060368      -0.00419343       0.00157099
Mo       7.43866664      11.81045690      11.70071778       0.00416267      -0.00378948       0.00282923
O        5.27892380      10.62932070       8.91969110      -0.00631842       0.00001433       0.00577495
C        4.89243645       9.25874162       8.73356280       0.00045148      -0.00335196       0.00157530
C        6.09835769       8.35000379       8.76946129       0.00637424       0.00363454      -0.00105001
H        4.17542859       9.00083130       9.51982715       0.00419042      -0.00836650       0.00431001
H        4.38294684       9.22216689       7.77182762      -0.00093938      -0.00440884       0.00451037
H        5.79948618       7.30593491       8.65822567       0.01105549       0.00194658      -0.00167312
H        6.78124665       8.60049963       7.95818057       0.00274850       0.00766940      -0.00283377
H        6.64436536       8.46408142       9.70658988       0.00779781       0.00495449      -0.00262326
H        5.68324368      10.69848036       9.83938193      -0.00394749      -0.00080438       0.00163487
O        8.88637832       9.12643933      10.84548645       0.00165178       0.00375819      -0.00090367
C        9.50819086       8.18504329      11.70613189       0.00157696       0.00747621       0.00171956
C        9.47092444       6.78593308      11.11723170       0.00257333       0.00519729       0.00715303
H       10.53642391       8.48286748      11.93903480       0.00088704       0.00832784       0.00273840
H        8.94924693       8.21871976      12.64549347      -0.00018162       0.01071239       0.00128981
H        9.92338875       6.05369432      11.79025586       0.00144697       0.00783841       0.01085903
H        8.43855779       6.49053383      10.92091501       0.00317091       0.00417721       0.00602273
H       10.01401743       6.76279956      10.16880316       0.00489173       0.00153880       0.00845653
H        9.49815601       9.38327754      10.14267760       0.00437501       0.00310784      -0.00251577
O        5.68582621      11.03132928       1.56968343      -0.00042877      -0.00290012       0.00491843
C        6.43421203       9.80594193       1.25281932       0.00279525      -0.00159803       0.00132117
C        7.69158945       9.73347215       2.08122943      -0.00007477      -0.00372336       0.00517938
H        5.76646354       8.97968400       1.48040660       0.00181487      -0.00228211      -0.00294417
H        6.65502293       9.83588006       0.18935825       0.00510155       0.00220846       0.00283325
H        8.21669486       8.80098265       1.86462340       0.00210930      -0.00199148       0.00305045
H        8.36977575      10.54738461       1.82501374      -0.00002225      -0.00188001       0.00983638
H        7.45651203       9.73590142       3.14686271      -0.00350311      -0.00892533       0.00444598
H        4.91643252      10.75961892       2.11078969       0.00869301      -0.00287655       0.00879627
O        8.27383089       1.74517268       7.66441676      -0.01259577      -0.00281948      -0.00355592
C        8.63315343       1.64294185       9.09227027      -0.01138812      -0.00309006      -0.00403646
C        7.51004569       2.11164253       9.97536318      -0.01048779      -0.00139253      -0.00303823
H        8.82428382       0.58604621       9.27026863      -0.01251356      -0.00298342      -0.00358167
H        9.55289952       2.21464405       9.22952877      -0.01097077      -0.00379854      -0.00471382
H        7.79984337       1.95425524      11.01585481      -0.00981668      -0.00176561      -0.00329770
H        7.29101845       3.17204113       9.83601458      -0.00931155      -0.00123695      -0.00295353
H        6.60878646       1.52294532       9.79674142      -0.01120055      -0.00037311      -0.00245591
H        8.16142195       2.68150872       7.44867201      -0.01398076      -0.00372458      -0.00356151
O        5.59561700       6.74211934      11.74903065      -0.00295407       0.00336039      -0.00194949
C        5.58747443       6.19478382      13.07400301      -0.00482535       0.00686616      -0.00153470
C        6.88235231       5.47625680      13.39569831      -0.00478703       0.00905788       0.00320879
H        5.37379134       6.97440182      13.80944261      -0.00819297       0.00711605      -0.00307140
H        4.74672444       5.49647249      13.09356550      -0.00407374       0.00510529      -0.00263505
H        6.82528410       5.00106832      14.37794331      -0.00650657       0.01080858       0.00396550
H        7.08793138       4.70442747      12.65089481      -0.00162328       0.00792976       0.00518398
H        7.72620863       6.16700590      13.40664420      -0.00572529       0.01035762       0.00400226
H        5.94232776       7.64190777      11.76680973      -0.00313556       0.00666973      -0.00225358
O        7.79689669       6.09684827       6.99001804       0.00396079      -0.00239503      -0.00802952
C        8.48160062       5.16954714       7.79904705       0.00443467       0.00408125      -0.00105377
C        9.84523800       4.79814429       7.23605772       0.00373262      -0.00128767       0.00100219
H        8.58514781       5.53782182       8.82509212       0.00529939       0.01291686      -0.00432730
H        7.81527868       4.29905893       7.86832923       0.00503051       0.00393799       0.00714896
H       10.36898666       4.07292240       7.86418086       0.00371796       0.00396818       0.00692269
H        9.75941679       4.38832519       6.22648172       0.00254142      -0.01028690       0.00480370
H       10.46112106       5.69673804       7.16418120       0.00424632      -0.00236493      -0.00763949
H        8.22902409       6.96228691       7.14295439       0.00124688      -0.00018843      -0.01087184
O        3.14097409       5.82045950      10.69126260      -0.00057561       0.00216359      -0.00349951
C        3.42651181       4.86687949       9.67682738       0.00177646       0.00086105      -0.00160968
C        4.09492331       3.61508238      10.22115754      -0.00125551       0.00075001       0.00241539
H        2.47067594       4.61197865       9.21465323       0.00324696       0.00107235      -0.00456484
H        4.05356843       5.31352871       8.89459779       0.00490737      -0.00069141       0.00002536
H        4.30110333       2.89283883       9.42803883       0.00030319      -0.00053169       0.00377610
H        5.04245616       3.87397834      10.70405679      -0.00243142       0.00035137       0.00484101
H        3.44246205       3.12427552      10.94650368      -0.00387605       0.00254567       0.00085284
H        3.97880085       6.22500376      10.97278886      -0.00144020       0.00311977      -0.00271799
O        9.67318696      10.65691761       8.60143438      -0.00036967       0.00179292      -0.00313747
C       10.70037538      11.47076070       8.06699862      -0.00213867       0.00396398      -0.00372881
C       10.19087621      12.43017808       6.98947422      -0.00520541       0.00343141      -0.00266421
H       11.18727430      12.04298450       8.86452795      -0.00233437       0.00434113      -0.00388542
H       11.44936935      10.80131317       7.64157603      -0.00149783       0.00549471      -0.00516325
H       11.01884913      12.93175043       6.48392458      -0.00698139       0.00487319      -0.00400254
H        9.60954302      11.87099465       6.24602428      -0.00500992       0.00225799      -0.00200909
H        9.59377143      13.19678563       7.49187478      -0.00594138       0.00230043      -0.00192702
H        9.06918639      11.23183290       9.14715072      -0.00012994       0.00013597      -0.00165119
O        4.31018831       8.54918148       3.10365519       0.00370017       0.01971672       0.00371510
C        4.31311630       8.32413535       4.51128349      -0.00074482       0.00326850       0.00480032
C        5.73146250       8.06973408       4.96658723      -0.00495237      -0.01122014       0.00652060
H        3.90236907       9.19389985       5.03431485       0.00359994       0.00224930       0.00974014
H        3.67885892       7.46037854       4.74694691      -0.00863042       0.00671715      -0.00700976
H        5.75891154       7.72445875       6.00004657      -0.01047815      -0.01640209       0.00457907
H        6.20386111       7.30574708       4.34530502      -0.00942541      -0.01239638       0.00383686
H        6.32593873       8.98302508       4.89923095       0.00359005      -0.01630925       0.01290144
H        3.55722712       9.12831901       2.89661938       0.00490649       0.00793266       0.00575931
O        0.57967964       6.23278814       4.41228736       0.00091635       0.00040638      -0.00060123
C        1.01721174       4.92110198       4.08678881      -0.00000650       0.00031933      -0.00223020
C        2.52266900       4.77093004       4.20496917       0.00023204      -0.00009766      -0.00432372
H        0.51491828       4.18595106       4.72675725       0.00078702       0.00012767      -0.00193301
H        0.69325778       4.73849718       3.06107391      -0.00139575       0.00114286      -0.00185919
H        2.82400928       3.74674813       3.96778551      -0.00044661      -0.00020018      -0.00454134
H        3.03085271       5.45920092       3.52634480      -0.00051504      -0.00042406      -0.00523894
H        2.84098962       4.98869915       5.22585854       0.00173755       0.00014994      -0.00481242
H        0.73686521       6.35468878       5.37213774       0.00151880      -0.00088232      -0.00059090
O        2.58817843      12.68741240       4.53961291      -0.00476629      -0.00044986      -0.00372306
C        1.49445634      11.96249321       5.15425451      -0.00644049       0.00293249      -0.00308441
C        0.34316106      12.88937740       5.44995089      -0.00061065       0.00878796       0.00241733
H        1.19511438      11.16326537       4.47150610      -0.01294421       0.00768435      -0.00619948
H        1.88012074      11.51759996       6.06856405      -0.00719149      -0.00332718      -0.00608045
H       -0.45916471      12.29891624       5.89677635      -0.00362266       0.01238631       0.00186338
H        0.63794858      13.66591108       6.15652276       0.00596257       0.00403015       0.00543687
H       -0.03882450      13.35242923       4.54219458       0.00137670       0.01472214       0.00529993
H        3.39578343      12.39828277       4.99712111      -0.00421104      -0.00169529      -0.00209260
O        9.42493965       8.24593912       7.25449242      -0.00056106       0.00302005      -0.00832546
C        9.74073377       8.47373310       5.87677809       0.00234336       0.00555688      -0.00718352
C       11.23041264       8.46920715       5.61159317       0.00283146       0.00376875      -0.00468557
H        9.25888807       7.66798230       5.31640343       0.00212230       0.00727302      -0.00983676
H        9.28369080       9.41320520       5.54347445       0.00446612       0.00685468      -0.00616633
H       11.42545372       8.55073034       4.54158644       0.00474432       0.00659112      -0.00419670
H       11.72817245       9.30249361       6.10904861       0.00332986       0.00147976      -0.00145052
H       11.68709550       7.54233145       5.96139683       0.00068103       0.00197995      -0.00675908
H        9.39783055       9.10204473       7.72653089      -0.00020922       0.00214738      -0.00642437
O       12.85721565       5.87742890       9.08827989      -0.00085002       0.00518750      -0.00178623
C       13.11732755       6.64231005      10.28585491      -0.00035297       0.00137335      -0.00030857
C       12.85740530       8.11646691      10.07981198       0.00374767       0.00255853       0.00412071
H       12.50480725       6.24614623      11.10149915      -0.00079760       0.00060177      -0.00115404
H       14.16243672       6.44966274      10.52908386      -0.00022542      -0.00189302      -0.00086512
H       13.00212436       8.67680092      11.00452757       0.00416507      -0.00049032       0.00603431
H       13.52950297       8.52628722       9.32540045       0.00526905       0.00336237       0.00598121
H       11.82997153       8.28892786       9.74389843       0.00427052       0.00598449       0.00389203
H       11.95035329       6.05636804       8.81915324      -0.00227126       0.00980084      -0.00288507
O        6.76369520       2.16067804       5.10050811      -0.00572991      -0.00579682      -0.00194404
C        6.47971312       3.57863733       5.27352838       0.00344964      -0.00432068      -0.00156488
C        5.46884141       3.81299448       6.37023769       0.00355533       0.00238958      -0.00280431
H        7.42874954       4.06954835       5.48465800       0.00659174      -0.01075163      -0.00004406
H        6.11589031       3.96511134       4.31775733       0.00767018      -0.00103477      -0.00183114
H        5.33457176       4.88554696       6.51297609       0.00843475       0.00323701      -0.00491251
H        4.50456750       3.36849592       6.12034875       0.00187895       0.00627136      -0.00294342
H        5.79817863       3.38076054       7.31751098       0.00064184       0.00271647      -0.00150985
H        5.90603314       1.68927537       5.19382887      -0.00828969      -0.00178126      -0.00162547
O        1.21243882       6.29582074       7.05621225       0.00210279      -0.00394246      -0.00041163
C        2.04485906       7.40307184       7.41317908       0.00182976      -0.00323558      -0.00072342
C        1.53793635       8.70470320       6.82629953      -0.00042182      -0.00295544       0.00231677
H        2.13242783       7.46175322       8.50295005       0.00366907      -0.00479948      -0.00061148
H        3.04339259       7.18225532       7.02446602       0.00124842      -0.00211844      -0.00268254
H        2.21341311       9.52744052       7.06715663      -0.00165755      -0.00221445       0.00331222
H        1.47000724       8.63133338       5.73936342      -0.00121118      -0.00084023       0.00196725
H        0.54623973       8.94550280       7.21302812      -0.00065038      -0.00542841       0.00334442
H        0.54286985       6.16435686       7.75783770       0.00057967      -0.00128919      -0.00201191
O        7.91277485      -0.57915016       4.07655192       0.00814545      -0.01505667      -0.00051659
C        8.65309350       0.17287342       3.04850787       0.00625926      -0.00921482       0.00177871
C        7.80660040       0.39160555       1.81771139       0.00107045      -0.00389910       0.00553972
H        8.90715910       1.12144999       3.52321785       0.00756522      -0.01242210       0.00581879
H        9.57602285      -0.36087768       2.82510065       0.00552130      -0.00792995      -0.00398775
H        8.34903525       1.01361248       1.10423517      -0.00331225       0.00303420       0.00803523
H        7.64594388      -0.56604229       1.30597070       0.00280180      -0.00102405      -0.00009323
H        6.87967835       0.91208345       2.09204998       0.00026241      -0.00965818       0.01288187
H        7.33922057      -1.22380795       3.63904005       0.03668165      -0.03357154      -0.00024962
O       12.85155453      10.74630869      12.20091596       0.00306004      -0.00170799       0.01303199
C       11.53115454      11.29231298      12.23268497       0.00295445      -0.00105989      -0.00154168
C       11.53474995      12.80223720      12.27260319       0.00283736      -0.00105798      -0.00278400
H       10.94377926      10.93660191      11.37647323       0.01216274      -0.00172321      -0.00745201
H       11.05925571      10.89106834      13.12856278      -0.00681168       0.00000121      -0.00630033
H       10.51305562      13.16856487      12.38136464       0.00161023      -0.00085884      -0.01418350
H       12.12726697      13.15224485      13.11594306      -0.00629884      -0.00045105       0.00308830
H       11.94708670      13.22160637      11.34918088       0.01265530      -0.00188941       0.00112531
H       13.38525720      11.29110893      11.61630821       0.00963855      -0.00237912       0.01872164
O       13.31795085       7.05631361       1.82340437       0.00279272       0.00164676      -0.00157404
C       12.37817354       8.10840482       1.69148100       0.00467104       0.00304580      -0.00369650
C       12.91446850       9.44435850       2.17363555       0.00580686       0.00262445      -0.00424266
H       12.13354596       8.16874688       0.62768831       0.00627476       0.00243052      -0.00420707
H       11.44507132       7.85764897       2.22076794       0.00342029       0.00493293      -0.00480935
H       12.14956687      10.22186486       2.10165282       0.00734246       0.00384498      -0.00690631
H       13.23236921       9.37446929       3.21709610       0.00361028       0.00332497      -0.00352633
H       13.77159291       9.75299160       1.57756556       0.00753719       0.00058939      -0.00287722
H       13.53812138       6.96861205       2.76575105       0.00176555       0.00221278      -0.00113203
O        4.78476782       1.90793324       0.30080077       0.00367638      -0.00313240       0.00458688
C        4.05450674       2.84078567       1.15990676       0.00034432      -0.00294095       0.00163141
C        2.74854739       3.27481965       0.54622384      -0.00053945      -0.00829805       0.00011300
H        3.90827159       2.28539741       2.08370765       0.00133475      -0.00217438       0.00255707
H        4.71572703       3.68745553       1.35755543      -0.00222780      -0.00088221       0.00070175
H        2.23341532       3.94509057       1.23593870      -0.00292710      -0.00796905      -0.00194870
H        2.89974008       3.82490534      -0.38465546      -0.00120626      -0.00943625      -0.00084783
H        2.10698409       2.41347723       0.35744696       0.00213629      -0.01031825       0.00135287
H        4.88715968       2.29261247      -0.57822832       0.00402241      -0.00272879       0.00270063
O       11.85941443       0.06077628       2.28942556      -0.00557056       0.00130957      -0.00112608
C       11.85051638       1.40314672       1.82783178      -0.00137842      -0.00128853       0.00256090
C       12.22301473       2.39772611       2.90927719       0.00012268      -0.00185171       0.00303042
H       12.52866519       1.51741699       0.97405519      -0.00587329       0.00236600       0.00026330
H       10.83971658       1.60366427       1.45667578      -0.00466761      -0.00000880       0.00594117
H       12.16315062       3.42214837       2.53598237      -0.00313460      -0.00118402       0.00586867
H       11.55619892       2.30384765       3.77016285       0.00417559      -0.00536055       0.00569738
H       13.24309861       2.21507243       3.24995061       0.00206159      -0.00122228      -0.00190399
H       12.79707024      -0.20877038       2.33124936       0.00511015      -0.00062697      -0.00175876
