192
Lattice="13.575074007906704 0.0 0.0 0.0 13.575074007906704 0.0 0.0 0.0 13.575074007906704" Properties=species:S:1:pos:R:3:forces:R:3 energy=-336561.0 stress="-0.0011284201173111796 9.508763832855038e-05 -0.00023282547044800594 9.508763832855038e-05 -0.0002447406586725265 0.001067630189936608 -0.00023282547044800594 0.001067630189936608 -0.00047548708971589804" pbc="T T T"
Na      11.88624734      14.96828433       0.47967542      -0.00394867       0.01531442       0.00844584
Na      10.23098779      13.81553125       4.80750094       0.00889416      -0.00669039       0.00871604
S       11.92817425       5.91841760       0.90382169       0.00132656      -0.02392507      -0.00734982
S       10.42481075       2.22348172       2.79667122      -0.00254253      -0.00171167       0.00547880
S       12.80870959       4.10337931       1.84629247       0.00746441      -0.00866003       0.03206695
S       11.69646642       3.77485710       3.50484414      -0.01632097       0.00108132       0.01827805
O       11.82108629       6.86130205       2.00353989       0.00663539      -0.01403117      -0.02561581
O       11.26890955       1.01045052       2.76562763       0.00470078      -0.00019294       0.01228585
O       10.66365072       5.52278700       0.32235185       0.03986430      -0.02779961       0.00821674
O       13.02185898       6.14372714      -0.02971280       0.01090646      -0.04157667       0.01260543
O        9.37862581       2.14155650       3.81329004      -0.01038572      -0.01333387       0.00766000
O        9.99006936       2.59601632       1.46384550      -0.00119767      -0.00709487       0.01196682
S        0.56198022       2.09830451      11.47103170      -0.01168784       0.01507241       0.00120229
O       -0.30596361       1.21716516      12.33130236      -0.01352525       0.02389175       0.00700617
C        1.86769462       1.06570119      10.80507493      -0.01802638       0.00124890       0.00953460
C        1.58713758       3.06278478      12.57942303      -0.00916114       0.01848269      -0.00479224
H        1.40813945       0.37714147      10.09791936      -0.02345702      -0.00245239       0.01659696
H        2.37460977       0.50949816      11.59817687      -0.02024235       0.00552692       0.01363423
H        2.58219270       1.70929135      10.28782035      -0.01369461      -0.00942920       0.00274269
H        2.31215536       3.60167318      11.97079097       0.00380336       0.00196579      -0.00367250
H        2.08884985       2.38526593      13.27177598      -0.02519383       0.02032048       0.00811969
H        0.94071220       3.76604321      13.10202554      -0.00658242       0.03162822      -0.01970758
S        4.59228534       1.74055012       3.35864306       0.00247124      -0.00082874      -0.00364256
O        4.46844787       3.02485720       2.60292946       0.00082369      -0.00180006      -0.00486445
C        5.93151916       0.78016662       2.62460292       0.00657761       0.00225502       0.00013262
C        3.23772720       0.68681240       2.80303706       0.00708199      -0.00548065      -0.00575063
H        6.84516512       1.36240196       2.73590056       0.00567304       0.00264494       0.00468834
H        5.73146057       0.59155544       1.57142178       0.01038909       0.00374745      -0.00082922
H        6.02376645      -0.15561190       3.17918244       0.00521978       0.00147319      -0.00102487
H        3.31636189      -0.27944048       3.30163528       0.00925123      -0.00427710      -0.00369646
H        3.29043152       0.56083562       1.72139309       0.00993399      -0.00676691      -0.00543427
H        2.31304629       1.18204179       3.09346752       0.00476386      -0.00787130      -0.00913755
S        7.73231829       6.72739187       2.06818602       0.00199988       0.00060284      -0.01035595
O        7.70340286       8.02129893       2.83003790       0.00320391      -0.00005007      -0.00900137
C        6.18994297       5.86810675       2.42340632       0.00078130       0.00291798      -0.01316461
C        8.81116455       5.61875061       2.95864207       0.00012198      -0.00160426      -0.01170614
H        5.37962326       6.46839226       2.01459166       0.00269244      -0.00068489      -0.02198321
H        6.06064063       5.76533994       3.49971199      -0.00418088       0.01186427      -0.01293850
H        6.20086705       4.88457403       1.95480543       0.00315062      -0.00077990      -0.00518065
H        8.83253287       4.65968870       2.44363661       0.00084813      -0.00072692      -0.01386738
H        8.45246859       5.51339792       3.98335185      -0.00100540      -0.00415337      -0.01230563
H        9.80558967       6.05880755       2.92448577       0.00034094      -0.00231506      -0.00928815
S       11.61128637       1.69675930       7.98650684       0.01701868      -0.01401615      -0.00937665
O       10.80503450       1.54950097       6.72029303       0.01350915      -0.02637055      -0.00508243
C       11.73054833       3.43024810       8.44564096      -0.00476576      -0.01100457      -0.02169661
C       13.33113545       1.50408825       7.50456518       0.01607525       0.00427536      -0.01597258
H       10.74651458       3.79540232       8.72775306      -0.01237053      -0.02308658      -0.03375656
H       12.16533979       4.03096965       7.64546537      -0.00679870      -0.01241287      -0.02360684
H       12.37164917       3.46761976       9.32882571      -0.01311751       0.00388211      -0.01685822
H       13.95370117       1.66300352       8.38354950       0.01692490       0.01961579      -0.01980571
H       13.55727306       2.23332669       6.72730083       0.00265137       0.00115766      -0.02245480
H       13.45122367       0.48542962       7.14133858       0.02923667       0.00354925      -0.00877266
S        9.43010579       1.08746479      12.47280799      -0.00056529      -0.00548819      -0.00348610
O        8.13451655       0.87106628      13.17577470       0.00042129      -0.01708086      -0.00471139
C        9.60333544       2.80724730      11.96831328      -0.01777530      -0.00232691       0.00258839
C        9.24527477       0.40136892      10.81919747       0.00546508      -0.00130020      -0.00603032
H        9.73159785       3.41316323      12.86248345      -0.01754424      -0.00631312       0.00478831
H        8.71258995       3.10956220      11.41915691      -0.02394301      -0.00869055       0.00924714
H       10.50605833       2.88166971      11.35782853      -0.02256452       0.00954494      -0.00214496
H       10.18170491       0.53609288      10.27844692       0.00538073       0.00625685      -0.00434270
H        8.41929801       0.90628209      10.31224066       0.00295916      -0.00614773      -0.00636704
H        9.02550934      -0.65914590      10.93641307       0.01277449      -0.00308084      -0.00892616
S       12.45910503       6.34165150       5.61204449       0.00564760       0.00408315       0.00059080
O       13.29483454       5.84901038       6.76852003      -0.00181597      -0.00072134       0.00366902
C       12.55979359       8.12909667       5.60213465       0.00980315       0.00388163       0.00609104
C       10.74637616       6.23943833       6.17903438       0.00220388       0.00688244      -0.00999701
H       13.56109354       8.37249605       5.25605341       0.01326194       0.00245303       0.01551077
H       12.32842970       8.51621451       6.59317124       0.00144878       0.00243473       0.00452787
H       11.81745095       8.48718156       4.89182033       0.01705339       0.00695600       0.00020595
H       10.10751514       6.71896738       5.43868083       0.00823355       0.00985339      -0.01326706
H       10.65264302       6.74152665       7.14274935      -0.00329857       0.00483823      -0.00962050
H       10.49596558       5.18220184       6.25567754      -0.00053967       0.00740568      -0.01446976
S        3.47646041      10.14096454       1.18089919       0.01689434      -0.00081754       0.00419068
O        3.11940229       8.97911339       0.30853382       0.03333175      -0.00536311       0.00324011
C        4.65169814       9.51262045       2.39301349       0.00543088       0.00868416       0.01867265
C        2.10674721      10.37449973       2.33750429       0.00329345      -0.00510965      -0.01199198
H        5.52692342       9.16471663       1.84853048       0.01566027       0.01586211       0.03097104
H        4.20570940       8.68717560       2.94740609       0.00469689       0.00484665       0.01211001
H        4.95050890      10.30868235       3.07511909      -0.01157319       0.01110237       0.02293570
H        2.43650784      11.03966025       3.13632333      -0.01038927       0.00364013      -0.01396360
H        1.81471737       9.40488012       2.74599107       0.00716565      -0.00381011      -0.00661132
H        1.28714514      10.83424723       1.78887419       0.00523157      -0.01557549      -0.02309322
S        4.29611099      12.14174901      10.82353394       0.00213320       0.01547712       0.00212359
O        3.89966664      12.73521085      12.14896299       0.01053798       0.01524431       0.00447202
C        4.19032853      10.35534911      10.98304563      -0.00274622       0.01566190       0.00127292
C        6.08201194      12.26798905      10.72760687       0.00147539       0.01054274      -0.00249711
H        3.13825459      10.07896133      10.98072357      -0.00337186       0.01795433       0.00481002
H        4.62380888      10.06823896      11.93874470       0.00025421       0.01306190      -0.00091487
H        4.72865290       9.90580019      10.14935298      -0.00748187       0.01497031      -0.00122593
H        6.44207685      11.59126480       9.95548551      -0.00205958       0.00933342      -0.00279532
H        6.47953893      12.00937691      11.71037339       0.00187657       0.01064553      -0.00265519
H        6.31211507      13.30226265      10.47942610       0.00328283       0.00977436      -0.00361561
S        5.23857052       3.40136917      11.63483962      -0.01172256       0.00085133      -0.00205049
O        6.62008210       3.57445535      11.09435125      -0.01571763      -0.00460681      -0.01339293
C        4.82818957       4.97064870      12.42421294       0.00157186      -0.00026000       0.00616053
C        5.41209610       2.43210228      13.13206899      -0.00350201      -0.00528321      -0.00684649
H        4.69936497       5.67804438      11.60863676      -0.00375203       0.00295071       0.01007058
H        5.65636150       5.25710083      13.07249599       0.00934850      -0.00525951      -0.00206028
H        3.90783477       4.88257488      12.99868878       0.00749881       0.00087577       0.01566958
H        4.51011309       2.52176311      13.73511854       0.00049692      -0.00590231      -0.00072975
H        6.27611344       2.80198821      13.68356233       0.00072053      -0.00853823      -0.01112497
H        5.58684829       1.40052426      12.83459542      -0.00795417      -0.00485560      -0.01142324
S        4.65727320      11.31687392       6.64487792      -0.00764328       0.00873509      -0.00168991
O        5.39611086      10.89762141       7.87144277      -0.00710106       0.00851315      -0.00233638
C        4.48722041      13.10179722       6.78753313      -0.01945959       0.00716251       0.00367102
C        2.92327485      10.89821209       6.89388815      -0.00526392      -0.00284509      -0.00596312
H        5.49808412      13.49914941       6.83979179      -0.02183919       0.01242841       0.00974089
H        3.98414392      13.34813946       7.72266888      -0.02569639       0.00008979       0.00214100
H        3.95881723      13.50642241       5.92376099      -0.01889362       0.00699955       0.00335261
H        2.32816447      11.37449049       6.11457259      -0.00729046      -0.00294069      -0.00443707
H        2.62461027      11.24635344       7.88377961      -0.00810477      -0.00919089      -0.00460146
H        2.85886897       9.81710567       6.80467092       0.00129994      -0.00270411      -0.01068340
S       11.24837835       7.62819431      10.02740270       0.00772933      -0.00305891       0.00129843
O       10.86767321       6.20680281      10.27783780      -0.00040555      -0.00384665      -0.01837671
C       13.00193128       7.61971453       9.61115576       0.00896376      -0.00664111       0.00868559
C       11.43986423       8.46608421      11.61876194       0.00497822      -0.02643198       0.01323897
H       13.10304028       7.06057040       8.67964884       0.00907736       0.00233711       0.00343986
H       13.54574411       7.13634023      10.42390131       0.00419486      -0.01808565       0.00487788
H       13.34616464       8.64521208       9.47171333       0.01456581      -0.00712696       0.02052226
H       11.75458646       9.49174671      11.41524309       0.01273889      -0.02606647       0.02883889
H       12.16430402       7.93478981      12.23482629      -0.00102866      -0.03886747       0.00913933
H       10.45973049       8.47120973      12.08922848       0.00293677      -0.02621744       0.00875871
S       10.16932975      11.46927510       2.26049414       0.00083148       0.00451404       0.01698220
O        9.65865974      11.97170046       3.59107944       0.00835454      -0.00145134       0.02154994
C        8.73676905      10.99081972       1.28446397      -0.00686729       0.01594239       0.02399540
C       10.77576902       9.80645487       2.54073004      -0.00389884       0.00232327       0.00959252
H        8.19578430      11.89736658       1.01702782      -0.00250712       0.02037451       0.03016447
H        8.13138784      10.28623191       1.85556950      -0.00721034       0.01866212       0.02647772
H        9.11448654      10.51182813       0.37892778      -0.01729015       0.01641048       0.01971172
H       11.08535235       9.36576308       1.59357900      -0.01273349       0.00270035       0.00676888
H        9.98450360       9.20672853       2.99140731      -0.00265428       0.00528279       0.01536368
H       11.64454690       9.88086519       3.19001421       0.00101469      -0.00052834       0.00324813
S        7.80884321       8.27974493      10.86210501      -0.00017166       0.00530869      -0.01094210
O        7.10027382       9.15029300       9.87510772      -0.00267088       0.00112438      -0.01275802
C        7.64767309       6.58791356      10.28995447       0.00056557       0.00312012      -0.00489351
C        6.74591840       8.11577147      12.31389043       0.00182748       0.00976548      -0.00914079
H        8.28254076       6.50785781       9.41015655      -0.00157718       0.00091676      -0.00621048
H        6.60407404       6.37589150      10.05031052       0.00032350       0.00034402      -0.00106731
H        8.02465668       5.90630433      11.05141575       0.00434840       0.00646683      -0.00376055
H        7.18064946       7.36212870      12.97115329       0.00270057       0.01213799      -0.00700135
H        5.73874939       7.83780629      12.00621940       0.00149994       0.00854765      -0.00698566
H        6.73127351       9.07772744      12.82364065       0.00191972       0.01149429      -0.01258368
S        6.52151149       2.65230727       7.66416059       0.00773716      -0.01495457       0.00818682
O        6.46685155       1.38604342       8.46202093       0.02992008      -0.02050877       0.00103664
C        7.34315759       2.20024010       6.12079589      -0.00192547       0.00217417      -0.00124413
C        7.89813547       3.60287319       8.32005745       0.00425589      -0.00456208      -0.00010812
H        6.66257063       1.56676677       5.55536229       0.00236087      -0.00605481       0.00321053
H        8.25731422       1.66648648       6.38113087       0.00847968       0.01459751      -0.01352197
H        7.59128799       3.08238528       5.53307290      -0.02182541       0.00813068      -0.00028136
H        8.14127001       4.42694616       7.65075367      -0.00342627      -0.00543054      -0.00364988
H        8.73888984       2.91499746       8.41103670       0.00752565      -0.00070015      -0.00249844
H        7.57858625       3.96349198       9.29432551       0.00733545      -0.00299791       0.00007924
S        3.40507636       5.69301586       8.35820582       0.00305784       0.00477320       0.00182533
O        4.51768114       5.30108124       9.28268719       0.00335264       0.01387459       0.00492167
C        2.92280295       7.35818211       8.83158085      -0.00757807       0.00442111      -0.00753114
C        1.91724544       4.85416770       8.93988388       0.00701386      -0.00080952       0.00362524
H        3.75659929       8.00067001       8.55588227      -0.00996979       0.00718570      -0.00771990
H        2.73252318       7.37822546       9.90565786      -0.01123147       0.00888367      -0.00820732
H        2.03828978       7.63989144       8.26175922      -0.00635964      -0.00374579      -0.01358482
H        1.07437267       5.17658130       8.32701158       0.00580594      -0.00966375       0.00082593
H        1.75242049       5.07873355       9.99451367       0.00365618       0.00360460       0.00214881
H        2.08842721       3.78789779       8.79940526       0.01479209      -0.00024018       0.00997365
S        9.90491691      10.60819977       8.32633534      -0.00754067      -0.01325715      -0.00354970
O       10.12324282       9.54072946       7.30801961      -0.01225844      -0.01346564      -0.00486422
C        8.87474905      11.86086529       7.53112090      -0.01116982      -0.01308885       0.00221568
C       11.43826562      11.57756598       8.35900865      -0.00965160      -0.00872010      -0.00942571
H        7.84939563      11.49041012       7.54805623      -0.01120432      -0.01222828       0.00710177
H        9.22782793      11.95035185       6.50058452      -0.01582873      -0.01281004       0.00070536
H        8.92744427      12.81101926       8.06371754      -0.00825938      -0.01311330       0.00218341
H       11.31981677      12.44295432       9.01023491      -0.01060872      -0.01151472      -0.00489042
H       11.69088152      11.88148880       7.34209975      -0.01574015      -0.00452259      -0.00997168
H       12.21246584      10.92202984       8.75375355      -0.00510889      -0.00737743      -0.01593353
S        5.68248368       7.78294397       5.52923922       0.00425875       0.00179714       0.00033844
O        4.45575653       8.23163793       6.26291542       0.00282896      -0.00014162      -0.00107694
C        6.17603254       6.22699544       6.30743494       0.00475657       0.00114661      -0.00155210
C        7.07357853       8.75303483       6.12624183       0.00150013       0.00281164       0.00380263
H        5.41544865       5.48598773       6.06629120       0.00583598       0.00091716      -0.00412519
H        6.22727167       6.36261254       7.38831985       0.00311261      -0.00063857      -0.00128898
H        7.14198590       5.92337710       5.90446587       0.00557822       0.00320081      -0.00100859
H        7.99844521       8.28994757       5.78910855       0.00294254       0.00659956       0.00268273
H        7.02014066       8.82827821       7.21311074       0.00141019      -0.00093768       0.00405213
H        6.99435441       9.73834590       5.67307061      -0.00135593       0.00414130       0.00733072
S        2.61235647       6.54770207       3.57644108       0.01144719      -0.00117725       0.01296462
O        1.51361299       7.53393227       3.81747371       0.01981473       0.00694191       0.02122372
C        2.46682840       5.99090934       1.87121152       0.00308615       0.00722229       0.01111490
C        2.13793417       5.00441212       4.36499200       0.00120336      -0.00026256       0.00747600
H        2.73610691       6.83318770       1.23170683       0.01390516       0.00490689       0.01304235
H        1.43466097       5.69668406       1.68592217      -0.00025070       0.02052358       0.00906433
H        3.14864339       5.14817640       1.74178112      -0.00741601      -0.00067947       0.00814231
H        2.91659908       4.27298979       4.14602599      -0.00448689      -0.00471087       0.00248815
H        1.17281418       4.68212649       3.97355773      -0.00144713       0.00791099       0.00756971
H        2.06977593       5.20287018       5.43269868       0.00473765      -0.00407766       0.00832379
