200
Lattice="12.507197069547203 0.0 0.0 0.0 12.507197069547203 0.0 0.0 0.0 12.507197069547203" Properties=species:S:1:pos:R:3:forces:R:3 energy=-818190.0625 stress="-0.0010770263615995646 -0.00023442770907422528 0.0013293015654198825 -0.00023442770907422528 -0.0006348159513436258 -0.0019064336665906012 0.0013293015654198825 -0.0019064336665906012 -0.0027582517359405756" pbc="T T T"
Nd       6.53433137      13.04152637       6.22441612       0.00529803       0.00034747      -0.00106322
Nd       0.92260181      11.75259221       3.77511818       0.00114178       0.00328974       0.00052448
S        7.65105903       2.29915388       8.48543085       0.01254570      -0.00619870       0.00073485
S        6.08458862       2.47258898      12.56208225       0.00303149       0.00596964      -0.00168037
S        5.76765786       2.82980038       9.36329553       0.01211990       0.00576323      -0.00009841
S        5.57902263       1.42549655      10.78464963       0.00441184       0.00636098      -0.00021222
O        7.59278156       0.81407128       8.41874939       0.00179799       0.00285405       0.00055705
O        5.22680593       3.65396629      12.55227532       0.00274801       0.00662214      -0.00096799
O        8.73480448       2.83358377       9.25615930       0.00349021      -0.01341951      -0.00390658
O        7.50083156       2.80020271       7.10360005       0.01353751      -0.00394842       0.00588775
O        5.73906347       1.46817989      13.55539401       0.00306976       0.00661653       0.00024748
O        7.50841538       2.81829955      12.54885991       0.00274682       0.00664786      -0.00034530
S       10.57496383      10.21514657       5.53837660       0.00531966       0.00053352       0.00444842
S        8.44133523       7.43155976       8.20282078       0.00122690       0.01710578       0.00470877
S       10.34776067       8.07780180       5.61107332       0.00674462       0.00005824       0.00537634
S       10.50785564       7.53390398       7.52416756       0.00164193       0.00174233       0.00614566
O       10.31996358      10.73185697       6.87834957       0.00249040       0.00032616       0.00402164
O        8.38342957       6.14993774       8.91346869      -0.00807861       0.02192175       0.01078773
O        9.61451655      10.64802806       4.53471261       0.00603583      -0.00209308       0.00262463
O       11.96465487      10.46042382       5.10477140       0.00509301       0.00264349       0.00627134
O        8.27697798       8.59635776       9.06680402       0.00813205       0.02281362      -0.00037599
O        7.59879850       7.47546649       7.01868212       0.00182962       0.01800896       0.00403929
S        4.41795236       8.12987222       5.31619137       0.00373042      -0.00069440      -0.00258918
S        1.59176671       8.24403451       7.97325801       0.00576593      -0.00827271      -0.00218427
S        2.30812680       7.86874666       4.82771472       0.00424804      -0.00372966      -0.00233395
S        1.66179949       6.80684291       6.38774666       0.00683893      -0.00642668      -0.00349656
O        4.69389738       7.15912500       6.36140358       0.00486363       0.00210536      -0.00035030
O        0.67539438       9.30544014       7.55984160       0.00635505      -0.00779772      -0.00148311
O        4.50238928       9.52730662       5.77202561       0.00182626       0.00057060      -0.00561675
O        5.14655574       7.90169790       4.07757241       0.00468931      -0.00217693      -0.00127459
O        1.06812797       7.35708654       9.02311214       0.00539112      -0.00990140      -0.00402510
O        2.93205690       8.74665206       8.22357793       0.00573301      -0.00862566      -0.00056696
O        3.34207388       5.95850009       2.40158125      -0.00312036      -0.00747949       0.00045367
H        3.14796599       5.74677220       1.45504085      -0.00590966      -0.00483611       0.00054251
H        4.30002328       5.84647083       2.47722615      -0.00304846      -0.00842056      -0.00220998
O       11.70940792      12.15627283       8.82582771       0.00662649       0.00207514       0.00640030
H       11.63227620      11.56283815       8.06003247       0.01325179       0.00266331       0.00563528
H       11.09863787      11.72029979       9.46223938       0.00960374      -0.00436863       0.00488232
O        2.96294887      10.74712697       3.01840325      -0.00061062       0.00313984      -0.00075145
H        3.63669046      11.25583574       2.50433510       0.00125524      -0.00060644      -0.00328917
H        3.10760392       9.84020344       2.63351002      -0.00251624       0.00082293       0.00447065
O        2.25633069       1.21460270       3.50748324      -0.02499703       0.01731515      -0.00766214
H        2.39441485       1.61578740       2.60743728      -0.01349544       0.00778548      -0.00982007
H        2.07059479       1.98346153       4.06902783      -0.03007887       0.02450483      -0.01818071
O       10.77948077       1.48287028       6.95526472       0.00484406      -0.00356699       0.00274146
H       10.74791601       2.45463103       7.18854819       0.00313986      -0.00345686      -0.00058413
H       10.98358154       0.98353591       7.77342329       0.00128404      -0.00202756       0.00448279
O        8.47611154       8.31876987       2.81484105      -0.00230251       0.00582060       0.00281593
H        8.19889703       7.79007510       3.58116772      -0.00113177       0.01102662       0.00647508
H        7.72870285       8.20718761       2.17212753      -0.00393499       0.00340941       0.00492672
O        0.00007077       1.71683188      10.82676864      -0.00125320       0.00919834      -0.00745316
H       -0.01391388       1.09979130      10.08294129      -0.00272725       0.00593500      -0.00457337
H       -0.43661247       2.53550600      10.48718256      -0.00537058       0.00654854      -0.00750538
O        8.78966345      13.04730027       5.50832823       0.00540560      -0.00273404      -0.00052941
H        9.10319276      12.23818612       5.04535490       0.00498892      -0.00291757      -0.00101467
H        9.51525104      13.33113427       6.13268526       0.00503911      -0.00374012      -0.00063957
O        2.10806769      11.02307205       5.82632426       0.00375085      -0.00312138      -0.00252920
H        2.90609661      10.48019596       5.68666377       0.00353398      -0.00277090      -0.00488554
H        1.52225986      10.46932440       6.38638810       0.00451963      -0.00423433      -0.00307634
O        4.90395567      11.77661114       7.58518859      -0.00648744       0.00702709      -0.01260921
H        4.60754832      10.93587952       7.19566044      -0.00622208       0.00858569      -0.01593445
H        5.39568000      11.49896903       8.41588981      -0.01391672       0.00306682      -0.00829737
O       11.70463728       5.22588977       4.38129812       0.00210166      -0.00236871      -0.00073567
H       11.23904428       4.39012760       4.16855101       0.00000311      -0.00136939      -0.00011747
H       11.55386712       5.33479635       5.33042713       0.00183994      -0.00124303      -0.00097162
O        1.20784306      -0.26616466       1.32375247      -0.00600412      -0.00675292      -0.00242573
H        0.37070326      -0.07721796       0.86525151      -0.00905074      -0.01469350      -0.00056408
H        1.54370232      -1.06734354       0.86753074      -0.00455812      -0.00856192       0.00196158
O        6.32316744       8.18105120       1.20215971      -0.00272697       0.00201872       0.00531620
H        6.76219298       8.35760544       0.34399147      -0.00440190       0.00185152       0.00444031
H        6.19217707       7.20731348       1.22137911      -0.00198763       0.00199878       0.00626490
O        4.87123127      11.38705325       1.26617762      -0.00052029       0.00885040       0.00849481
H        5.63748584      10.95661226       1.69759889       0.00204732       0.01086725       0.00567099
H        5.16254522      12.31280780       1.13934911      -0.00327061       0.00968917       0.00729037
O        6.68565585       1.66865860       4.13240591       0.00273385      -0.00231364      -0.00318500
H        5.96696699       2.17632771       3.68183264       0.00379112       0.00078319      -0.00184853
H        7.40946268       1.55330435       3.47646009       0.00400114       0.00028986      -0.00201237
O        7.22023051      10.85542400       2.63222341       0.00696573       0.00867590      -0.00484711
H        7.73377821      10.06929789       2.89657851       0.00559822       0.00747012      -0.00592002
H        7.64283774      11.18189955       1.79081555       0.00248254       0.00564891      -0.00828726
O        4.81728268       2.16139826       6.17766477       0.00980645       0.00235274       0.00244416
H        5.17878085       3.06279714       5.97731833       0.00760053       0.00316192       0.00311015
H        3.93200361       2.40836475       6.53890146       0.00653724      -0.00078370      -0.00264534
O        9.17778817       4.90151408      11.35681473      -0.00560138       0.00568579       0.00071091
H        8.60515923       4.18932244      11.68872157      -0.00618750       0.00591414       0.00057047
H        8.75308644       5.23885479      10.55059518      -0.00774173       0.01124826       0.00438738
O        1.61460465       9.72303877       0.38131806      -0.00442877      -0.00986688       0.00689043
H        1.15066079       9.40326767      -0.42624150      -0.00059566      -0.01123443       0.00516548
H        2.40164711       9.16992716       0.58200838      -0.00348707      -0.00783453       0.00887845
O        8.12890320       8.79831789      11.77460813      -0.00779402       0.00145969       0.00289285
H        7.99969406       8.63829592      10.82072541      -0.00437988       0.00956287       0.00142293
H        8.93389421       8.28240346      12.00443432      -0.00678568       0.00259563       0.00121444
O        1.86253446      11.17552995       9.63833361       0.01387825      -0.01589052       0.00987113
H        2.21050891      10.66078795       8.89528236       0.01296245      -0.01178586       0.00656134
H        1.14178479      11.71296463       9.26201209       0.02722327       0.00170681       0.01101826
O       11.66728500       0.63729930       3.08183681      -0.00486204      -0.00355905      -0.00008871
H       11.62102925       1.06646245       2.15434046       0.00014994      -0.00329334       0.00040860
H       11.31818073       1.35706684       3.65726041      -0.00280743      -0.00255939      -0.00043491
O       10.39774320       2.79404433       4.10810767       0.00167304       0.00064483       0.00060436
H        9.73429580       2.66074380       3.39167206       0.00121182       0.00104537       0.00056593
H        9.89525451       2.63850670       4.91554923       0.00211328       0.00197892       0.00082068
O        7.39091901       6.35326388       4.60592904       0.00235456       0.00254492       0.00854945
H        7.58222868       6.71735341       5.49897327       0.00102946       0.00592273       0.00711405
H        6.57814517       6.82275703       4.32899604       0.00301351       0.00187335       0.00514489
O        8.70005378       1.68164091       2.30933103       0.00518574       0.00658447      -0.00326177
H        8.37068049       2.08686589       1.48281423       0.00297283       0.00993226      -0.00102013
H        9.33139883       1.01009437       2.02701367       0.00756598       0.01093522      -0.00824547
O       10.36285381      10.54695503      10.52422679       0.01267743      -0.01332644      -0.00073387
H       11.08071933       9.87340119      10.49676628       0.01806224      -0.00829670       0.00173086
H        9.54644251      10.09631237      10.27619283       0.02045089      -0.01685207      -0.01986570
O        0.19103376       4.18178375       1.53874399       0.00085761      -0.00110626      -0.00405422
H        0.20801129       4.76721849       0.75666374      -0.00455247      -0.00006960      -0.00334594
H        1.09900865       3.83063246       1.61471996       0.00203994       0.00132667      -0.00884271
O        2.58372779       3.41838186       6.87735141       0.00303428      -0.00915447       0.00041644
H        2.65300903       4.11665315       7.56582807       0.00580598      -0.00747937      -0.00144457
H        2.29634669       3.82432090       6.02981591      -0.00167466      -0.01188976       0.00124236
O        6.36817172      10.95720396       9.61437849      -0.03260568      -0.00279345      -0.00652373
H        6.83949867      11.72124202       9.97194364      -0.02012971      -0.01138179      -0.00498641
H        5.72776865      10.67354644      10.30793870      -0.03225089       0.00219950      -0.00324455
O        2.67350879       2.83532222       1.50484309       0.00288561       0.00143513      -0.01104981
H        2.85910326       2.78189576       0.55219798       0.00123774       0.00343642      -0.01172569
H        3.49870358       3.12968519       1.93801614       0.00423173      -0.00378123      -0.01101046
O        5.81181081      11.53371552       4.64502111       0.00740159      -0.00086799      -0.00174102
H        5.44544522      10.66982836       4.93322796       0.00371432      -0.00045827      -0.00568555
H        6.36859344      11.36642199       3.82329612       0.00444037       0.00339299      -0.00427645
O       11.50033127       4.08634764      10.04484851      -0.00943046       0.00736207      -0.00830926
H       12.07849618       4.71801922      10.52729344      -0.01026579       0.00741834      -0.00734032
H       10.62923293       4.20745866      10.47803676      -0.00908773       0.00513927      -0.00703334
O        2.85896231       5.78504832      12.27457532      -0.01281628       0.00089189       0.00095971
H        2.96228004       4.88117536      11.93650949      -0.01806627       0.00125159      -0.00213922
H        3.55486905       6.35698439      11.84999530      -0.01053900      -0.00126756       0.00226395
O        2.86176843       5.00607334       9.07690748       0.00936616      -0.00523636      -0.00353521
H        2.26162546       5.76008077       9.20465246       0.00689381      -0.00751424      -0.00298576
H        3.76213006       5.38979743       9.04597315       0.00810219      -0.00186095      -0.00171933
O        4.37246000      10.26624767      11.30304907      -0.01454511       0.00312635       0.01139277
H        4.50300964      10.65837138      12.19695794      -0.00829407       0.00456651       0.00949086
H        3.55548459      10.65251156      10.95653661      -0.01793146       0.00122203       0.01677682
O        4.89496089       3.41660051       3.11374821       0.00202985      -0.00359917       0.00112765
H        5.43082937       4.02369697       2.57098971       0.00136920      -0.00209165       0.00215996
H        4.78853692       3.91609756       3.94810361      -0.00042111      -0.00375281       0.00050029
O        0.18120353       9.28671927      10.72001644       0.01106858      -0.01266241      -0.00031626
H        0.73322424       9.97106040      10.27163317       0.01225691      -0.01263883       0.00078267
H        0.34610264       8.47504432      10.19957831       0.01007173      -0.01255854      -0.00077190
O        3.59810746       8.56177867       1.65364924      -0.00250065      -0.00394571       0.00806152
H        4.56382954       8.57029926       1.47273627      -0.00264017      -0.00294489       0.00740452
H        3.43138254       7.65878853       2.01552738      -0.00207413      -0.00492807       0.00553015
O        5.35266215       4.65074948       5.47846979       0.00212340       0.00167340       0.00020149
H        6.23878841       4.98592005       5.24954945       0.00140916       0.00328381      -0.00001167
H        4.92079791       5.41826793       5.89522412       0.00181834       0.00086835       0.00139018
O        7.52802319      10.90468601       7.02546001      -0.00065356      -0.00143683      -0.00143307
H        7.25572537      10.54244336       7.88564123      -0.00661287      -0.01259005      -0.00832671
H        8.50246791      10.84151717       7.03106085      -0.00082370      -0.00182057       0.00409038
O       -0.01284920       9.91623083       2.40076518      -0.00278057      -0.00042424       0.00670623
H        0.57807878       9.70892587       1.62109843      -0.00461411      -0.00324935       0.00613956
H       -0.48345323       9.08209912       2.62093409      -0.00314134       0.00067657       0.00869753
O        8.16088021      11.42362240       0.25530133      -0.00450443       0.00305269      -0.01076066
H        8.16952464      10.52801375      -0.14065747      -0.00220246       0.00129829      -0.00721077
H        9.10214159      11.66019967       0.32587072      -0.00561973       0.00642007      -0.01285350
O       10.36369084       7.21846057      12.30151411      -0.00713879       0.00260985       0.00416200
H       10.62765714       7.21635637      13.24236926      -0.00696292       0.00243314       0.00378660
H        9.94469245       6.35092116      12.12360134      -0.00734001       0.00264357       0.00391595
O        1.86947410       4.19142508       4.33347745      -0.00800731      -0.01683813      -0.00303189
H        0.95862213       4.54201523       4.25859883      -0.00552936      -0.00928970      -0.00059803
H        2.38986040       4.74529223       3.72320027      -0.00505758      -0.01971558      -0.00297913
O        0.23793657       5.78592255      11.75043183      -0.01146147       0.00303519      -0.00202209
H        1.18436238       6.03391716      11.84208048      -0.01202582       0.00451407      -0.00037179
H       -0.33189992       6.56606890      11.84014921      -0.01288562       0.00163870       0.00208310
O        5.34530262       6.24785923       8.85399677      -0.00006893       0.01015468       0.00429791
H        5.25928391       6.78412606       8.04691294      -0.00358795       0.00955662       0.00470321
H        6.26384796       5.94398642       8.87481309       0.00230744       0.01690352       0.00476041
O       10.75980306       4.08764936       7.39976309      -0.00275037      -0.00130397      -0.00908636
H        9.84751716       4.36855627       7.54918330      -0.00496159      -0.00597828      -0.01553969
H       11.15448290       4.18218185       8.29740595      -0.00786329       0.00366989      -0.00720888
O        4.69288807       7.39815172      11.24594476      -0.00711863       0.00013566       0.00774966
H        4.94932061       7.13987219      10.33980206      -0.00587358       0.00387260       0.00709988
H        4.50418668       8.35081993      11.22305945      -0.00793906      -0.00009459       0.01083157
O        0.47229298       0.73059189       5.62890781       0.00434646      -0.00006139       0.00322360
H       -0.38473528       1.06962337       5.98403659       0.00513871      -0.00289055       0.00717907
H        1.04373730       0.68450620       6.43735417       0.00820163      -0.00375284       0.00012843
O        8.63693199       4.90740335       2.59134518      -0.00179738       0.00371811       0.00792366
H        9.49442942       5.20685558       2.27470032      -0.00235175       0.00342974       0.00630910
H        8.44869695       5.41885375       3.39863354      -0.00085055       0.00484830       0.00737680
O        2.42566565       3.10120507      11.19095293      -0.00263235       0.00483990      -0.00057998
H        2.57354315       3.59630593      10.36845671       0.00831780      -0.00306072      -0.00323936
H        1.61730255       2.57119959      11.04389481      -0.00338853       0.00704423      -0.00403449
O       -1.10207965       1.94537876       0.91592740       0.00229625      -0.00281654      -0.00263521
H       -0.63828338       2.80646920       1.09214553       0.00130810      -0.00266350      -0.00159200
H       -0.82731709       1.66939996       0.02386740       0.00377521      -0.00069855      -0.00278520
O        1.71407654       1.11319763       7.93928560       0.02273059      -0.01765728      -0.00029930
H        1.97106551       2.01188815       7.63496447       0.01229315      -0.01370308       0.00280661
H        2.52328151       0.69847085       8.25760520       0.03379296      -0.01603222      -0.02638017
O        6.19631380       5.51370743       1.65032387      -0.00116463       0.00193483       0.00589183
H        7.14098402       5.29464304       1.83002835      -0.00131609       0.00262367       0.00699326
H        5.93916728       4.98459773       0.86636090       0.00068057       0.00389139       0.00385119
O       11.06744791       7.53267279       2.48116471      -0.00393705      -0.00093737       0.00414193
H       10.13367822       7.79385869       2.66699171      -0.00341664      -0.00000861       0.00478728
H       11.30659127       6.82387352       3.10552170      -0.00386038      -0.00166526       0.00315219
O       11.00691776      11.61455981       0.46922495      -0.00131213      -0.00424463      -0.00158283
H       10.85454951      11.16789455      -0.38768269      -0.00132094      -0.00968516       0.00133267
H       11.23943042      10.91742894       1.10183562      -0.00942576      -0.00130478       0.00443049
