197
Lattice="13.353829281996099 0.0 0.0 0.0 13.353829281996099 0.0 0.0 0.0 13.353829281996099" Properties=species:S:1:pos:R:3:forces:R:3 energy=-712378.75 stress="0.0009705012198537588 -0.00012269358194316737 0.00036680135235656053 -0.00012269358194316737 -0.00022991506557445973 -9.9596622021636e-05 0.00036680135235656053 -9.9596622021636e-05 0.0006282468675635755" pbc="T T T"
Nd      -0.93387784      13.31276173       0.59070439      -0.00205067       0.00511789       0.00316194
Nd       8.14168788      10.89550918       4.44238748      -0.00307532       0.00115097      -0.00483892
S       10.95559414      12.39392211       3.85313473      -0.00221438      -0.00451963      -0.00102583
S        9.36436337      13.45795636       4.41335296       0.00111142      -0.00189650       0.00400966
O       10.44502173      11.00311576       3.66080677      -0.00745485      -0.00141999      -0.01184951
O       12.05051387      12.47306214       4.79252526      -0.00325722      -0.01544545      -0.00136217
O       11.46129380      12.86086503       2.49017186      -0.00063957       0.00430498       0.00194982
S        5.22293754      11.07121137       4.67261795      -0.00238544       0.00339000      -0.00708458
S        4.20331969      10.60371422       6.20770090      -0.00173020       0.01353353      -0.00328803
O        6.35175070      12.09308442       4.97183778      -0.00142872       0.00464320      -0.01249360
O        4.39657182      11.62429144       3.57114197      -0.00220871      -0.00176811      -0.00920844
O        6.09402985       9.92824242       4.12852117      -0.00321950       0.00012678      -0.00139195
S       11.14455972      13.04681134      11.52857359      -0.00467536      -0.00039583      -0.02620101
S       12.04859047      11.28865851      12.00833374       0.00834191      -0.00249881       0.00035818
O       10.38162861      13.37892437      12.79034710       0.00766295      -0.00188311      -0.00701720
O       10.37283931      13.08660568      10.32738477       0.02506419      -0.00800163       0.01513112
O       12.30078494      14.03994181      11.59512044       0.00639400      -0.00350589      -0.00226329
O       12.52063786       8.64501793       0.41554680       0.00215989      -0.00084242      -0.00553377
C       12.01042692       8.91030865       1.72599438       0.01425233       0.01306009      -0.00426543
H       10.93941033       8.72274667       1.67914315       0.01314402       0.01972874       0.00397361
H       12.17043697       9.94921166       2.02137247       0.02337845       0.01431298      -0.01389071
H       12.45475447       8.24208775       2.46398668       0.01524341       0.01639315      -0.00200772
H       13.44543317       8.90399496       0.38837266       0.00139552      -0.00030309      -0.01755234
O       11.58395275       2.18627940       0.98442777      -0.00747153       0.00397167      -0.00134772
C       10.66768692       2.48046057       2.06559164      -0.02379981       0.00836858      -0.01733167
H        9.79330838       1.83487380       2.01585026      -0.01613978      -0.00152707      -0.01972278
H       10.36434082       3.52294306       2.02540340      -0.03365422       0.00456434      -0.03599592
H       11.19131130       2.28743971       2.99810593      -0.03499720       0.02639969      -0.00782241
H       11.26422917       2.63028148       0.15900959       0.00598300       0.00281596      -0.00738835
O        2.98843084       5.38288962       1.29224331       0.00403254       0.00578296      -0.00386027
C        3.60486420       6.57182562       1.78807212      -0.00206332       0.00770438      -0.00163584
H        4.64752336       6.64831688       1.46682188      -0.00213599       0.01308114      -0.00071666
H        3.57093181       6.61567568       2.88185314      -0.00310849       0.00568473      -0.00153553
H        3.05460327       7.42171740       1.38686045      -0.00555983       0.00601819      -0.00053126
H        3.50184664       4.62230024       1.64363533       0.00538246       0.00731216      -0.00209157
O        6.81022357       3.74882126       9.78578213       0.01856011       0.00391120      -0.01063019
C        7.45170699       2.49717759       9.61592659       0.00156170      -0.00609577       0.00450953
H        6.75819005       1.70856815       9.30577591      -0.00969383       0.00048164       0.01429588
H        7.88512057       2.20604494      10.57120373      -0.00231734      -0.00010251       0.00810459
H        8.25206150       2.54544708       8.86856358       0.00191039      -0.02674779       0.00439939
H        6.42310954       3.96974419       8.92048706       0.01819425      -0.00188556      -0.01211938
O        5.55204832      11.20862214       1.22753317      -0.00136006      -0.00163883      -0.00826332
C        5.10931858       9.89949207       0.83525001      -0.00216222      -0.00183275      -0.00588525
H        4.80575614       9.32654059       1.71302300       0.00582167      -0.00305532      -0.00405633
H        5.94107352       9.38903686       0.35211077      -0.00491372       0.00020756      -0.01249133
H        4.27090045       9.98069085       0.14128077      -0.00758871      -0.00270613       0.00087592
H        5.05488748      11.45447546       2.04290812      -0.00145595      -0.00010914      -0.00873907
O        1.07051584       1.38067139      13.55187515      -0.00040269       0.00270164       0.00608104
C        1.13908856       2.76309047      13.08593692       0.00424420       0.00250381       0.00643462
H        0.34227944       3.30127726      13.58483100       0.00642598       0.00538509       0.00699945
H        0.99178711       2.80106001      12.00801674       0.00423943       0.00289426       0.00639305
H        2.10012487       3.19259262      13.35945629       0.00602874      -0.00105217       0.00583715
H        1.83604022       0.92749066      13.18322740       0.00066757       0.00183114       0.00927117
O        7.71083768       8.33318173       7.14385244      -0.00404561       0.00669786      -0.00393238
C        6.84327024       7.30282330       7.63813727      -0.01066229       0.00948532      -0.00977990
H        6.95571217       7.17761587       8.71995315      -0.01553135       0.00673291      -0.00973088
H        7.04557251       6.34720394       7.14836184      -0.01298479       0.00978541      -0.01134263
H        5.82004849       7.60640375       7.42835064      -0.00819105       0.01506142      -0.01314678
H        8.61148861       7.97622717       7.23056343      -0.00587226       0.00234555      -0.00227211
O        2.68915544       5.55984471      11.90892723       0.01211685      -0.00460514      -0.00214761
C        3.67438211       4.69682854      11.34175767       0.01511590      -0.00239934      -0.00009936
H        3.19636563       3.84190546      10.85340513       0.01781000      -0.00411832       0.00023955
H        4.36842474       4.32885495      12.10023142       0.01514892      -0.00001658       0.00095907
H        4.25280929       5.23136086      10.58709908       0.01463969      -0.00153261       0.00001970
H        2.76374431       5.52184816      12.88381301       0.01203760      -0.00138327      -0.00162469
O        1.61697799      10.72681653       7.98940609       0.00159240      -0.00434208       0.00616032
C        0.73862355      10.69606390       6.88291027      -0.00339067      -0.01027676       0.01049608
H        1.27418094      10.81011407       5.93035724      -0.00768378      -0.01719731       0.00726676
H       -0.02720224      11.47267396       6.94974717      -0.00217545      -0.00903964       0.00882979
H        0.25464877       9.71679839       6.87940897      -0.00476830      -0.00965500       0.01919451
H        1.99356060      11.62259342       8.01583413      -0.00478925      -0.00163282       0.00665586
O        7.58928532       7.56630274      13.34312968       0.00301772      -0.00254586       0.00051191
C        6.75228502       7.03827705      12.32410503       0.00654790      -0.00570512      -0.00081053
H        7.21857073       6.20429661      11.78849150       0.00828432      -0.00753319       0.00359121
H        6.45277532       7.79919025      11.59411238       0.00956500      -0.00799504      -0.00440511
H        5.84957692       6.65969918      12.80553741       0.00460106      -0.00375435      -0.00291151
H        8.46719191       7.75379769      12.96931111       0.00360823      -0.00210410       0.00207739
O        2.49442345       5.32104250       7.97897711       0.00193250       0.00447527      -0.00710265
C        1.23282958       4.68065812       8.05419931       0.00656566      -0.00304909       0.00409378
H        0.47662524       5.20977661       7.46312123      -0.00182348      -0.00723231       0.01144166
H        0.88226258       4.61955229       9.08923641       0.01665632      -0.00500345       0.00727403
H        1.32968377       3.66791205       7.65957383       0.00873934      -0.00233698       0.00312039
H        2.46916225       6.07716516       8.62700721       0.00375112       0.00300302      -0.00516006
O        7.90047724      11.02661618       2.12016258      -0.00191745      -0.00195394      -0.00673942
C        8.69614015      10.83951864       0.92960109      -0.00138706      -0.00032784      -0.00669646
H        8.37796852      11.54701312       0.16505894      -0.00093202       0.00052750      -0.00629425
H        8.57634483       9.81871670       0.56571976      -0.00124232       0.00009909      -0.00839820
H        9.73651798      11.02384325       1.17702408      -0.00135192      -0.00089471      -0.00614291
H        6.92662564      11.09131654       1.79570849      -0.00155137      -0.00171640      -0.00765240
O        1.94234009      10.89204671       2.18873114      -0.00511837      -0.00154880       0.00039887
C        1.63946124      12.11445504       1.57781254      -0.00356129      -0.00015831       0.00237185
H        2.52871803      12.72648570       1.39192336      -0.00247058      -0.00135748       0.00289189
H        0.94716458      12.72602187       2.20210057      -0.00213319       0.00021484       0.00376071
H        1.17438918      11.89018875       0.59530909      -0.00445314       0.00225152       0.00219365
H        2.67631897      11.03492841       2.81143551      -0.00306585      -0.00342856      -0.00159949
O        4.37771230       3.35623168       2.43494650       0.00474632       0.01375368       0.00270975
C        4.95373217       2.20913373       1.82078280       0.01130247       0.00906935       0.01973635
H        4.77862638       1.30557133       2.41140609       0.02026539       0.01823267       0.03528723
H        6.02705877       2.32818892       1.65883835       0.00988826       0.01400314       0.01465404
H        4.47822033       2.08764847       0.84618623       0.00941318      -0.00987996       0.02363369
H        4.90201533       3.64815275       3.20748936      -0.00363547       0.01901516       0.00740972
O       10.13103254       4.79419799       4.73811109      -0.01123717       0.01180488       0.00254903
C       10.79924154       3.93569220       5.65404566      -0.00972456       0.00976922      -0.00027956
H       10.36471249       4.00669024       6.65509630      -0.00324531       0.01298871       0.00218219
H       11.87181257       4.15463936       5.71079004      -0.00867474       0.00567302      -0.00697560
H       10.66825950       2.91306452       5.30390052      -0.01612912       0.01003015       0.00177989
H       10.12964190       5.70307384       5.07947402      -0.00484912       0.01188451       0.00253981
O        2.51315983       0.03763543       8.00138878      -0.00684447      -0.00328167       0.01039404
C        2.33452611       0.72983282       9.22194081      -0.00506260       0.00717864       0.00416699
H        1.47124317       1.39946798       9.19842317      -0.01106441      -0.00086588       0.00427180
H        3.22561823       1.30731824       9.49239057      -0.00882173       0.01754560      -0.00749101
H        2.15870636      -0.01935072       9.99425602       0.00661248       0.01328582       0.01195976
H        2.28865031       0.59601710       7.24242953       0.00308895      -0.00645898       0.00480886
O        0.28566742       6.74008395       3.86133830       0.00407818       0.00942808       0.00351772
C        0.63858645       7.89597183       4.62039106       0.00114069       0.00824401       0.00657552
H        1.17691501       8.63095007       4.01507042       0.00425467       0.00881043       0.01006290
H        1.24624726       7.64359842       5.49336605      -0.00309576       0.00658150       0.00911474
H       -0.29829837       8.34404013       4.94693770      -0.00001284       0.00859132       0.00302219
H        1.09616632       6.36177191       3.50828595       0.00565559       0.01003786       0.00632660
O        3.16448309       5.63984949       5.40902232      -0.00686940      -0.00719079      -0.01028711
C        2.40024102       4.54950383       4.89393030      -0.01161107      -0.00780667      -0.00249712
H        1.34489735       4.65719116       5.15405737      -0.01031220      -0.00277089       0.00045427
H        2.77358218       3.59012943       5.26085814      -0.01299646      -0.00665411       0.00174068
H        2.49282661       4.55514064       3.80774641      -0.01504377      -0.01372930      -0.00284940
H        3.01770645       5.63841662       6.38856403      -0.00479937      -0.00162134      -0.00994192
O        2.27605410       7.21696370       9.77455935       0.00270310      -0.00426152       0.00211143
C        3.24095478       8.26515238       9.61454628      -0.00273046       0.00165960       0.00951625
H        4.26057526       7.89836685       9.76283826      -0.00103152       0.00590153       0.00786531
H        3.04413701       9.08587198      10.30621027      -0.00756043      -0.00459552       0.01533586
H        3.13419590       8.65515601       8.60527175      -0.00446653       0.00822298       0.01228416
H        2.38671262       6.80126807      10.65143832       0.00504838      -0.00836991      -0.00016327
O        9.99698345       6.78041607       7.59673056      -0.00676338      -0.00134832      -0.01304889
C       11.40362640       7.01533939       7.49039428      -0.00775313       0.00767047      -0.00492379
H       11.90730967       6.16740653       7.02121252       0.00186063       0.00636697       0.00853522
H       11.85927426       7.22044673       8.46172668      -0.01672956       0.02141567      -0.00397667
H       11.52455343       7.88143358       6.84586462      -0.00915384       0.00077519      -0.01410578
H        9.83431250       6.13012512       8.28653800      -0.00738240       0.00289521      -0.00931641
O        5.50713227       4.73423506       4.64356224      -0.00678107      -0.00872947      -0.00447144
C        6.44784366       5.75502671       4.28592518      -0.00504020      -0.01326742      -0.01282860
H        6.24876606       6.67705999       4.83530214      -0.00079884      -0.01050845      -0.01610611
H        6.40098329       5.97092684       3.21545874      -0.00834652      -0.01829663      -0.01365253
H        7.45037154       5.40188583       4.52845596      -0.00541276      -0.01524684      -0.01430128
H        4.66439379       5.17598473       4.93454699      -0.00668399      -0.00672929      -0.00541110
O        2.22588941       1.08139431       5.38223430       0.01656845      -0.01607108       0.01070023
C        1.31259939       1.50462687       4.37484351       0.00646876      -0.02490366       0.01680034
H        0.63962374       0.69680165       4.07786757       0.00342751      -0.02652389       0.03027778
H        1.84061537       1.90760942       3.50383894      -0.00239682      -0.03216459       0.00866359
H        0.70716709       2.30070506       4.80609822       0.01112619      -0.02079482       0.01521133
H        2.73300770       0.33058746       5.05142631       0.01066533      -0.02182359       0.01438963
O       11.88692416      -0.00698261       7.50706211      -0.00274312      -0.00653797      -0.00366589
C       12.21779044       1.30255204       7.90377330      -0.00472529      -0.00493121      -0.00721899
H       11.39738879       2.01086780       7.72752215      -0.00486237      -0.00640267      -0.01184922
H       13.11458552       1.67770113       7.39279244      -0.00347799      -0.00598403      -0.00586011
H       12.41685701       1.27564193       8.97499157      -0.00730658      -0.00176692      -0.00671336
H       11.88894018      -0.06391339       6.54327663      -0.00425011      -0.00858495      -0.00401418
O       10.14748002       7.67126512       4.32668293       0.01122141       0.01355660       0.00383720
C        8.90807708       8.13130056       3.81342174       0.00405571      -0.00493515       0.00556574
H        8.40524976       7.39589596       3.18009090       0.00889297      -0.01846892       0.01837754
H        9.05574686       9.01873732       3.16983418      -0.01002419      -0.01198527      -0.00622910
H        8.24981592       8.34303168       4.67126304       0.00662487      -0.00124884       0.00656461
H       10.60392243       7.23385131       3.57727975       0.01429142       0.01195927       0.00666463
O        5.76241018       3.73498442       7.24203928       0.01228678      -0.01162344      -0.00912416
C        4.79844655       2.69066183       7.24369516       0.00380889      -0.00359422      -0.00265820
H        4.92623252       2.12417443       8.16439814       0.00355081      -0.00275712      -0.00213930
H        4.94000819       2.00896804       6.40164398      -0.00580657      -0.00622809      -0.00187048
H        3.77818316       3.08527583       7.22583136       0.00716367       0.00491527       0.00100316
H        5.78398152       4.11548916       6.34500763       0.00625503      -0.00996639      -0.00842743
O        7.05041752       9.84064519       9.59928660      -0.00555545       0.00008421      -0.00109380
C        8.15728572       9.58099516      10.44058047      -0.00254482       0.00689888      -0.00281721
H        8.98542519      10.28142103      10.28775644      -0.01001307       0.01610065       0.00071187
H        8.53944492       8.56063743      10.32047333       0.00775655       0.01153594      -0.00793315
H        7.81993149       9.68730636      11.47075490      -0.00279850      -0.00220814      -0.00183412
H        7.28063111       9.57058797       8.69947902      -0.00407164       0.00425556      -0.00196061
O        9.78490426      10.30281602       6.20798109      -0.00376916       0.00097832      -0.00462389
C       10.19491289      10.49575164       7.60087364      -0.00875556       0.00617489      -0.00377101
H        9.94400521      11.50298083       7.92092932      -0.01313359       0.00640857      -0.00833926
H       11.27182207      10.36896830       7.67357141      -0.00880161       0.01047828       0.00181975
H        9.68590697       9.75502132       8.20940871      -0.00909497       0.00712591      -0.00269930
H       10.58188918      10.16976009       5.67866631      -0.00296921      -0.01437199       0.00067259
O       10.73751297       5.94607709       2.31940954       0.01523045       0.00816487       0.00762990
C       11.81594557       5.55059155       1.47623820       0.01324621       0.00275898       0.00793958
H       11.48225910       4.83937309       0.71580973       0.00911617       0.00690901       0.00592929
H       12.63438401       5.11072727       2.05057339       0.00955188      -0.00463298       0.00734812
H       12.18875876       6.43431926       0.96576620       0.01961494       0.00148481       0.01046485
H       10.63116298       5.30253744       3.04366384       0.00808512       0.00653251       0.00522294
O       11.34830624       3.20782702      11.87493151       0.01195580      -0.00227270      -0.00070277
C       10.50413012       3.58770657      10.78534632      -0.00032710      -0.00631163       0.00735883
H        9.57953588       4.01711613      11.16765733       0.00197601      -0.00983299       0.01669981
H       10.25621726       2.72260257      10.17076369      -0.00241748      -0.00748470       0.01018263
H       11.01390236       4.33280037      10.16399009      -0.00919153      -0.00449318       0.00243481
H       11.77341381       2.36682039      11.61611228       0.01052641      -0.00168985      -0.00316112
O       10.20280339       8.05596563      12.29242920      -0.00068459      -0.00009340      -0.00269529
C       10.55722577       6.81933405      11.69459142      -0.00022114      -0.00162986       0.00014353
H       10.28459847       5.97764414      12.33724826       0.00537182      -0.00024724       0.00425005
H       11.62825357       6.76411280      11.48640328      -0.00108248       0.00060420      -0.00540650
H       10.01262446       6.72353090      10.75058114      -0.00453237      -0.00566519       0.00354412
H       11.00072905       8.43092014      12.69769577      -0.00133857      -0.00190320       0.00057590
