199
Lattice="12.50924142554531 0.0 0.0 0.0 12.50924142554531 0.0 0.0 0.0 12.50924142554531" Properties=species:S:1:pos:R:3:forces:R:3 energy=-152401.359375 stress="0.0014918858651071787 -0.0006123031198512763 0.00048524797603022307 -0.0006123031198512763 0.0016586246201768517 0.00021564916823990643 0.00048524797603022307 0.00021564916823990643 0.0036353908944875" pbc="T T T"
O        2.15023249      11.67455094       0.62883180      -0.00407356      -0.00199867       0.00419223
H        1.19470108      12.44077080      -0.26587183       0.00783801       0.01163826       0.00552329
H        3.09984694      11.64627144       0.42486982      -0.00124750       0.00024661       0.01264022
H        2.03551703      11.71733244       1.61042377      -0.01087128      -0.00501892       0.00409935
O        2.01641416      11.69375782       6.53887300      -0.01339424      -0.01016173       0.00945312
H        0.91168749      11.33778712       7.52779062      -0.01785019       0.00776410       0.02284659
H        2.93852203      11.48992473       6.85869490      -0.01145394      -0.00843517       0.00624836
H        1.99554189      12.65768938       6.35332454      -0.01047808      -0.01308654      -0.00499360
S       11.90188604       1.18887043      -0.32317983      -0.00741340       0.00525901      -0.01071193
O       11.43684936       0.44774187       0.85373598      -0.00024116      -0.01026613       0.00146359
O       10.93149826       1.31339791      -1.39032683       0.01767325       0.01416340       0.01313913
O       12.51260057       2.46650881       0.05466506      -0.00297946       0.01301301       0.02735958
O       13.05057960       0.30093789      -0.96553601       0.01571888       0.02231494       0.00776081
O        9.28624779       6.79301661       4.83794693      -0.00120832      -0.01852819      -0.00334718
H        9.84417292       6.67771534       4.03460918      -0.00103202      -0.01170576      -0.00462199
H        8.67058217       7.53045334       4.63681465      -0.00005215      -0.01593034       0.00186266
O        2.22799891       1.85349553       9.93514013       0.01606244       0.02648798       0.01428034
H        1.53359762       1.40853978      10.45213048       0.01949348       0.03596925       0.02364919
H        1.77849436       2.59201045       9.51099885       0.00950611       0.00160050      -0.02058443
O        7.57393588      12.12056629       4.54665002      -0.00033337       0.00080210      -0.01311482
H        6.94413222      11.38603119       4.69850156       0.00281166      -0.00012220      -0.00602154
H        8.46974542      11.74072019       4.51050152       0.00121595       0.00399107      -0.00383032
O        1.57866168       8.84147027       5.63966560       0.00120156       0.01357618      -0.00173497
H        1.60459108       9.71547778       6.05171336       0.00634707       0.02223679      -0.01880623
H        2.20875582       8.92236431       4.88624085       0.00070851      -0.00422607      -0.00333374
O        4.41503136      10.95654276       7.32623261      -0.00738114      -0.00191325      -0.00531614
H        4.91937042      11.76826800       7.51951848      -0.00772279      -0.00058402      -0.00849065
H        4.20975528      10.44388345       8.14918399      -0.00282610      -0.00229188      -0.00356248
O       11.44609807       5.89762484       6.32967706      -0.00053189       0.00274711       0.00868554
H       11.57229824       6.22515676       7.22947918      -0.01769017       0.01041675       0.00830655
H       10.65315016       6.36505042       6.01023280      -0.00117336      -0.00796829      -0.00597735
O        5.96333327       8.33561577       1.95983005       0.00726852       0.00828940      -0.00484726
H        5.52231446       9.16074680       1.66775384      -0.00033644       0.00862578       0.00787911
H        5.30692034       7.82172397       2.45416992       0.01239724      -0.00399517      -0.01117513
O        5.02879691      10.77219909       0.91861715      -0.00673686       0.01153049       0.00913817
H        5.33531485      10.65595106       0.01100169      -0.00852445       0.00464600       0.00924724
H        5.59716859      11.47785305       1.29788366      -0.00057473       0.01002955       0.00471330
O        6.45785178       2.34090079       3.91807892      -0.01873028      -0.00470212      -0.02270636
H        6.54494812       1.74496976       3.15047181      -0.01293959       0.00123890      -0.02727500
H        7.11705943       2.00915140       4.54177396      -0.02950869      -0.01712079      -0.01798852
O        7.65673705       8.79221659       4.01033613       0.00382701      -0.01170878       0.00793315
H        7.08980141       8.59612950       3.22319628       0.00824251      -0.00023413       0.00252292
H        7.02421503       9.11946578       4.67756747       0.00265856      -0.01156476       0.00671018
O        5.59762588       0.91443436       6.85171471      -0.00880033      -0.00797953      -0.01656020
H        5.76546035       0.91353853       5.90378850      -0.03618310      -0.01676020      -0.02101931
H        5.11960299       1.75516772       7.02498579      -0.00615250      -0.00752771      -0.01033421
O        7.99803537       5.04540812       9.79625134      -0.00527084       0.00313729      -0.00678200
H        8.48548896       4.26245237       9.46162777       0.00332757       0.00587343      -0.00271533
H        7.42502708       4.74287555      10.52399279      -0.00613691       0.00068409      -0.00882367
O        0.83621422       9.33361134      -0.11899313       0.00937194      -0.00029033      -0.01338066
H        1.33251427      10.14646758       0.10273330       0.00726599      -0.00039791      -0.00842244
H        1.36185776       8.62446070       0.32068487       0.00543248      -0.00166332      -0.00974108
O        6.91451883       9.03144885      11.58466418      -0.00396998       0.02110104       0.00867803
H        7.64904678       8.58456348      11.11237783      -0.00615599       0.01974837       0.00575027
H        7.15205007       8.94110090      12.51774281      -0.01661559      -0.00752988       0.00896349
O        3.50304828       9.63582769       9.46499572       0.00955578      -0.00187168      -0.00493424
H        2.58985782       9.30764468       9.44915933       0.00905446      -0.00062504      -0.01115935
H        3.48942148      10.42079972      10.05146465       0.00626703      -0.00124776      -0.00578035
O       11.94617203       3.47298617       5.17379729       0.01915824       0.00366792       0.01395348
H       12.80455426       3.18201215       5.51694585       0.01851067      -0.00082803       0.01231019
H       11.80169716       4.36171995       5.58066221       0.01890188       0.00233429       0.01738250
O        9.26618584       2.69427501       6.12238815       0.02471006       0.00187770       0.00918715
H       10.17786743       2.84107411       5.82029622       0.02204102       0.01020426       0.00574123
H        8.74647486       3.43811396       5.74528879       0.01252838      -0.01133134       0.00137740
O        4.69011025       6.74495757       3.92880638       0.01496733      -0.01463483      -0.00972901
H        3.90880305       6.14113064       3.97843000       0.00997726      -0.00751543      -0.00227696
H        5.12943045       6.51224879       4.77468542       0.01522971      -0.01271714      -0.00929740
O       10.12541228       0.99326610       3.26638876       0.00050370      -0.00109389      -0.00442158
H       10.49112759       0.93810760       2.36593360       0.00089369      -0.00610559      -0.00335734
H        9.86787811       1.91291349       3.38133917       0.00699599       0.00176494      -0.00772642
O        9.90193959      11.34082419      10.26633292       0.00678016       0.00344892       0.02124638
H       10.29566402      10.72966183      10.91069987       0.00683885       0.02423026       0.04149413
H       10.42570296      12.15159906      10.38249568       0.00731871       0.00931002      -0.00123955
O        1.00402540       5.90005692       2.61150840       0.00043890       0.01054899       0.00913028
H        0.62016769       5.08645086       2.24834982       0.00388218       0.00963284       0.00904553
H        1.55103158       5.58860873       3.37326323       0.00078237       0.01224037       0.01008498
O        4.17352848       3.21277357       7.45586815      -0.00340393      -0.00769137      -0.00432259
H        4.56961090       4.00322005       7.02245281      -0.00198739      -0.00875352      -0.00559318
H        4.45546359       3.24524868       8.38966477       0.00010899      -0.00719274      -0.00499053
O        6.33979609      12.62213665       9.80788073      -0.00104856       0.01082096       0.00922716
H        6.11610573      13.56840807       9.83149507      -0.00511166       0.01011533       0.01073669
H        6.85092214      12.43512944      10.63214491       0.00270968       0.01219685       0.00796604
O        2.56338839       2.97217862       1.54485134      -0.01729786       0.00432850      -0.00753841
H        2.77542421       3.71092139       0.94012642      -0.00866950       0.00513475      -0.00420233
H        1.81389181       2.53085233       1.12786730      -0.02647577       0.01873370      -0.00556464
O        5.57426252      10.27774194       4.99998307       0.00159416      -0.00601959       0.00053076
H        5.15390089      10.39986711       5.88054506      -0.00127277      -0.00542300      -0.00071686
H        4.85566991      10.07271751       4.38183156       0.00362186      -0.00878009      -0.00072681
O       11.81273925       4.06697946       9.89531479       0.03051160      -0.01840766      -0.00470980
H       11.83880400       3.69805544      10.78605185       0.02222202      -0.01384480      -0.00265825
H       11.02337232       3.67122479       9.47942223       0.02433500      -0.01072084      -0.00289021
O        3.28368977       5.05726127      12.36309191      -0.00357312       0.00901066       0.00302953
H        4.23709177       4.88318227      12.24630737      -0.00383709       0.00593582       0.00034977
H        2.96092952       5.18376309      11.45766040      -0.00679315      -0.00045368       0.00266373
O        2.16962391       6.39744757       6.89353417      -0.00851387       0.00817521       0.00636011
H        1.31221866       6.20828656       7.30486950      -0.00713778       0.00690295       0.00962387
H        2.03212309       7.28913020       6.51100345      -0.00893161       0.00895548       0.00906686
O        3.82862495      12.02071702      10.73201863      -0.00578681       0.00062525      -0.00548804
H        3.30360218      12.71157103      10.30568311      -0.00578201      -0.00233558      -0.01051962
H        4.74112364      12.18172016      10.39965199      -0.00321712       0.00522321       0.00224038
O        3.67632050       2.67724085       4.01275194      -0.01527962       0.00383580      -0.01318602
H        3.37933271       2.67867369       3.07584241      -0.02243108       0.00656024      -0.01113743
H        4.64595588       2.55739172       4.02952649      -0.01509949       0.00056062      -0.02134940
O        0.63366886       9.11054292       9.67326672       0.01043594       0.00031921      -0.00880559
H        0.64052542       9.19036191      10.65721817       0.01382319      -0.00223423      -0.00837334
H        0.28262780       8.21555944       9.46022218       0.00627324       0.00165203      -0.00770422
O        3.36427024       9.05688960       3.62263107       0.00414887      -0.01521425      -0.00638863
H        3.02499448       8.85907513       2.73106172       0.00591615      -0.01831177      -0.00667399
H        3.86870793       8.23425469       3.84963045       0.00850578      -0.01176995      -0.00519322
O        5.43037775       5.38412776       6.23334929       0.00320437      -0.01263625      -0.00242551
H        6.27052715       5.05327069       5.84571752       0.00242954      -0.01621286      -0.00142827
H        5.71142504       5.90588829       7.02183720       0.00380871      -0.00799591      -0.00545332
O        7.87016834      11.58374009       7.62231784      -0.00496893       0.00717768       0.00954383
H        7.63632771      12.12398600       6.85507394      -0.01050109       0.01599437       0.01772339
H        7.38704831      11.99092554       8.36862500      -0.00152517      -0.00044762       0.01618481
O       -0.33007141       9.44116745       3.56303712      -0.00867638      -0.01500660       0.00239890
H        0.29639825      10.13550038       3.29039533      -0.01362454      -0.01397590      -0.00551473
H        0.11188177       9.04879095       4.33596092      -0.00257719      -0.00510389       0.00440555
O        8.46323618       9.81715187       1.38171144       0.02062086      -0.01236984       0.00910765
H        9.38648417      10.05513356       1.10949654       0.01412961      -0.01045469      -0.00596547
H        8.38890862       9.97564772       2.33021487       0.03468619      -0.00337921       0.00836188
O        9.07817078       7.46009721      10.63964531      -0.01753923       0.00699315       0.00299923
H        8.78166069       6.57198322      10.35185833      -0.01754049       0.00795059      -0.00076698
H        9.30898216       7.33483887      11.58131484      -0.01776946       0.00191382       0.00273778
O        2.64100450       5.13329138       4.53575585       0.00003805       0.00826114       0.00708565
H        3.05487667       4.24402811       4.50390623      -0.00695944       0.00518874       0.00449524
H        2.50305461       5.42038064       5.46681229      -0.00137611       0.00744911       0.00739449
O        0.22946640       6.48663792       9.07625521       0.00718145      -0.00354844       0.01418636
H       -0.25333388       5.71654630       9.44970231       0.01070544      -0.00905719       0.00855967
H        1.13644719       6.38883098       9.43364312       0.00745633      -0.00323100       0.01323518
O        6.32862967       6.72563538       8.39725875       0.00211585       0.00437697      -0.01279052
H        6.75456327       7.52772525       7.99508100       0.00379360       0.00309006      -0.01369048
H        7.03831473       6.14322784       8.73981985       0.00095259       0.00380158      -0.01080116
O        9.45906298       2.95222675       8.78802623       0.01426589       0.01134327       0.00294708
H        9.35238801       2.80726120       7.80980244       0.01988119       0.01171447       0.00230448
H        9.45917754       2.08638377       9.20691685       0.00605240       0.01044542       0.00271259
O        5.23962179       7.04372915      10.81258766       0.00600078       0.01052320      -0.01163241
H        5.67244548       7.83663063      11.20037303      -0.00313134       0.01474748      -0.01149397
H        5.60485689       7.01568371       9.89279225       0.00687892       0.01144977      -0.01170287
O       -0.15157567       0.33659736       4.68810060      -0.00926760      -0.00803956       0.00492892
H        0.17028919       1.08631300       5.19913475      -0.01152134      -0.00411180       0.00091207
H       -0.98475950       0.62395020       4.24894545      -0.00727463      -0.00946175      -0.00044186
O        7.75529147       4.66076995       4.96868810      -0.00047535      -0.02081498      -0.00538465
H        7.48286483       4.40325646       4.07707037      -0.00232201      -0.02399434      -0.00404666
H        8.31739940       5.47999341       4.88039695      -0.00138024      -0.02054209      -0.00810307
O       11.62787133       3.74143261       2.36420238      -0.00990699       0.00294322       0.02271145
H       11.93304457       3.14051114       1.66227813      -0.00626654       0.00628805       0.02318602
H       11.88360393       3.40725115       3.24143504       0.00121504       0.01048629       0.02326012
O        4.96531659       2.69291008      10.12685637       0.00542778       0.00556302      -0.00651690
H        4.06491016       2.44731052      10.39721255       0.00207636       0.01227508      -0.01053727
H        5.29521810       3.32625635      10.78803217       0.00340189       0.01130405      -0.01069699
O        1.99296246       1.96226134       6.01775484       0.00081393      -0.00952432      -0.00690211
H        2.57654106       2.09589882       5.23580589      -0.00581291      -0.00725125      -0.01177403
H        2.51638940       2.38124812       6.72558170       0.00729245      -0.01156218      -0.01016267
O        7.11181159       5.39593147       1.80667084      -0.00604671      -0.01125554      -0.00415620
H        6.42055448       5.88967259       2.26318267      -0.00198467      -0.01926596       0.01067104
H        7.75951190       6.07880161       1.51658279      -0.00749968      -0.00792945      -0.00040046
O       10.82194666       6.30907046       2.68978425      -0.00237900       0.00306760      -0.00629351
H       10.90461444       5.34786462       2.52234682       0.00953173       0.00211313       0.00300363
H       11.75391861       6.57439694       2.80092137      -0.00691192       0.01651518      -0.00364362
O       10.80659614      10.35469041       0.30900233       0.01226637      -0.00454755      -0.02560477
H       11.63273073       9.83393369       0.34591147       0.01405217      -0.00386071      -0.03394898
H       11.05784999      11.26850087       0.55232986       0.01040157      -0.00745378      -0.01672492
O        2.47443185       7.61786041       1.22833552      -0.00323835      -0.00123262      -0.00647194
H        1.91226367       6.95456648       1.70569650      -0.00431205       0.00517806       0.00159231
H        3.02241757       7.05827701       0.65759399      -0.00884745      -0.00992084      -0.00416672
O        9.03545448       7.17097651       0.89800358      -0.01064045      -0.01018601      -0.00281497
H        8.79589608       8.08512955       1.15789004      -0.00375615      -0.00871041       0.00137709
H        9.79326613       6.93268849       1.47787775      -0.00798402      -0.01317132      -0.00755483
O       10.03236086       8.02014366       8.05100815       0.00181803       0.00043558       0.01385905
H        9.89267576       7.95263782       9.01296930      -0.00806675       0.00168150       0.01299213
H       10.33346947       8.92837435       7.88151338       0.00300861       0.00052109       0.01676092
O        6.04980189       4.75442625      -0.67081548      -0.00886524       0.00763486      -0.00594090
H        6.45345211       4.88084812       0.21967370      -0.00808171       0.00411201      -0.00554239
H        5.82666772       5.67065080      -1.00148853      -0.00287072       0.00876757      -0.00617785
O        9.88375358      10.42007582       4.54829773      -0.00165784      -0.00503363       0.01110566
H        9.25253903       9.69542153       4.40132561      -0.00508750      -0.00349974       0.01574992
H       10.73291673      10.13233356       4.12294393      -0.00449486      -0.01031909       0.00933128
O        7.54581410       8.72833606       7.12607690       0.00916475       0.00547136      -0.00727054
H        7.49199288       9.66491001       7.38152948       0.00601655       0.00460495      -0.00403741
H        8.45502302       8.45134361       7.38358709       0.00731780       0.00498330      -0.00086572
O        6.72121631      12.74010489       2.02168563       0.00698209       0.00288587      -0.01277132
H        7.38289405      12.76596160       1.31255580       0.00404872      -0.00837828      -0.01694696
H        7.17757849      12.41703376       2.83167100       0.00674202       0.00225510      -0.01274930
O        1.59116402      11.54472507       3.21841316      -0.01264054      -0.01231372       0.00239334
H        0.98131224      12.13115705       3.74818934      -0.00940034      -0.01305250       0.00728136
H        2.28299501      11.26507830       3.82675145      -0.01069021      -0.01848322      -0.00240304
O        2.87468962       6.22915712       9.69950834       0.00887778      -0.01068188       0.00284927
H        3.57214125       6.78348920      10.10356572       0.01108307      -0.01003191      -0.00101490
H        3.02596621       6.26403901       8.74026172       0.00088453      -0.00774332       0.00179207
O       12.65190458      11.10822534       8.16665143      -0.01378081       0.02154727       0.02916803
H       11.73007490      10.98821367       7.68860868      -0.00977267       0.01425241       0.02305387
H       12.84153896      10.30444370       8.77079162      -0.01018298       0.01008046       0.01361685
O       10.42215912      10.67759640       7.15799424      -0.00561965       0.00443572       0.01356608
H        9.62819284      11.11131541       7.53696829      -0.01054154       0.00357538       0.00520186
H       10.26182838      10.60956952       6.17985354       0.00207052       0.00267379       0.01294126
O        7.86519298      12.02255530      11.96759528       0.00171782       0.00409691       0.00450626
H        7.71619181      11.14897981      12.35971857      -0.01219663      -0.00688552      -0.02706102
H        8.63697147      11.85534821      11.37247091       0.00788292       0.01386630       0.00767896
