193
Lattice="13.572836126935211 0.0 0.0 0.0 13.572836126935211 0.0 0.0 0.0 13.572836126935211" Properties=species:S:1:pos:R:3:forces:R:3 energy=-312967.3125 stress="-7.96226886450313e-05 -0.0004898853076156229 9.057711940840818e-05 -0.0004898853076156229 0.00090477877529338 0.0003251469897804782 9.057711940840818e-05 0.0003251469897804782 -0.00045583443716168404" pbc="T T T"
O       13.56569314      13.00505385       1.55404289       0.01434943      -0.02527554      -0.03018710
H       12.69548428      13.34893996       1.32651068       0.02446753      -0.02075905      -0.00157471
H       13.66933929      12.22717987       0.99692181       0.01373707      -0.00122654       0.00690995
H       12.08420147      12.92655593       4.28328220       0.01316829      -0.00633007       0.00973919
O        8.47680189      13.82501525       4.83894230       0.01692215      -0.00838699      -0.01280321
H        8.83100029      13.10400966       4.28799135      -0.00464594       0.04347128       0.02189653
H       11.48578657      12.62947686       4.60990156       0.00446831      -0.00850305      -0.00878402
H        9.23812648      14.30118521       5.19677632      -0.00224687       0.01703800       0.01253369
O        4.76672938       7.29155425       7.60872430      -0.00147867       0.01104033       0.00094378
O        6.19570907       8.45796669       9.56455753       0.01502937       0.00593424      -0.00859153
O        7.33161859       6.63830327       7.93526476      -0.00399804      -0.00546747      -0.00902987
O        5.52487944       5.85146678       9.74296573       0.00017303       0.01144004       0.00205922
Cr       5.96103221       7.06871274       8.71637436       0.00241265       0.00513784      -0.00441596
S        0.78818456       2.21485429      10.75628438      -0.00578856       0.00426590      -0.00224775
O       -0.22807864       1.10995836      10.67131720      -0.00806725       0.00708783      -0.00567174
C        2.38565976       1.50659860      10.33732737      -0.00686044       0.00012445       0.00026722
C        1.06484784       2.47856756      12.51399060      -0.00860779       0.00198234      -0.00128835
H        2.29203580       1.13828342       9.31713606      -0.00647847       0.00082970      -0.00004971
H        2.65646990       0.69264992      11.01212636      -0.01042882      -0.00104639       0.00035915
H        3.14497729       2.29121260      10.34108859      -0.00465449      -0.00215304       0.00160464
H        1.84658119       3.22437832      12.64964901      -0.00528222      -0.00206255       0.00086279
H        1.32715374       1.52817061      12.97939319      -0.01453293       0.00043702      -0.00106366
H        0.13019602       2.86266219      12.91733317      -0.00757511       0.00665980      -0.00347481
S        4.41200894       1.65499823       3.39050425      -0.00219038      -0.00423884       0.00125217
O        4.67577196       2.94522757       2.67902827       0.00011870      -0.00434136       0.00359881
C        5.70819952       0.49900812       2.91623597      -0.00005752      -0.00394624       0.00579286
C        3.05645261       0.84847189       2.51432316       0.00124186      -0.00371313      -0.00474080
H        6.64290111       0.83266063       3.36833033      -0.00165479      -0.00311486       0.00979963
H        5.78587556       0.47153013       1.82929080       0.00412519      -0.00354536       0.00635333
H        5.46335372      -0.48540317       3.31795438      -0.00101849      -0.00380433       0.00458927
H        2.83602763      -0.10304741       2.99546402      -0.00108088      -0.00435103      -0.00706080
H        3.32500526       0.69385231       1.46983762       0.00536975      -0.00262005      -0.00399984
H        2.18759890       1.49778915       2.59526432       0.00131367      -0.00368802      -0.00761345
S        7.58329436       5.45548357       1.37768064       0.00161445      -0.00656229      -0.00074124
O        6.21922320       5.99330761       1.67254750       0.00210333      -0.00479329      -0.00056696
C        7.78415274       3.97220862       2.37501224      -0.00089211      -0.00807661      -0.00278062
C        8.75810397       6.49828193       2.27706753       0.00199971      -0.00967854       0.00245005
H        7.02892085       3.26886938       2.03487184       0.00082120      -0.00831756      -0.00627846
H        7.61674030       4.21579834       3.42349739      -0.00457241      -0.00976312      -0.00292510
H        8.77571330       3.55007306       2.21707012      -0.00018640      -0.00722387      -0.00000961
H        9.76919729       6.22725384       1.97125067       0.00193927      -0.01073534       0.00396015
H        8.62176025       6.39678102       3.35364780       0.00075600      -0.01190544       0.00190489
H        8.54692051       7.51725139       1.96309378       0.00387061      -0.00872488       0.00429787
S       11.08699536       1.55552118       7.68001931      -0.00674048      -0.00259578      -0.00912106
O       10.44392722       1.96843371       6.38835710      -0.00480962      -0.00259143      -0.00305188
C       11.34780730       3.02377006       8.67978735      -0.00768065      -0.00377470      -0.00574028
C       12.82625768       1.23498832       7.33272279      -0.00511491      -0.00064483      -0.00794409
H       10.37065751       3.39602578       8.97626844      -0.00858845      -0.00750389      -0.00373451
H       11.85060868       3.79032530       8.09292927      -0.01204100      -0.00168288      -0.00692952
H       11.92387322       2.72103055       9.55274125      -0.00494124      -0.00232296      -0.00752075
H       13.29482506       0.93041552       8.26905060      -0.00327954       0.00200343      -0.00868228
H       13.28365059       2.13785195       6.92806710      -0.00811423      -0.00020403      -0.01061298
H       12.86173446       0.43028949       6.60242121      -0.00469358      -0.00189671      -0.00697092
S       10.20430095       1.33328773      13.24989805       0.00893378      -0.00121957      -0.00078481
O        8.98823252       0.96187341      14.03076010       0.01134098      -0.00041902       0.00557703
C       10.04279893       3.07549658      12.81499645       0.00604962      -0.00173879      -0.00095616
C        9.99488760       0.69537111      11.57477797       0.00037214      -0.00298935       0.00119942
H       10.17515334       3.64765313      13.73178462       0.01081335      -0.00122461      -0.00210644
H        9.04161288       3.24043742      12.41137604       0.00410429      -0.00195134       0.00398460
H       10.82623235       3.35113287      12.10769440       0.00244758      -0.00232299      -0.00529130
H       10.89481019       0.93468605      11.00646532      -0.00249004      -0.00250974      -0.00347403
H        9.09709692       1.12964929      11.13402737      -0.00202143      -0.00434975       0.00535659
H        9.89335010      -0.38510457      11.66343672       0.00216143      -0.00312890       0.00240251
S       10.50251939       5.91972711       5.78483915      -0.00363445      -0.00221965      -0.00052476
O       11.09669814       5.63828338       7.12425074      -0.00214696       0.00345623      -0.00047719
C       11.28010969       4.76929325       4.63784976       0.00020093      -0.00210786       0.00201657
C       11.27589219       7.42541965       5.18349617      -0.00962675      -0.00065410      -0.00508794
H       11.00615710       3.77011679       4.97591508       0.00367171      -0.00232552       0.00464404
H       12.35869101       4.92750147       4.65262569      -0.00045988       0.00190488       0.00116822
H       10.89709501       4.95335092       3.63479000      -0.00097980      -0.00668440       0.00172307
H       10.90543875       7.63563033       4.17989374      -0.01448300      -0.00295470      -0.00394674
H       12.35572025       7.28329446       5.15329783      -0.00950047       0.00253673      -0.00883692
H       10.98605300       8.22120244       5.86866665      -0.00941022      -0.00071718      -0.00491074
S        2.48343263      10.24454542       1.24075002      -0.01252699       0.00722647       0.00449566
O        1.26950166       9.42797924       0.92984304      -0.01935756       0.01749861       0.00614005
C        3.89452225       9.13021407       1.36889784      -0.01742089      -0.00036240      -0.01580800
C        2.38225943      10.62827996       3.00041946       0.00177186      -0.00729375       0.00773698
H        3.98333314       8.61705790       0.41499490      -0.02449416       0.01035735      -0.02204022
H        3.75349955       8.43228085       2.19126255      -0.01626517      -0.00914033      -0.02315465
H        4.78701642       9.72501123       1.56346218      -0.01445733      -0.00626417      -0.01296594
H        3.34122959      11.01283326       3.34846261       0.00443904      -0.01035882       0.00315781
H        2.14489321       9.70663934       3.53003041       0.00506262      -0.01101804       0.00244369
H        1.58870682      11.36545345       3.11690828       0.00284511      -0.00787438       0.01830630
S        4.52164923      11.87772761      10.55462099      -0.00014485      -0.00021166       0.00061917
O        4.22639316      12.70745878      11.77497508      -0.00345227      -0.00247931       0.00116992
C        3.87109684      10.23405137      10.86044367       0.00622582      -0.00309825      -0.00072047
C        6.26487561      11.45612831      10.61533579       0.00147277       0.00569502       0.00098032
H        2.78728158      10.27423090      10.78384336       0.00615367      -0.00794676      -0.00093821
H        4.16484810       9.93911010      11.86807863       0.00767807      -0.00222298      -0.00101674
H        4.28433416       9.53604922      10.12853615       0.00988843      -0.00058897      -0.00110394
H        6.44143573      10.58972090       9.97465802       0.00463908       0.00725317      -0.00028400
H        6.51573967      11.24236796      11.65429113       0.00138418       0.00507417       0.00083902
H        6.81491840      12.32423506      10.25908184      -0.00172404       0.00823060       0.00212332
S        5.45840532       3.39703362      11.72710813      -0.00076437       0.00006241       0.00415301
O        6.91835353       3.63097680      11.97531929      -0.00208592       0.00093538       0.01155168
C        4.59476196       4.82039407      12.40909178      -0.00390431       0.00036019      -0.00099766
C        4.97548038       2.18406815      12.96378950      -0.00722320      -0.00033748       0.00137436
H        4.84999343       5.63748354      11.72967036       0.00052752       0.00016326       0.00047684
H        4.92708187       5.00041694      13.43286825      -0.00859843      -0.00007253       0.00056499
H        3.51917901       4.64958240      12.35848946      -0.00386982       0.00158975      -0.00719950
H        3.89525175       2.04839203      12.93576501      -0.00610982      -0.00510986      -0.00937854
H        5.29061357       2.53151853      13.94779930      -0.01780765       0.00120088       0.00392215
H        5.44625257       1.24113940      12.69161453      -0.00108825       0.00130716       0.00636111
S        5.03823002      11.47754853       6.45552585       0.00203919       0.00746508       0.00320959
O        5.97819244      11.24343467       7.58990679       0.00348949       0.01663154       0.00271451
C        4.43055980      13.15190314       6.69163592      -0.01825243      -0.00047010       0.00454786
C        3.53997145      10.56845078       6.85276543       0.01211762      -0.01027799      -0.00021878
H        5.28051515      13.81659432       6.55138087      -0.02604207       0.00959814       0.00972862
H        4.07337366      13.26489522       7.71388185      -0.02361258      -0.00762430       0.00375012
H        3.65345036      13.38061650       5.96265669      -0.01819963      -0.00832620       0.00219536
H        2.78499677      10.77543586       6.09406406       0.01260082      -0.01953370      -0.00303215
H        3.19669946      10.86873515       7.84289504       0.00547556      -0.01377874      -0.00167479
H        3.80945794       9.51090313       6.84010822       0.02326730      -0.00718901       0.00151292
S       11.70548682       6.88063448      11.55521108       0.01681113      -0.01043665      -0.00241864
O       12.73938181       5.81536668      11.36071621       0.00970924      -0.01522779      -0.01387233
C       11.12475060       7.39943130       9.93040200       0.00876950       0.00072241       0.00432533
C       12.54678863       8.42597493      11.95191193       0.02846986      -0.01703131      -0.00260042
H       10.74837749       6.52625940       9.40167342       0.00029745       0.00529622       0.00264648
H       11.95166720       7.82931647       9.36941624       0.00727378      -0.00069911       0.00135620
H       10.32509529       8.12302521      10.08108468       0.01379283       0.00385897       0.01446924
H       11.79764014       9.21418721      11.87271876       0.03223715      -0.01241841       0.00842062
H       13.36787932       8.56307930      11.24752204       0.02221169      -0.01821401      -0.00965244
H       12.93217070       8.36897051      12.96770138       0.03718226      -0.02308828      -0.00650534
S       10.13784972      11.65824389       2.05133487       0.00735176       0.00893664      -0.00354660
O        9.28200142      11.62406093       3.28248915       0.01685536       0.02127337       0.00345123
C        9.06908884      11.21779285       0.68119797      -0.00584769       0.00771561       0.00731611
C       11.11932099      10.14689146       2.08799804      -0.00117856       0.00358504      -0.00245749
H        8.46547122      12.09819447       0.46820399      -0.00106162       0.01119527       0.00662400
H        8.45404911      10.37217305       0.99058329      -0.00934290       0.01459633       0.01848079
H        9.65753456      10.93172300      -0.18954132      -0.01467969      -0.00201805       0.00520119
H       11.80403475      10.12994949       1.24000937      -0.00802684      -0.00478619      -0.00708874
H       10.46149691       9.27804583       2.07245572      -0.00640018       0.00762093       0.00789353
H       11.69071952      10.17391821       3.01365217       0.00606406       0.00529299      -0.00676794
S        8.35711129       7.83498650      12.58947911       0.00746375      -0.00451982       0.00471687
O        9.17771836       8.94785928      11.99960868       0.01323307      -0.00455904       0.01175284
C        8.22760317       6.52394724      11.37672374       0.00871729       0.00022900      -0.00023252
C        6.62796959       8.33477505      12.52980858       0.00863397      -0.00047678      -0.00172620
H        8.09801335       6.97944017      10.39589263      -0.00164564       0.00334841       0.00275078
H        7.37394190       5.89171748      11.61025572       0.01549487      -0.00700965       0.00392441
H        9.13455066       5.92771109      11.42872349       0.01362693       0.00755429      -0.00895455
H        6.05694216       7.56389458      13.04958976       0.00462724      -0.00036504      -0.00654460
H        6.32729509       8.43948277      11.47526787       0.01346715       0.00275651      -0.00265568
H        6.55250842       9.27372659      13.07623234       0.00798324      -0.00149519       0.00016470
S        6.16318357       3.37730183       7.68853690      -0.00988807       0.01050210       0.00165343
O        5.51706779       2.13975007       8.23274851      -0.01445776       0.00888729      -0.00640404
C        7.06234521       2.82600547       6.22154322      -0.00951141       0.01587406       0.00039589
C        7.62407247       3.70092721       8.67471102      -0.01033229       0.00041950       0.00565028
H        6.33647681       2.62688925       5.43481586      -0.00918566       0.02366588      -0.00211259
H        7.60350137       1.91307656       6.46393566      -0.01438031       0.01182392      -0.00424477
H        7.75680118       3.60351306       5.90537498      -0.00587398       0.01472779       0.00604767
H        8.15016616       4.54292954       8.22172722      -0.00610810      -0.00074260       0.00848416
H        8.21467273       2.78350742       8.70721581      -0.01460493      -0.00241759       0.00394070
H        7.28356609       3.99321994       9.66485852      -0.01009189      -0.00061355       0.00581568
S        2.05284978       6.98329597       8.32016387      -0.01233265       0.00657314       0.00386214
O        1.96785036       7.76446148       9.59014234      -0.02113348       0.00765491       0.00316334
C        0.36659499       6.45923936       7.96988659      -0.00863475      -0.00416899      -0.00689798
C        2.67443033       5.34393718       8.71694586      -0.00668518       0.01822162       0.01761293
H       -0.20762698       7.33931224       7.68927473      -0.01264902      -0.00783120      -0.01050103
H       -0.06244033       5.99931678       8.86112969      -0.00868574      -0.00667119      -0.00815657
H        0.36516469       5.76654743       7.12888493       0.00475662      -0.00476095      -0.00656982
H        2.68422370       4.74776767       7.80229582      -0.00418771       0.01631108       0.01968635
H        2.01791869       4.89419457       9.46423749      -0.00422843       0.01519877       0.01675225
H        3.69994081       5.46245448       9.08804653      -0.00715303       0.02039325       0.01555127
S       10.07976018      10.60338492       8.38127430      -0.00071800      -0.00357670      -0.00274873
O       10.30396229       9.68050544       7.23130560      -0.00101370      -0.00183713      -0.00293398
C        9.06122411      11.95015127       7.78168655       0.00841674       0.00074500       0.00182545
C       11.62111122      11.52805064       8.55864577      -0.00197852      -0.01299715       0.00022461
H        8.04935872      11.56367416       7.65096450       0.00852776       0.00311629      -0.00048595
H        9.45168961      12.30760705       6.82881835       0.00845431       0.00140731       0.00320987
H        9.05405036      12.75023108       8.52243264       0.00650666       0.00032302       0.00165466
H       11.49963841      12.33970406       9.27520546       0.01073947      -0.01091956       0.01090574
H       11.89371286      11.91463073       7.57689694       0.01170604      -0.00742548      -0.00248560
H       12.37740205      10.82791270       8.90930010      -0.00394128      -0.00647514      -0.00075433
S        6.30687355       8.15907588       4.34176971       0.01204395       0.01139241      -0.00613523
O        4.92021833       8.73460713       4.32618642       0.01447630       0.01732099      -0.02116382
C        6.17849821       6.51084859       5.04650529      -0.00166347       0.01348758      -0.00522259
C        7.21035932       8.92385652       5.68655713       0.00161749       0.00963816       0.00144625
H        5.79686521       5.86152729       4.26142244       0.00126076       0.01456833      -0.00735801
H        5.51835396       6.58352654       5.92051931      -0.00710978       0.01679987      -0.00983569
H        7.16421744       6.19215836       5.38589665      -0.00562485       0.00918645       0.00241160
H        8.13910166       8.37764276       5.84662976      -0.00230075       0.00604810       0.01123054
H        6.61693169       8.88990091       6.59732486      -0.00697334       0.01267815      -0.00408764
H        7.42911767       9.94680695       5.38874863       0.00820881       0.00839798       0.00284638
S        1.85465955       6.53874233       3.32465624       0.00017381      -0.00470817       0.00804335
O        0.43879741       6.49275325       3.80374620       0.00158632      -0.01351741       0.01051748
C        1.91725369       5.56247523       1.81002138       0.00256889       0.00131661       0.00430518
C        2.77829981       5.40441178       4.37002872       0.00840071      -0.00363970       0.00132221
H        1.42972496       6.14985043       1.03352949      -0.00472042      -0.00016007       0.00796665
H        1.38193660       4.62789134       1.98023054       0.01110040      -0.00369352       0.00251594
H        2.95887693       5.37209771       1.55203522       0.00323038       0.01106858       0.00055588
H        3.68529989       5.08131752       3.86248371       0.00944783       0.00454395      -0.00138566
H        2.13005674       4.55039416       4.57172475       0.01410919      -0.00864127      -0.00232888
H        3.02480623       5.93649204       5.28832227       0.00602760      -0.00646144       0.00356036
