193
Lattice="13.549723082054404 0.0 0.0 0.0 13.549723082054404 0.0 0.0 0.0 13.549723082054404" Properties=species:S:1:pos:R:3:forces:R:3 energy=-736984.4375 stress="-7.626215847267304e-06 0.00014235041453503072 -0.0007911289285402745 0.00014235041453503072 -0.0008778138435445726 0.00032529527379665524 -0.0007911289285402745 0.00032529527379665524 -0.0008821411756798625" pbc="T T T"
O       12.65070959      12.20569583       3.30521037       0.03970814       0.01909714       0.01306459
H       12.23680550      12.75448672       1.10460905       0.01679641       0.00723085      -0.00450850
H       13.39773746      11.64213740       3.52252376      -0.00974667       0.00990094       0.01033118
H       12.98611191      13.12619466       3.32796852      -0.01868016      -0.04149166       0.00343074
O        9.82467659      13.13536598       4.40493420       0.01475102       0.00526625       0.00419278
H        9.46780139      12.30472935       3.99381440       0.01007687       0.00740477       0.00128479
H       10.74258103      12.91023958       4.59680555       0.01509938       0.00436161      -0.00533672
H        9.94883636      14.33408474       3.38803004       0.00108836       0.00847796       0.00132293
O       11.89428157       2.98530926       0.89364025       0.00822860      -0.02697806       0.03062607
O       12.95187147       1.33051740       2.87921449       0.00138519      -0.01254763       0.02229466
O       11.92122654      -0.02251363       0.61292759       0.01627465       0.00298607       0.00155523
O       10.09975584       1.49988877       2.67839734      -0.00370061       0.00381333      -0.00077402
W       11.67868465       1.49205214       1.71167763      -0.00393736       0.04168868      -0.02406184
S        1.00486804       2.17320110      10.64341639      -0.00820506       0.01181161      -0.01421404
O       -0.04616719       1.24937528      11.17596075      -0.01646554       0.00970352      -0.03622288
C        2.49335242       1.20618242      10.38593509      -0.00893676       0.00927603      -0.00747792
C        1.58104817       3.20539301      11.99561049      -0.01946349      -0.00554830       0.00253344
H        2.22594074       0.44798186       9.65062448       0.00101104       0.01877019      -0.02006673
H        2.79424337       0.70895981      11.30926907      -0.01663841       0.00039573      -0.01001549
H        3.28479894       1.84326228       9.98840220      -0.00562993       0.01406983       0.00912115
H        2.35166637       3.85666737      11.58430771      -0.01462924      -0.00292540       0.01663300
H        1.97309922       2.58781387      12.80468704      -0.02786812      -0.01616427      -0.00215629
H        0.72809985       3.79028341      12.33572420      -0.02152424      -0.00782477       0.00063323
S        4.35317763       1.61110098       3.49587495      -0.00205746      -0.01670980      -0.00251353
O        4.55819051       2.96080811       2.89113576       0.00344296      -0.01600051       0.00302589
C        5.68470482       0.55496237       2.88578278      -0.00698274      -0.01973790      -0.00823686
C        3.00671366       0.82318565       2.59267424      -0.00631139      -0.00681391      -0.00562757
H        6.61373921       0.95269790       3.29196463      -0.00539779      -0.02489880      -0.00704990
H        5.71295528       0.58388557       1.79682885      -0.00695333      -0.01399461      -0.00819826
H        5.53583487      -0.46091635       3.25400964      -0.01056892      -0.02052268      -0.01232725
H        2.85159719      -0.16840273       3.01413515      -0.01066711      -0.00748199      -0.00949149
H        3.25467463       0.75446199       1.53342497      -0.00714867      -0.00437893      -0.00588854
H        2.11411872       1.42693423       2.75008762      -0.00338544      -0.00332947      -0.00284968
S        7.03128376       5.47312109       1.58720098       0.00979483      -0.00375676       0.00211227
O        5.63193167       5.78925472       1.98443062       0.01118696       0.00720847      -0.00029796
C        7.63105916       4.10792842       2.58962937      -0.00237447      -0.00148594       0.01153749
C        8.08639023       6.76092180       2.29062851       0.01733941      -0.00776350      -0.00293037
H        7.03645140       3.24130158       2.31282476      -0.00735947       0.00093505       0.01484818
H        7.48006735       4.34199521       3.64285186      -0.00566182       0.00621122       0.00916542
H        8.68353756       3.93487102       2.36374261      -0.00284876      -0.00979710       0.01758476
H        9.10321477       6.62980413       1.92077719       0.01796284      -0.02065155       0.00495573
H        8.06093540       6.71719490       3.37779676       0.01012772       0.00271148      -0.00296578
H        7.67594491       7.70982386       1.94975011       0.02929176      -0.00724064      -0.01417462
S       11.21711905       1.97632393       7.95495509      -0.00913489      -0.00351596      -0.02124655
O       10.62316844       2.34959765       6.64029278      -0.00254458      -0.00309902      -0.02520394
C       11.64318261       3.49102103       8.83679096      -0.01786827      -0.00402027      -0.01838794
C       12.90403049       1.42902527       7.61235379      -0.00616217      -0.00002914      -0.01082444
H       10.71735463       3.96949231       9.14657698      -0.02112761      -0.00195547      -0.03379564
H       12.18488933       4.15001098       8.15802511      -0.00758006      -0.00541176      -0.01064530
H       12.24034007       3.23947445       9.71230522      -0.03139518      -0.00480979      -0.01011162
H       13.37922089       1.13010558       8.54523947      -0.01727784      -0.01161316      -0.00939220
H       13.45364394       2.22872802       7.11506672      -0.00065037       0.00518669       0.00544290
H       12.81093645       0.57231798       6.94904304       0.00102807       0.00842726      -0.02188978
S        9.47869610       1.53117187      13.04193784       0.02314496      -0.00264704       0.01477134
O        8.12775553       0.92564744      13.21218073       0.02515781      -0.00393564       0.03438611
C        9.29877348       3.23693297      12.52118960       0.01154523      -0.00713319       0.00893590
C       10.19600755       0.88487772      11.53093573       0.00704199      -0.01159488       0.01265854
H        8.73370296       3.74326594      13.30332616       0.02710501      -0.00363412       0.01686956
H        8.71782620       3.26770436      11.60054334      -0.00745261      -0.01498074       0.02199943
H       10.28457045       3.69089976      12.42677072       0.00668670      -0.00411955      -0.01453443
H       11.22267081       1.24336236      11.43053314       0.00306292      -0.00643077      -0.00235760
H        9.57027769       1.18378497      10.68800847      -0.00463647      -0.02148607       0.01867874
H       10.20220602      -0.19832932      11.63865543       0.01554885      -0.01043960       0.02204120
S       10.18161504       6.11567509       5.34014181       0.00625443      -0.00317228       0.01155400
O        9.91603745       5.72510760       6.75754509       0.00739470      -0.00842267       0.01050019
C       10.99250299       4.72261910       4.53234160       0.01344767       0.00416023       0.00718206
C       11.57922374       7.24307982       5.33490152       0.00082952       0.00290585       0.01678775
H       10.27889454       3.90174243       4.51196428       0.01905465      -0.00056479       0.00695492
H       11.85505802       4.42078020       5.12461955       0.01657096       0.00873651       0.00506814
H       11.28963269       5.00969470       3.52259203       0.01038873       0.00864547       0.00780998
H       11.91147325       7.41387870       4.31164958       0.00079735       0.00802013       0.01782541
H       12.39628796       6.78901488       5.89561725       0.00215033       0.00362910       0.01532032
H       11.24779881       8.16519675       5.81061076      -0.00309901      -0.00037986       0.02040273
S        3.34573471       9.89994772       1.12782181      -0.00078619      -0.00810492      -0.00167792
O        2.37162814       8.92257484       0.56079524       0.00465727      -0.01168263      -0.00636917
C        4.52797853       8.96063296       2.11704262       0.00092006      -0.00293368       0.00092781
C        2.52336732      10.66085246       2.55732273      -0.01059166      -0.01363274      -0.00486314
H        4.94071019       8.18287449       1.47826853       0.00792317       0.00009560       0.00190341
H        4.02206622       8.48753723       2.95641976       0.00163378      -0.00598188      -0.00036047
H        5.31918115       9.62922620       2.46244855      -0.00441327       0.00172644       0.00369506
H        3.27276405      11.13528358       3.19255535      -0.01618870      -0.01087381      -0.00048840
H        2.00733268       9.86459335       3.09765128      -0.00933499      -0.01682688      -0.00830826
H        1.82424439      11.40248655       2.17387695      -0.01249127      -0.01719771      -0.00755275
S        4.23692209      11.77958233      10.71673415       0.00207879       0.02618474       0.01251292
O        3.67831796      12.32134797      11.99769646       0.01752508       0.02870691       0.01792264
C        4.32753228       9.99206516      10.91270942      -0.00670483       0.02568269       0.00721012
C        6.00465197      12.10319230      10.74442067       0.00371444       0.01456134      -0.00466628
H        3.32607162       9.58885991      10.77861018      -0.01157010       0.03479287       0.02092807
H        4.66188739       9.80547422      11.93098317       0.00370467       0.02088552       0.00250135
H        5.02287149       9.58847453      10.17900154      -0.01992248       0.02229706      -0.00321680
H        6.48918666      11.49053425       9.98794116      -0.00698591       0.01508200      -0.01143217
H        6.37380373      11.85457699      11.73939224       0.01205585       0.01034698      -0.00916997
H        6.14079973      13.16470957      10.54250119       0.00839017       0.01386352      -0.00257779
S        5.14188318       3.44060120      11.58677047       0.00295162       0.00099200       0.01068464
O        6.54541650       3.59607363      11.10158636       0.00329959       0.01028420       0.01421329
C        4.68515040       5.06166253      12.22552121      -0.00763469      -0.00518364       0.01729879
C        5.26009907       2.59933547      13.17126051       0.00450280      -0.00700611       0.00574589
H        4.57378723       5.68860853      11.34397306      -0.00875347      -0.00147771       0.02024990
H        5.48845736       5.40492112      12.87087082      -0.01374134      -0.00293931       0.02344799
H        3.75511752       5.02259786      12.78786122      -0.00978576      -0.01425734       0.01257081
H        4.33498790       2.72017940      13.73292228       0.00285135      -0.01373158       0.00420329
H        6.09055546       3.03407839      13.72509197       0.00170948      -0.00684507       0.00962477
H        5.46960372       1.55113690      12.96644122       0.00748738      -0.00524014       0.00072975
S        4.80939175      11.00142713       6.66483212      -0.00033939       0.00844783      -0.00263882
O        5.46979117      10.40755887       7.87003977      -0.00210148       0.00849581      -0.00136673
C        4.80909923      12.77532567       6.93424396      -0.00943275       0.00709653       0.00227454
C        3.03946955      10.72680640       6.85297685      -0.00064057       0.00232825      -0.00834383
H        5.84616092      13.10130739       6.95519256      -0.01149353       0.01258274       0.00738364
H        4.35435397      13.00979975       7.89530489      -0.01396432       0.00174587       0.00136527
H        4.28755667      13.28025512       6.11986470      -0.00903313       0.00667924       0.00185736
H        2.50725416      11.29293514       6.08900794      -0.00530292       0.00686205      -0.00201463
H        2.73881288      11.04156721       7.85329400      -0.00058410      -0.00675185      -0.00542547
H        2.88534689       9.66238114       6.69790408       0.00309525       0.00275731      -0.01545072
S       11.20773998       7.34578135      10.42834017       0.01018262      -0.01936758       0.00179672
O       11.51639651       6.11797886      11.21980093       0.02348137      -0.01943290      -0.00451398
C       12.57068499       7.58257392       9.27462988      -0.00279480      -0.00847965      -0.00963214
C       11.58593704       8.76190635      11.49134289       0.01258349      -0.02055138       0.00247496
H       12.53364840       6.72894332       8.60107103      -0.00574610      -0.00613751      -0.01242266
H       13.50910561       7.60222821       9.83099651       0.00241275      -0.00576857      -0.01914303
H       12.39278955       8.49276447       8.70439084      -0.01342877      -0.00728449      -0.00387763
H       11.48971970       9.68525682      10.92050546       0.00455730      -0.01929019       0.00580744
H       12.58707906       8.64993811      11.90839751       0.01627001      -0.01787097      -0.00628346
H       10.83501039       8.74878313      12.27875455       0.01971006      -0.02570315       0.00880034
S        9.86888280      11.11278061       1.84407375       0.00475770       0.00925887      -0.00893450
O        9.12123661      10.89052086       3.13709774      -0.00323224       0.01792634      -0.01226461
C        8.71096829      10.68161003       0.54546133       0.00848153       0.00912908      -0.01231611
C       11.00525096       9.72669355       1.67539202       0.00007999       0.00482130       0.00446083
H        7.88795907      11.39003446       0.62765351       0.01664627       0.01916197      -0.02621485
H        8.36963371       9.65872991       0.70525032      -0.00472766       0.01544812      -0.00258121
H        9.18308177      10.78934581      -0.43075900       0.01539266      -0.00870833      -0.01020981
H       11.61259811       9.85915784       0.77942217       0.00231352      -0.00656201       0.00491944
H       10.45269608       8.78774956       1.64120563      -0.00546151       0.00814043       0.01051017
H       11.64789608       9.75526078       2.55231777      -0.00208590       0.01329967       0.00503767
S        7.99652851       8.16594648      11.44492656      -0.00477850       0.00257611      -0.02084720
O        7.64629784       9.31547739      10.56339342      -0.01166797       0.00068295      -0.02261591
C        7.72764628       6.64299020      10.52848807      -0.00729991       0.00237232      -0.01742455
C        6.62056718       7.95978718      12.59555599       0.00106227       0.00313770      -0.01449695
H        8.44528992       6.64365473       9.71047286      -0.00508082      -0.00441539      -0.01531535
H        6.70574301       6.61564360      10.14925149      -0.00589468       0.00596511      -0.02075082
H        7.90274265       5.79117437      11.18671604      -0.01539867       0.00199673      -0.01541570
H        6.82785551       7.10983204      13.24251306       0.00464070       0.00306933      -0.01551929
H        5.69788790       7.79464362      12.04339405      -0.00166200       0.00315174      -0.00975718
H        6.54876958       8.87510931      13.17982177       0.00403769       0.00332400      -0.01428051
S        6.44635414       2.89113855       7.55676553       0.00334366      -0.00906253      -0.00025356
O        5.91057201       1.68952325       8.26632392       0.00874150      -0.00878382       0.00404143
C        7.26638602       2.27380443       6.06824556       0.00698790      -0.00976190       0.00206226
C        7.94772584       3.39806549       8.40199254      -0.00051284      -0.00205126       0.00062886
H        6.48315037       1.98914401       5.36804167       0.00946188      -0.02098620       0.00420583
H        7.89408342       1.42141921       6.32698275       0.01558618      -0.00186667       0.00566827
H        7.89010205       3.05962201       5.64461669      -0.00080563      -0.00700288      -0.00331373
H        8.53191910       4.06334979       7.76469118      -0.00832411       0.00841916       0.00532901
H        8.50531859       2.48832217       8.63123364       0.00857706       0.00188008      -0.00748752
H        7.62611998       3.88126626       9.32021731      -0.00352904      -0.01266865       0.00508958
S        3.34729207       5.61117623       8.09817897       0.00242680       0.00714034       0.00391662
O        4.17875950       4.96744622       9.15911360      -0.00571275       0.01478171       0.01466024
C        3.09511929       7.31290314       8.62948079      -0.00429078       0.00990850      -0.00954968
C        1.64989721       5.05452497       8.37463856       0.00100124       0.00600153      -0.00890249
H        4.01966494       7.85533863       8.43954678      -0.00434583       0.01089543      -0.00573072
H        2.85175575       7.29249080       9.69298533      -0.01299444       0.01780251      -0.01171328
H        2.29199994       7.76264852       8.04843347       0.00020582       0.00465505      -0.01918840
H        0.98851965       5.56844022       7.67661941       0.00741919      -0.00021455      -0.01911750
H        1.35450367       5.25074270       9.40628417      -0.00895523       0.01199866      -0.01325533
H        1.63142522       3.98315198       8.18445908       0.00613378       0.00492789      -0.00152659
S       10.10416812      10.75257474       8.67336500       0.00278753       0.00381243       0.00674307
O       10.41271613       9.54927266       7.84096080       0.00490025       0.00146663       0.01144636
C        9.01136421      11.81152843       7.71150091      -0.00937852      -0.00708780       0.00925606
C       11.57573436      11.79656819       8.56688555      -0.00433171       0.01178759      -0.00592059
H        8.04945923      11.30118398       7.66425065      -0.00624740      -0.01344517       0.01574488
H        9.42449176      11.95815313       6.71323965      -0.01548420      -0.00559428       0.00707857
H        8.89720131      12.76750009       8.22518692      -0.01288715      -0.00745420       0.00862416
H       11.39435340      12.75778015       9.04783659      -0.00745102       0.01117830      -0.00615264
H       11.83928314      11.91983648       7.51586860      -0.00925108       0.01118450      -0.00739180
H       12.37374534      11.27267651       9.09176652       0.00109138       0.01691858      -0.00932963
S        5.66115431       7.51500548       5.06556853       0.01637697       0.01023585       0.00515020
O        4.40085806       7.94923494       5.75585133       0.01343381       0.01656562      -0.00511956
C        6.24503616       6.04917777       5.93483926      -0.00078790       0.00694609       0.00955832
C        6.98015784       8.62375831       5.59219731       0.01870593       0.00112069       0.01743314
H        5.60033586       5.22130556       5.64665663      -0.01195686       0.01504409       0.01271633
H        6.18427676       6.22133250       7.00988066       0.00277965       0.01135568       0.00880580
H        7.27839342       5.84664524       5.65284064      -0.00426522      -0.00678624       0.00831765
H        7.93626863       8.22162740       5.25890880       0.01835587      -0.00599051       0.02568815
H        6.94961300       8.74617963       6.67405563       0.00998029       0.00033110       0.01732770
H        6.80280803       9.57818066       5.10047051       0.02997034       0.00235453       0.01672226
S        2.11479319       6.53390628       3.32212841      -0.01179647      -0.00009643       0.00249968
O        0.73410266       7.06420404       3.55664996      -0.01393390      -0.01035786       0.00598994
C        2.12888693       5.66970709       1.74252520      -0.00942183       0.00627801      -0.00064474
C        2.28880386       5.07077952       4.35378312       0.00121294      -0.00289780      -0.00395855
H        2.08334081       6.43936480       0.97350116      -0.02155365       0.00977731       0.00406990
H        1.26681109       5.00279334       1.69086089      -0.00262582      -0.00183193       0.00183941
H        3.07081053       5.12076080       1.68526848      -0.00430661       0.01680153      -0.00868584
H        3.18341516       4.52462341       4.05187140       0.00383861       0.00565498      -0.01007182
H        1.39480440       4.45583484       4.23343206       0.00615548      -0.01025560      -0.00288884
H        2.38997292       5.41732275       5.38060953       0.00291779      -0.00834259      -0.00239924
