197
Lattice="13.69142051145541 0.0 0.0 0.0 13.69142051145541 0.0 0.0 0.0 13.69142051145541" Properties=species:S:1:pos:R:3:forces:R:3 energy=-781562.9375 stress="-0.00013156930799596012 -0.0012589006801135838 -0.00010630320684867911 -0.0012589006801135838 0.00019444267672952265 -3.406760788493557e-05 -0.00010630320684867911 -3.406760788493557e-05 0.0003035969566553831" pbc="T T T"
Pm       2.93976842      13.67977061       1.39492387      -0.00111407       0.00284691       0.00038436
Pm       8.65169461      11.61694897       6.16694815      -0.00658420      -0.00334126       0.00443774
S       12.36614190      13.65361986       9.84393986       0.00421591       0.00082601      -0.00567931
O       13.18078495      14.16576198       8.73263047      -0.00176728       0.01108742      -0.00541735
O       12.52490915      12.18256500       9.96554044       0.00221056      -0.00005078      -0.01036423
O       12.75321103      14.28686962      11.12535980       0.00496119      -0.00676620      -0.00170040
O       10.93198917      13.95477237       9.58074854       0.00167108      -0.00040293       0.00433087
S        6.35145915      13.55269166      10.83873588      -0.01614666       0.00303657       0.00163108
O        5.25645071      12.88789716      11.51955896      -0.01744354       0.01139164      -0.00705600
O        6.04475038      14.84947391      10.30174171      -0.00530261       0.00568712      -0.00610775
O        7.63867023      13.41623898      11.48429709      -0.01661861       0.00403982       0.01009429
O        6.54009926      12.50690402       9.45760593      -0.00386924       0.00119835       0.00472465
S        6.63089459      12.92441978       7.93177412      -0.00953913      -0.00434256       0.00347053
O        6.55304521      11.59644078       7.26097437      -0.00526011      -0.00725341       0.00792843
O        8.01807422      13.39952099       7.67011775      -0.01041782      -0.00061786      -0.00098706
O        9.01359923      12.62564768       4.72549821      -0.00575139      -0.00315344       0.00259399
O        5.59809762      13.83634536       7.57194187      -0.01223886      -0.00959027       0.00229663
O        7.38526059       6.89263078       9.55178267       0.00035614       0.00269708      -0.00338360
O        7.18384010       8.28980658       7.82898424       0.00225911       0.01026067       0.00255007
O        7.90051778       9.07010164       9.81593849       0.00098988       0.00209916       0.00726849
C        7.11243167       6.04387829       8.42578233       0.00059166       0.00768375      -0.00709143
C        6.70236388       7.02259918       7.33477074       0.00256759       0.01255070      -0.00357103
C        7.52226545       8.17272607       9.12917277       0.00046730       0.00344718       0.00140882
H        6.33560988       5.33022596       8.68636082      -0.00054267       0.00749284      -0.01058748
H        8.02156290       5.49448897       8.17851979       0.00026241       0.00755438      -0.00832677
H        7.18400464       6.80676874       6.38915015       0.00420940       0.01656516      -0.00378686
H        5.62404148       7.08380249       7.20185074       0.00278032       0.01344337      -0.00477131
O        3.33736829       4.45303953       9.30731050      -0.02194425       0.00947963      -0.01204826
O        3.77030829       6.58355110       8.85337929       0.00944096       0.00425074      -0.00261492
O        2.74894457       5.30747549       7.31088715      -0.00679436       0.02588500      -0.00744754
C        4.05131052       4.92494703      10.46655000      -0.00882706      -0.00809374      -0.01338163
C        4.18515281       6.43301387      10.23010366       0.00237237      -0.00769103      -0.00152072
C        3.24067279       5.42658264       8.39747139      -0.00755009       0.01425746      -0.00981528
H        5.00621302       4.40089171      10.52364464      -0.01332185      -0.01726364      -0.02638858
H        3.44385278       4.68526213      11.33447505      -0.00395462      -0.01097738      -0.01116332
H        3.51873013       7.03285762      10.84956354       0.00286072      -0.00825077      -0.00074202
H        5.20559605       6.79485582      10.32240663       0.00401884      -0.01431491       0.00496734
O       10.83734489      11.63742944       7.66700130      -0.00638506       0.00362170       0.00170460
O       11.96215748       9.85567020       8.36891679      -0.00249361       0.00576973       0.00111309
O       12.84082534      11.13651643       6.75786194      -0.00648534       0.00767279       0.00200725
C       10.03116168      11.11421720       8.75942142      -0.00347981       0.00331119       0.00367795
C       10.85741512       9.94632199       9.29026629       0.00042142       0.00590205       0.00419420
C       11.98016540      10.91425588       7.55875015      -0.00328118       0.00653441       0.00030226
H        9.06215594      10.76212186       8.36025188      -0.00322014       0.00029789       0.00607561
H        9.88059174      11.93690370       9.45130191      -0.00371783       0.00407445       0.00282100
H       11.26655084      10.13804573      10.27508156       0.00315142       0.00924940       0.00237441
H       10.31064790       9.00693208       9.26984626       0.00216937       0.00492457       0.00825530
O        7.40261046       9.69022423       4.71775350      -0.00067418       0.00064987      -0.00158790
O        5.98412789       8.05133278       4.22626367       0.00178277       0.00311610      -0.01617301
O        5.23319023       9.85339100       5.34194959      -0.00183153      -0.00405383      -0.01026514
C        8.06913222       8.87217240       3.70961447       0.00417411       0.00552049      -0.00155947
C        7.27120917       7.58852284       3.75386877       0.00388076       0.00492346      -0.01082324
C        6.11978609       9.25426681       4.81953495      -0.00393552       0.00120747      -0.00827834
H        9.10352582       8.75913730       3.98755713       0.00266519       0.00452270       0.00298570
H        7.99111571       9.40070202       2.76221543       0.00810800       0.00921427       0.00064066
H        7.13641133       7.12132716       2.78205661       0.00964005       0.00855133      -0.01289579
H        7.66781790       6.84917582       4.44612447       0.00013158       0.00261962      -0.01063207
O        0.96440514       2.55409662       4.17386941       0.00683290      -0.00916612       0.01401386
O        2.84565844       3.32908960       3.31766936      -0.00216168       0.00463319       0.00858241
O        1.75698274       1.69004121       2.26680291       0.00257522       0.00257573       0.00698739
C        1.27885160       3.75233947       4.97229260      -0.00137797      -0.00754517       0.01640230
C        2.73751514       3.98611190       4.63646068      -0.00385207       0.00163987       0.01030391
C        1.83798033       2.48819913       3.21364432       0.00229591      -0.00035587       0.00874446
H        1.09590549       3.51090819       6.01241487       0.00507729      -0.01440503       0.01777044
H        0.62852019       4.54321731       4.59835708      -0.00829598      -0.01346612       0.01349936
H        2.99265449       5.03073889       4.50168333      -0.00477217       0.00233567       0.01275552
H        3.44188777       3.49294850       5.30259133      -0.00538808      -0.00069094       0.00886908
O       11.85035722       8.19590080       5.89802515      -0.00242901      -0.00023073       0.00648928
O        9.76846420       7.71763802       6.48240417      -0.00082570      -0.00229689       0.00980470
O       10.25128026       9.75302331       5.70375732      -0.00446283      -0.00136031       0.00826801
C       11.86269057       6.77311395       6.17681550      -0.00040427      -0.00013256       0.00704145
C       10.54245894       6.56689058       6.90277472       0.00112908      -0.00133067       0.00898334
C       10.61007820       8.63300341       6.00616953      -0.00216753      -0.00248295       0.00859803
H       12.73904093       6.56218871       6.78366598       0.00090459       0.00101165       0.00568533
H       11.91541892       6.25761543       5.22108221      -0.00155742      -0.00078061       0.00725409
H        9.99932357       5.68238159       6.59115130       0.00172471      -0.00198436       0.00945529
H       10.62756181       6.61088339       7.98879957       0.00237525      -0.00080302       0.00884584
O        8.51748405       4.42071527       5.47003797       0.00635898      -0.00164357       0.00110075
O        7.70711093       2.41648897       5.98597817      -0.00436236       0.00417021       0.00636461
O        6.37983935       4.23196985       6.14298154       0.00206554       0.00997591      -0.01227593
C        9.52475472       3.47987690       5.02594285       0.00656465      -0.00755870       0.01501483
C        9.12610771       2.20920569       5.76127920      -0.00317495      -0.00152868       0.01980907
C        7.43545001       3.71997323       5.89782237       0.00046760       0.00507784      -0.00246345
H       10.50694138       3.85966662       5.29732206       0.00538817      -0.00887899       0.02039321
H        9.46915200       3.41933467       3.93878181       0.01526201      -0.01404706       0.01498377
H        9.24337154       1.28893437       5.19008992      -0.00074837      -0.00586721       0.02753042
H        9.60664678       2.09342181       6.73278837      -0.01098531       0.00429050       0.02430844
O        0.67932703       7.57907403       8.48979309      -0.00219500       0.00717449       0.00813165
O        2.11162947       8.87144124       9.58769457       0.00137412       0.00291973       0.00834484
O        1.10132537       7.17653026      10.65615952       0.00842026      -0.00411254       0.00461507
C        1.24250846       8.42314453       7.46406841      -0.00367624       0.01048854       0.00953037
C        2.12906350       9.39834318       8.24235957      -0.01463434       0.01637924       0.01338058
C        1.28304884       7.82910770       9.66229326       0.00317858       0.00223479       0.00593191
H        0.42929252       8.91972784       6.94060774      -0.00488800       0.00432876       0.00583966
H        1.80517820       7.76865293       6.79693616       0.00371340       0.01400322       0.01242717
H        3.16305790       9.40861816       7.90173560      -0.01701075       0.03522225       0.00800921
H        1.72156479      10.40585751       8.26716004      -0.03008860       0.00960827       0.02591710
O        5.37915990       0.39023965       2.05813285       0.00734156      -0.00510335      -0.00549442
O        5.69483284       1.58834326       3.89498054       0.01533335      -0.01362759      -0.00095356
O        3.80497687       0.38043529       3.61099771       0.00811011       0.00059003      -0.00549242
C        6.77350988       0.87012308       1.94595408       0.00945854      -0.01231928      -0.00502485
C        6.77955575       1.97739998       2.97770185       0.01826650      -0.01797229       0.00147021
C        4.91207438       0.77422464       3.26890572       0.00850160      -0.00699480      -0.00499906
H        6.92915919       1.21914884       0.93342361       0.01019031      -0.00814661      -0.00336701
H        7.41465392       0.03254480       2.21433344       0.00540318      -0.01647794      -0.00907192
H        7.68502718       2.01533074       3.56603417       0.01852503      -0.02993517       0.00150460
H        6.52573513       2.95025604       2.56296585       0.02665216      -0.01315835       0.00762272
O       11.53174190      12.18550951      13.53313716      -0.00917138       0.00135112       0.00176866
O       10.97585621      10.25629940      12.58306081      -0.00965050       0.00081900       0.00311181
O       12.93876348      10.42762046      13.66298674      -0.01337898       0.00106508       0.00538939
C       10.32250105      12.47569834      12.77870481      -0.00644180       0.00192565      -0.00214040
C        9.79299138      11.09123773      12.45629612      -0.00833702       0.00192517       0.00062042
C       11.91539308      10.92544184      13.28047964      -0.00687736      -0.00090906       0.00532690
H       10.60045364      13.05285295      11.89862274      -0.00283167      -0.00118646      -0.00308651
H        9.64798284      13.04244678      13.41549281      -0.00676560       0.00528434      -0.00564924
H        9.05616053      10.74286391      13.17560460      -0.00884590       0.00464155       0.00128448
H        9.39330894      10.99477191      11.45300137      -0.00816593      -0.00021821       0.00098693
O       10.90335418       7.82356826       3.18992066       0.00506420       0.01194668      -0.00123736
O       10.88582940       6.62275990       1.32535638       0.01979642      -0.01267096       0.01563983
O        9.73731268       5.91110184       3.13045697       0.02797264      -0.00181240       0.02350509
C       11.59297994       8.64348080       2.22460596       0.00225633       0.00433677      -0.00901291
C       11.86341067       7.66484252       1.09369855       0.00407171      -0.00389123      -0.00195503
C       10.45356911       6.70213766       2.58249501       0.01829186      -0.00155431       0.01446691
H       12.48843522       9.03976870       2.68997614       0.00198075       0.01075506      -0.01414159
H       10.92753112       9.45784931       1.93012618       0.00034922       0.00080204      -0.01487966
H       11.69714400       8.09590014       0.11144076      -0.00964862      -0.01549187      -0.00439388
H       12.85116519       7.21041752       1.16572775       0.01010013       0.00916246      -0.00696106
O        2.36401756       3.61303798      -0.34902567       0.00419033       0.00518314      -0.01341164
O        4.30992622       3.32451406       0.65843173      -0.00797474      -0.00977716       0.00508857
O        3.24321168       1.56067630      -0.20119509      -0.01302734      -0.00085151      -0.00573421
C        2.63993939       4.90540330       0.27579569       0.00755250       0.00187331      -0.00768182
C        4.10573517       4.76859575       0.68474498       0.00396511      -0.00803351       0.00010993
C        3.29823450       2.77507661       0.01477466      -0.00582819      -0.00346769      -0.00510614
H        1.94811646       4.99824264       1.11233358       0.00350469       0.00202294      -0.01113459
H        2.44580292       5.67378960      -0.46723742       0.01580433       0.00499967      -0.00646746
H        4.81965651       5.20216634      -0.01601664       0.01070818      -0.01644422       0.00197679
H        4.30540772       5.10653006       1.69696599       0.00216888      -0.00689557      -0.00007534
O       13.05108794       2.71807187       0.45879262       0.01403995      -0.00841545      -0.01349372
O       11.83330031       2.70743217       2.31545721       0.03041692      -0.01102671      -0.00294963
O       13.47287430       4.23462695       2.05922274       0.04070419      -0.02391595      -0.00715870
C       12.28851655       1.48801952       0.39893527       0.00116280      -0.00027993      -0.01527730
C       11.20771757       1.73147269       1.43499812       0.01171911       0.00527750      -0.00643775
C       12.83332242       3.30605556       1.63988724       0.02984047      -0.01423383      -0.00758412
H       12.95578444       0.66762137       0.68189076      -0.00639623      -0.00964296      -0.02625512
H       11.95431946       1.33599825      -0.62270342      -0.00742522       0.00876877      -0.01345044
H       10.30675956       2.17524424       1.01382437       0.01555371       0.02075058       0.00296468
H       10.96040890       0.85040002       2.02628537       0.00334627       0.00408643      -0.01220697
O       10.45095350       6.78756684      10.87614220       0.01012680      -0.00418398      -0.00442585
O       11.20787111       5.34214579      12.39008111       0.01153374       0.00176127       0.00044291
O        9.00243061       5.77955750      12.27908770       0.01061463      -0.00483838      -0.00430161
C       11.87186522       6.75183920      10.65637120       0.01155881       0.00687596       0.00328004
C       12.39941016       5.87582258      11.78913367       0.01159891      -0.00041422      -0.00173342
C       10.11776385       5.95488609      11.89371667       0.01139772      -0.00267557      -0.00321773
H       12.25362610       7.76759019      10.68814994       0.00368389       0.00959957       0.01424771
H       12.06856424       6.32020772       9.67523683       0.02001262       0.01814610       0.00039524
H       13.02025528       5.05515255      11.44467718       0.00678577      -0.00246131      -0.00638011
H       12.94478756       6.44795688      12.53556445       0.01615527      -0.00569147      -0.00103489
O       14.08444948      13.23067792       3.88864786       0.00098133       0.00104082       0.00385621
O       12.92078959      11.77101989       2.71597361      -0.00355801       0.00562882       0.00223237
O       14.98448663      12.31815278       2.06402411      -0.00352004       0.00346810       0.00096628
C       12.76110556      13.24520380       4.54415500      -0.00141871       0.00843334      -0.00124538
C       12.03651191      12.09768590       3.84779786       0.00253856       0.00106324       0.00832224
C       14.02423631      12.43183695       2.85805244      -0.00011985       0.00346783       0.00124057
H       12.33634164      14.22797744       4.34820533      -0.00034507       0.00605205      -0.01457963
H       12.92094149      13.07341488       5.60486648      -0.00585654       0.02084742       0.00112945
H       11.96489253      11.20683062       4.46650729       0.01559665       0.00242215       0.01147255
H       11.06575179      12.35672691       3.43690914      -0.00290024      -0.00805534       0.01578760
O        0.74398931       8.87937265       4.20369679      -0.00424090      -0.00779897       0.00330596
O        2.20951286       7.27436627       3.72592651      -0.00657517      -0.00697827      -0.00545634
O        0.01464611       6.79983781       3.73905142      -0.00623059      -0.00555941      -0.00161007
C        2.02154448       9.54588553       4.15652325      -0.00357851      -0.00809085       0.00257045
C        3.00961655       8.39131883       4.17278842      -0.00403136      -0.00887165      -0.00431873
C        0.90657725       7.58139854       3.87802740      -0.00607443      -0.00706589      -0.00131935
H        2.10573691      10.20856415       5.01496866      -0.00116457      -0.01209830       0.00526464
H        2.05763641      10.12221174       3.23082259      -0.00577084      -0.00430091       0.00501916
H        3.84103083       8.50388809       3.48940716      -0.00607255      -0.00716210      -0.00630981
H        3.39919487       8.17105639       5.16359322      -0.00142382      -0.01238569      -0.00606960
O        9.45033232       2.64607793      12.52761342      -0.01614872      -0.00442135       0.00190735
O        7.45209575       3.33072770      11.85978466      -0.00823662       0.00761783      -0.00889066
O        7.86206042       3.07143844      14.04914210      -0.01976028       0.01145574      -0.00595665
C        9.51850095       2.57407043      11.08099170      -0.00984132      -0.00727895       0.00224777
C        8.23448525       3.27267399      10.64436769      -0.00276649       0.00097269      -0.00489071
C        8.22880955       3.03334047      12.89826720      -0.01510665       0.00514676      -0.00475937
H        9.56817903       1.52911186      10.78835047      -0.01644344      -0.00799739       0.00436980
H       10.43063939       3.07601898      10.76276454      -0.00475267      -0.01479253       0.00549132
H        8.39669890       4.30126565      10.32444791       0.00567639      -0.00040174      -0.00501769
H        7.66361630       2.70097480       9.91796101      -0.00259367       0.00386113      -0.00729331
O        5.79490837      11.11033308       2.32670588      -0.00706042      -0.01952862      -0.01236504
O        6.11115131      11.40731255       0.13976361      -0.00102319       0.01748353      -0.00162822
O        7.88638932      11.29894144       1.51278915      -0.00279793      -0.00397956      -0.00393575
C        4.48303196      11.09121008       1.77192028      -0.00612879      -0.00379708      -0.01448449
C        4.69468654      11.45479594       0.28487830      -0.00327393       0.00338355      -0.00920251
C        6.71076760      11.27463223       1.32909340      -0.02336210      -0.00148219      -0.01410789
H        3.87750575      11.78165589       2.38683399      -0.00319865      -0.00109953      -0.00804664
H        4.04989966      10.09883835       1.89362098      -0.01877472      -0.00212961      -0.01802423
H        4.24321857      10.74227434      -0.40575696       0.00237215       0.00141396      -0.01682039
H        4.39730366      12.47584239      -0.04547575      -0.01617654       0.00158478      -0.00999470
