196
Lattice="13.71639908829363 0.0 0.0 0.0 13.71639908829363 0.0 0.0 0.0 13.71639908829363" Properties=species:S:1:pos:R:3:forces:R:3 energy=-622455.125 stress="-0.0016635408392176032 -0.0002053551361314021 -0.00036508330958895385 -0.0002053551361314021 -0.0016626773867756128 0.0001224907027790323 -0.00036508330958895385 0.0001224907027790323 -0.0015103708719834685" pbc="T T T"
Pr      10.09053148      14.19784992      -0.19539028       0.02806272       0.05123165      -0.02280572
Pr       5.11212604      13.51485762       3.05954011       0.04462529      -0.00931336      -0.00028615
O        9.37083868      12.55323072      12.31338358      -0.02075666       0.06855990      -0.03483158
O        7.33153415      11.65687237      12.73247487      -0.00613141       0.06970376       0.03115799
O        7.87220496      13.72941510      13.45498777       0.05225003       0.03244746       0.07579929
C        8.12058116      12.57866269      12.80316256       0.01008630       0.05594823       0.02409768
O       12.97932050      12.59513572       2.14528675       0.00717145       0.02951467      -0.01039088
O       14.14717015      13.56490163       0.45468029       0.01386476      -0.01299942      -0.02760434
O       11.86627031      13.80124784       0.51981227       0.01975346       0.01638594      -0.02383631
C       13.19381903      13.23622136       1.13500482       0.01051313       0.01101783      -0.02132876
O        5.17559280      13.10335351       4.80636902      -0.01794507       0.00039669      -0.00037365
O        8.09833308      13.41517408       6.00434380       0.00393447      -0.04233694       0.07117567
O        7.41532636      11.19472970       5.97272185       0.04598534       0.03055298       0.01941683
C        7.73899227      12.31051867       6.02340603       0.01398619      -0.04138363       0.04747705
O        9.20434386      10.58016217       1.88133266       0.01007356       0.01419875      -0.00847299
C        9.36324426      12.83239050       2.57952851      -0.00654167       0.01679784       0.00271752
C        7.87595386      12.44245624       2.51459225       0.00266615      -0.01201728       0.04944503
C       10.06018465      11.71394428       1.80644811      -0.00991985       0.03075612      -0.02018767
C        7.95763737      10.90768368       2.47222997       0.01298127      -0.00888461       0.00052204
H        9.57734647      13.84879741       2.20879649      -0.05777657       0.01690492      -0.01882403
H        9.70040322      12.83806656       3.61882981       0.02866627       0.03413332      -0.01107261
H        7.37963193      12.80539925       3.42804939       0.02936025      -0.05012489       0.07483806
H        7.40865109      12.84329943       1.60235090      -0.03303740       0.01335547       0.07986116
H       10.20432772      11.93908753       0.73626914      -0.03958111       0.03958265      -0.02187485
H       11.04536877      11.48653194       2.20809178       0.00038338       0.04098826      -0.04303670
H        7.90145439      10.50522849       3.49188045       0.02119860      -0.04044643      -0.01367700
H        7.18365122      10.44580911       1.86059947       0.01043394       0.00752798      -0.00848785
O        1.37706628       3.21276301      13.68690490      -0.03369080       0.00496541      -0.01500076
C        1.59200307       4.25268629      11.57086600      -0.01579471      -0.00283667      -0.01558435
C        2.32375155       2.91416349      11.54541161      -0.01961315      -0.00465463      -0.00911534
C        1.48145565       4.49981211      13.06765438      -0.01896875       0.00209209      -0.01681727
C        1.67483630       2.19321920      12.71339654      -0.02468246       0.00093842      -0.00897360
H        2.11747977       5.04163478      11.03823907      -0.01223297      -0.00611481      -0.01680887
H        0.60011040       4.14218278      11.12408024      -0.01500031      -0.00210889      -0.01747312
H        2.22082177       2.37866661      10.60263883      -0.01963155      -0.00888298      -0.00660032
H        3.38875244       3.07473285      11.73205519      -0.01960936      -0.00750398      -0.00746749
H        2.37891581       5.01170384      13.44666865      -0.01561481      -0.00562562      -0.01492144
H        0.60841436       5.09599316      13.34955441      -0.01435962       0.01062946      -0.02151261
H        0.74744647       1.68851172      12.42686726      -0.02314019       0.00029016      -0.01234420
H        2.30361393       1.43661793      13.18704728      -0.02691814       0.00310820      -0.00348529
O        5.61630008       2.20173693       3.15073751      -0.01395983       0.00506552      -0.02089073
C        4.23131355       3.06863794       1.42258091      -0.01090881       0.01020336      -0.01913968
C        3.35565412       2.43477773       2.50417294      -0.01011634       0.00994826      -0.01931073
C        5.59897056       2.47975931       1.71564896      -0.01080281       0.00815307      -0.02076024
C        4.28078266       2.48320040       3.70566808      -0.01153216       0.01828626      -0.02121040
H        3.88955648       2.84816482       0.41519916      -0.01159339       0.01189121      -0.01868305
H        4.24004053       4.15138710       1.55273581      -0.01172809       0.01061299      -0.01773197
H        2.42300872       2.96846538       2.66211832      -0.01252592       0.00593835      -0.02171186
H        3.09083073       1.39546664       2.23728252       0.00033075       0.00712183      -0.01439666
H        5.76034664       1.51517182       1.19250269      -0.00764882       0.01262353      -0.02352367
H        6.44602720       3.12771700       1.48965300      -0.01211299       0.01211455      -0.01318922
H        4.30720895       3.46129185       4.18521911      -0.00246557       0.02494287      -0.03699525
H        4.09786752       1.73038861       4.48476746      -0.01749510       0.02883753      -0.01370639
O        7.36174147       3.29301856       5.62003493      -0.02392116      -0.01124725      -0.01539752
C        7.05480745       5.16223262       4.22543579       0.00663325      -0.00214463      -0.00273865
C        8.42070322       4.55560792       3.90772278       0.00772142      -0.00596789       0.01087484
C        6.80426714       4.61330609       5.62199522      -0.00899100      -0.00614548      -0.00834250
C        8.31951336       3.17852270       4.56204684      -0.00437845      -0.00808346       0.00395957
H        7.03949256       6.25215269       4.18133479       0.01056503      -0.00236517       0.00109026
H        6.30656689       4.77922357       3.52743425       0.01326641       0.00153188      -0.01158327
H        8.63485934       4.50746869       2.83918165       0.02045230      -0.00250980       0.01388283
H        9.21224077       5.14502583       4.37348183       0.00342032      -0.01080744       0.02350380
H        7.30940253       5.22308900       6.37836742      -0.00626063      -0.01717618      -0.00150988
H        5.74644211       4.53096075       5.88752023      -0.01129341       0.00366402      -0.01542243
H        7.95621558       2.42737780       3.85196785       0.00884196      -0.00654450      -0.00428370
H        9.27233308       2.82714540       4.96696611      -0.01202485      -0.00904702       0.02031526
O       13.74522163       1.87885826       8.36776286       0.00618365       0.00515884      -0.03479098
C       11.54931345       1.14282328       8.89327670       0.01538062      -0.01539379      -0.01874763
C       11.80601064       0.96523215       7.39731927       0.00994557      -0.00948603      -0.02041969
C       12.68501818       2.08376660       9.30238757       0.01660395      -0.01531702      -0.01849107
C       13.32520332       0.94174954       7.36899694       0.00957686      -0.00791872      -0.02246843
H       10.55734650       1.53823370       9.12015725       0.01612793      -0.01903592      -0.00957582
H       11.65504557       0.17453836       9.38653260       0.01958508      -0.01673469      -0.02227288
H       11.35493191       0.06092593       6.99269327       0.01010010      -0.00828812      -0.02305263
H       11.42309927       1.81758695       6.83367898       0.00980254      -0.00714728      -0.01701900
H       12.37493979       3.13578543       9.24590920       0.01302311      -0.01576340       0.00133616
H       13.05850089       1.89333485      10.31233845       0.02814068      -0.03115870      -0.02508438
H       13.70255755      -0.05854585       7.61981019       0.00919160      -0.00477225      -0.00981262
H       13.75926859       1.25177677       6.41840167       0.01053639      -0.01936568      -0.02523136
O        9.03766187       4.30752815      11.72764717       0.01918028      -0.02944801       0.01937450
C       10.62685570       3.54260352      13.26995672       0.01613665       0.00352752       0.03624111
C       11.18572134       3.36010848      11.86232480       0.01850724      -0.02693331       0.04145460
C        9.13458548       3.63905164      12.97076078       0.01631296      -0.01081279       0.02784945
C       10.31027989       4.32101226      11.06962595       0.02519751      -0.03133181       0.03031404
H       10.91154614       2.74053292      13.96625504       0.01629053       0.02729936       0.06073631
H       10.98931614       4.47306391      13.71137243       0.00730905       0.01924431       0.01149651
H       12.25034759       3.56120261      11.77841129       0.01967043      -0.03720829       0.03707261
H       11.01768505       2.32208385      11.51761924       0.00861309      -0.03181201       0.05519577
H        8.67751353       2.62346219      12.87794702       0.02475590      -0.01492986       0.03396523
H        8.56446446       4.19166847      13.71998380       0.00656991      -0.01270702       0.02152887
H       10.71530757       5.33887347      11.10478211       0.02736692      -0.03269979       0.03442145
H       10.15776477       4.04634773      10.02370386       0.03648283      -0.03424610       0.03041238
O        9.48945596       5.30533087       7.31623953       0.00730827       0.00580237       0.01672801
C       11.26256729       6.70254419       6.58113379       0.01723170      -0.00794029       0.00907806
C       11.82842049       5.45315778       7.25281677       0.00578946      -0.00829821       0.01772130
C        9.80078987       6.67690749       7.02147702       0.01174453      -0.00041310      -0.00605872
C       10.65134092       4.50740187       7.09853908       0.00148779      -0.00106579       0.01275527
H       11.77049654       7.62271352       6.86652636       0.01783551      -0.00927788       0.01207148
H       11.33447493       6.60002261       5.49673790       0.02851118      -0.01124768       0.01016319
H       12.73929137       5.08244334       6.78451922       0.00724505      -0.01530774       0.02674018
H       12.03469480       5.64469132       8.30934124      -0.00219462      -0.00557452       0.01856029
H        9.64082344       7.26008158       7.92810666      -0.00023940       0.01631644      -0.01970541
H        9.11229318       7.04921445       6.25555174       0.02198648      -0.01450275      -0.02117941
H       10.63915189       4.08475575       6.08395391      -0.00066756       0.00537518       0.01019984
H       10.62816202       3.68357305       7.81118554      -0.00370259      -0.00500837       0.00768986
O        2.34192641       5.50961432       3.03584136       0.00152205      -0.01941705      -0.00591028
C        2.55539902       7.66995118       2.13995152      -0.01160194      -0.01654252       0.00425383
C        3.37113594       7.60785790       3.42990955      -0.01687570      -0.01274890       0.00774220
C        1.57602124       6.53706844       2.38988886      -0.00641087      -0.02129081       0.00278518
C        3.50126539       6.10408514       3.62925583      -0.00928316      -0.01199669       0.00777244
H        2.05336792       8.62248053       1.97453488      -0.01403362      -0.01843737       0.00125842
H        3.18561246       7.45412713       1.27111165      -0.00731085      -0.01625942       0.00721218
H        4.34888663       8.08311881       3.37934781      -0.01935512      -0.00771488       0.01276710
H        2.81278379       8.06515625       4.25055719      -0.02320771      -0.01614320       0.00517988
H        0.77583026       6.87400000       3.05790499      -0.00382453      -0.02740379       0.00876752
H        1.13070677       6.11705163       1.49129075      -0.01002896      -0.01955226       0.00393194
H        4.39257286       5.73470545       3.10795569      -0.00204641      -0.00693040       0.01741636
H        3.56859411       5.80919458       4.68011918      -0.01892903      -0.01168439       0.00823954
O        7.45273041      12.06270341       8.86665753      -0.02120155       0.01748182      -0.03006762
C        5.51406169      12.54388617      10.16316964      -0.00585169       0.01466403      -0.00289923
C        5.33136320      11.20581810       9.44873983      -0.00166637       0.00999779       0.00541236
C        6.68045347      13.15726935       9.39141970      -0.00744247       0.01575268      -0.00554577
C        6.77754542      10.82904388       9.15985399      -0.00002509       0.01767029       0.00902286
H        4.62614598      13.17482289      10.13397618      -0.00766616       0.01153353      -0.00588612
H        5.79453578      12.36994086      11.20134952      -0.00395061       0.02087209      -0.00250411
H        4.82132871      10.46005500      10.05832395       0.00107457       0.01157966       0.00949779
H        4.76426806      11.33518747       8.52489701       0.00022158       0.00161377       0.00328279
H        6.32857082      13.76354163       8.54841751      -0.00943622       0.02645200       0.00513506
H        7.32706964      13.78007093      10.01685925       0.00171202       0.00248680      -0.00242805
H        7.23449044      10.35569085      10.03736013       0.00948393       0.04981226       0.02001858
H        6.89934461      10.17543665       8.29307044       0.00593448      -0.00409216       0.02785859
O        3.02165341      12.42701129       2.17162041       0.03296489       0.01131590      -0.00007433
C        4.48854142      10.65527730       2.05461912      -0.02421117      -0.02664188      -0.01914517
C        3.93086194      10.80960292       0.64001843      -0.00141087       0.01381737      -0.02192771
C        3.35623633      11.21728171       2.89452799      -0.01573968      -0.01053526      -0.02120648
C        3.09659129      12.09414542       0.73581186       0.01595461       0.02328387      -0.00263184
H        4.80926553       9.65224756       2.31617371      -0.05945020      -0.04048619      -0.03530366
H        5.39473388      11.28089571       2.15881941      -0.01375737      -0.04943919       0.01081344
H        4.71658072      10.87623972      -0.11085228       0.00779411       0.01833515      -0.01138061
H        3.29876292       9.95237798       0.40821815      -0.01218513       0.02963257      -0.04728809
H        2.49297281      10.54942355       2.93231490      -0.03810239       0.02130505      -0.05020396
H        3.62053829      11.50390638       3.91675398      -0.01636026      -0.04298012      -0.01415825
H        3.57294980      12.95002278       0.25125443       0.01744312       0.02205573      -0.00245656
H        2.07543627      12.01747668       0.37031581       0.01159495       0.03739585       0.00957759
O        4.39628351       4.85441420       9.96183586      -0.00131425       0.01156664      -0.02143568
C        6.15569099       3.57860830      10.92135479      -0.00916323       0.01084542      -0.00939149
C        6.29493431       5.04482167      11.32888935      -0.01099443       0.00970212      -0.00636803
C        5.20757989       3.68533379       9.73263677       0.00031939       0.01191975      -0.01654720
C        4.88020264       5.54045975      11.12190258      -0.00975776       0.01041558      -0.01741977
H        7.10385853       3.11697484      10.65380362      -0.00720483       0.01021973      -0.00048999
H        5.70653098       2.99108853      11.72968200      -0.01707834       0.01248083      -0.01293619
H        6.65554236       5.20060623      12.34380903      -0.01958520       0.00574749      -0.00279444
H        6.98505544       5.55597876      10.65781801      -0.00442331       0.01032920       0.00090864
H        5.76657826       3.82649635       8.80175952       0.00683933       0.01316957      -0.01226306
H        4.55428359       2.81816481       9.61468141       0.00142545       0.01197270      -0.02209915
H        4.25545961       5.28812295      11.99222191      -0.01744670       0.00852960      -0.02390033
H        4.80801208       6.61562772      10.94748364      -0.00929416       0.01047200      -0.01677492
O        3.14299153       9.48056935       7.13391445       0.00788388      -0.00985667      -0.00422771
C        5.07711542       8.31869372       6.42456736       0.01380956      -0.01075137       0.01277813
C        4.77533204       7.92326448       7.87012217       0.00296086      -0.00719097       0.01102555
C        4.28099772       9.60848333       6.27729530       0.01363751      -0.01208386       0.00287639
C        3.31949236       8.35237198       8.00520032       0.00209832      -0.00805041      -0.00090574
H        6.13710650       8.46115507       6.21405549       0.01525739      -0.00948633       0.02245885
H        4.69258910       7.55498474       5.74525605       0.02132842      -0.01357174       0.01165743
H        4.91165052       6.86177584       8.07609978       0.00193853      -0.00640261       0.01493309
H        5.40738482       8.48791025       8.55725903      -0.00253695      -0.00455716       0.01392557
H        4.87300546      10.48043108       6.57229044       0.01042479      -0.01056254       0.00424743
H        3.92636430       9.77985341       5.25865171       0.02130710      -0.01567963      -0.00028929
H        2.64185490       7.54839976       7.69167293       0.00488088      -0.00889605      -0.00453466
H        3.04623149       8.65241091       9.01924609      -0.00504185      -0.00722121      -0.00311965
O        8.76608228       8.12150043      11.60704032      -0.00170070      -0.01037407       0.00458440
C       10.64652159       9.48344705      11.16102933      -0.01131126       0.00699973       0.01212166
C       10.64910128       8.29956398      10.19535836       0.00042665       0.00911236       0.01045379
C        9.73036989       8.97141631      12.26249423      -0.01168865      -0.00145897       0.00752574
C        9.19037812       7.86023551      10.27302132       0.00430083      -0.00219886       0.00465879
H       11.63871931       9.74675371      11.52755498      -0.01486474       0.01206278       0.01789539
H       10.21147054      10.36461393      10.68436221      -0.01486970       0.00553781       0.01232363
H       10.96215264       8.56060551       9.18464916       0.00065616       0.01435686       0.01220429
H       11.31017401       7.50851158      10.56289431       0.00563817       0.01382627       0.01081412
H       10.28293991       8.36671194      12.99140058      -0.00986198       0.00437209       0.01061076
H        9.19509409       9.75913514      12.79047953      -0.01799360      -0.00488400       0.00610521
H        8.58164319       8.44881137       9.57132665       0.00125557      -0.00404221       0.00655195
H        9.02988147       6.80105050      10.05316385       0.01459802      -0.00218707      -0.00051208
O       10.24355635       7.58746707       2.19024977       0.01923487      -0.03234354       0.00789636
C       10.93218329       8.96651538       4.00817390      -0.00819713      -0.00213212      -0.00397360
C       12.15053806       8.45014650       3.24350251       0.00047684       0.01104902       0.00144649
C        9.82388281       8.05726486       3.47903401       0.00373313      -0.01789382      -0.00279135
C       11.52638166       8.14246041       1.89243978       0.00678164      -0.00825834       0.00361708
H       11.04023452       8.90747834       5.08918392      -0.01046225       0.00251542      -0.00333375
H       10.73786377      10.00461836       3.74509026      -0.02051830      -0.00596389      -0.00965346
H       12.96695849       9.16995144       3.18633294      -0.01150031       0.02370785      -0.00327961
H       12.51992316       7.52783462       3.70174209       0.01492536       0.02107376       0.00862145
H        9.68671286       7.18364481       4.12281224       0.00280232      -0.01058701       0.00589567
H        8.86477175       8.56811786       3.38539120       0.00126633      -0.02612600      -0.01838543
H       11.41787210       9.06205696       1.30387635      -0.01397154      -0.01370633       0.00021368
H       12.07657865       7.40674066       1.30006024       0.02078991       0.00045151       0.00653929
