200
Lattice="12.44726944096773 0.0 0.0 0.0 12.44726944096773 0.0 0.0 0.0 12.44726944096773" Properties=species:S:1:pos:R:3:forces:R:3 energy=-696576.0 stress="0.00031655910424888134 -0.0011717082816176116 -0.00038596052036155015 -0.0011717082816176116 0.0014678698498755693 0.001770924951415509 -0.00038596052036155015 0.001770924951415509 0.0028777262195944786" pbc="T T T"
Pr      11.09246014      12.89224485       6.33646124       0.00096019       0.00036266      -0.00666402
Pr       9.31840210      11.42710260       2.17810401      -0.00256364      -0.00232488       0.00419033
S        3.89293646      13.17779479       7.87582661       0.00866748       0.00315169      -0.01687679
O        4.75241834      13.52050169       6.72013500      -0.01650184      -0.00816105      -0.02699524
O        3.84449046      11.68104150       8.03391319       0.00920665       0.00641328       0.00367954
O        4.45419779      13.76140986       9.11643838       0.01877916       0.01880085      -0.02741379
O        2.51988349      13.67028351       7.64291008      -0.00250030      -0.00038528       0.00022943
S        1.63791972      10.58313293       1.15343262      -0.00348520       0.00170858       0.00017338
O        0.75830539       9.96918674       2.18819710      -0.00229740       0.00360110       0.00444329
O        0.83313380      11.41833283       0.20877032      -0.00686422       0.00097615       0.00165039
O        2.60327958      11.48601531       1.82032799      -0.00452989       0.00554144       0.00046390
O        2.34186991       9.53433954       0.38468501      -0.00366136       0.00496113       0.00240719
S        9.45974982      11.06442209       8.06558414      -0.00938288       0.03090624       0.01211027
O        8.16746549      11.31731728       8.70639883       0.02997935       0.00042717      -0.00316063
O       10.51894460      12.00790797       8.53027021      -0.00359049      -0.00235674      -0.00967908
O        9.88931162       9.66860364       8.26774514       0.00830674       0.00324404       0.00106676
O        9.37996584      11.34162059       6.58357757      -0.00214568      -0.00014201       0.00673348
O        9.30190958       0.62992195       4.52124347      -0.00483680      -0.00323829      -0.00553905
H        9.10163923       1.54462662       4.20800194      -0.00974749      -0.00152451      -0.00049722
H        8.44830010       0.36207791       4.95603057      -0.00286898      -0.00663348      -0.00343111
O        8.37997102      10.22692326       3.97062607      -0.00343753      -0.01016803       0.00166896
H        7.42580600       9.96603524       4.11052959       0.00110835      -0.01103232       0.00072385
H        8.85104781       9.63260595       4.60492112       0.00020797      -0.01532029       0.00120232
O        3.33869921       2.39500670       4.79320531      -0.02109229       0.01377086      -0.00812784
H        3.95066667       1.91373284       5.38605903      -0.02066945       0.00572609      -0.01047277
H        2.83773247       2.98067159       5.39964638      -0.01498080       0.01447586      -0.00493360
O        8.55481866       3.88227357      10.38729456      -0.00674847      -0.03292785      -0.00655676
H        8.05634341       4.56731793       9.90452984       0.00028928      -0.01594561       0.01493493
H        8.12221957       3.05292544      10.13170895      -0.01105951      -0.02370781      -0.03443012
O        8.20174133       9.65307857      13.45631292       0.00146017      -0.00395536      -0.00152935
H        8.55627477       8.81117543      13.14867910       0.00511982       0.00208309      -0.00124082
H        7.19967629       9.62052860      13.33600553       0.00093292      -0.00346898      -0.00791359
O        2.14703549      10.72274900      10.05189562      -0.00591254       0.00664848      -0.00322199
H        2.67854660      11.26965817       9.44132917      -0.00386845       0.00867474      -0.00111119
H        1.87623702      11.25177133      10.81728925      -0.01011163       0.00406787      -0.00578752
O       11.34458828       2.59180337       5.10848444       0.00662109       0.00161618      -0.00359959
H       10.95494805       3.42543876       5.47000700       0.00280377       0.00115389      -0.00431140
H       12.29219336       2.75087687       5.00804539       0.00807875       0.00004578       0.01384112
O        8.43770997       3.15164735       3.91960648       0.00452629       0.00065988       0.01524964
H        7.76210905       3.50717576       3.30781622       0.00254220       0.00671026       0.02000424
H        8.21130372       3.58287023       4.76159877       0.00921942      -0.00693171       0.02026033
O        6.58648235       4.77025908       2.63235424       0.00597224      -0.00994214       0.00635999
H        5.65098732       4.47626310       2.70307654       0.00427923      -0.00733718       0.00273614
H        6.69619044       5.00789361       1.70050380       0.01020898      -0.00837739       0.00765285
O       10.14807579       1.20274362       1.57258047      -0.00105688      -0.00310385       0.00584128
H       11.13310279       1.33396727       1.54648464      -0.00067253      -0.00013755       0.00748906
H        9.76095667       2.06545720       1.37103067      -0.00433385      -0.00890946      -0.00341882
O       10.74254204       8.30474849      12.10184757      -0.01560895       0.00080395      -0.01020700
H       11.66021106       8.07522125      11.84812927      -0.01284311       0.00104175      -0.00292687
H       10.21335629       7.96051596      11.35282318      -0.00637969       0.00110158      -0.01570756
O        0.71865494       3.82396267       2.24896370      -0.00224383      -0.00011533       0.00477403
H       -0.23222367       4.02823676       2.09436048      -0.00293845      -0.00342977       0.00188242
H        1.21960086       4.16757273       1.48571675      -0.00083173      -0.00175898       0.00530133
O        2.23012152       4.12280352       6.58868417      -0.00849506       0.00611266       0.00852501
H        1.55885185       4.81413291       6.59997792       0.01530945       0.02962694      -0.00570547
H        3.04546592       4.59766046       6.83526463       0.00275607      -0.01591008       0.00957586
O        5.77534781      11.86714448      10.69561166      -0.00947854       0.01131535      -0.00828558
H        5.33813380      12.49706440      10.08757878      -0.00540438       0.01215919      -0.01082986
H        5.45702092      10.97554203      10.44753296      -0.00792246       0.01177385      -0.01148704
O        0.29075209       1.24293299       1.82928601       0.00142509      -0.00305171       0.01162401
H        0.65778503       2.14769044       1.97461635       0.00019340      -0.00222351       0.01174043
H        0.83068346       0.72919602       1.20579407      -0.00122580       0.00083534       0.00674334
O        5.99143098       9.33706251       4.57736371      -0.00204214      -0.01089743       0.00358546
H        5.35021410      10.00292642       4.20286660      -0.00216649      -0.01131297       0.00041907
H        5.99720262       9.50096450       5.53861470       0.00124756      -0.00483826       0.00102979
O       10.83330533       3.71147910       8.94923380      -0.00515213      -0.01233560      -0.00216003
H       11.12261230       4.61906896       8.72737748      -0.00313542      -0.01409453      -0.00013920
H       10.09307820       3.80344076       9.60180668      -0.00389526      -0.01666993      -0.00020547
O        2.71884385       4.53295662      12.81206958      -0.00159667      -0.00248398       0.00733063
H        2.57174759       5.50848845      12.86601757       0.00317936      -0.00107637      -0.00090836
H        2.73073058       4.27841460      11.87052874       0.00014504      -0.00943683       0.00932235
O        1.14344068       6.86050451       6.73510000       0.00763756      -0.00245547       0.00685163
H        1.43994961       7.61714501       6.20487621       0.00179737       0.00075491       0.00806155
H        1.73733090       6.77850194       7.52041222       0.00605515       0.00297305       0.00907578
O        4.80722803      12.26674370      13.09363823      -0.00602281      -0.00389421      -0.00645132
H        4.96831845      12.14702900      12.12586761      -0.01177495       0.00223424      -0.00753219
H        3.87253711      12.07540526      13.32716966      -0.00527535      -0.00513632      -0.00158753
O        4.07222354       3.85712920       2.84352663       0.00285408       0.00550696      -0.00086832
H        3.75778800       3.22605840       3.57402838      -0.00593203       0.00880235      -0.00105569
H        3.44170176       3.87112794       2.10892294       0.00345990       0.01224413      -0.00114706
O        4.83241833       7.42363495       1.97425602       0.00431725       0.00405487       0.00490421
H        3.91620754       7.20552416       1.69881339       0.00591192       0.00009396       0.00231323
H        4.80843760       7.21201969       2.92596137       0.00203221       0.00920638       0.00596653
O        3.95283023       6.34160417       4.32321485      -0.00490594       0.00382715       0.00484069
H        3.84640650       5.49058958       3.86169262       0.00179479       0.00459559       0.00195727
H        4.24567539       6.11514479       5.23249375      -0.00331644       0.00266639       0.00403650
O        6.02989308      10.16741304       7.31177586       0.01704640       0.00705543       0.00417605
H        6.78635244      10.48196148       7.84881078       0.00422642       0.00424779       0.00430296
H        5.26871374      10.71907783       7.60117005       0.00757720       0.00912079       0.00168999
O       -0.83953676      11.84216607       3.37954988      -0.00097680      -0.00165381       0.01339778
H       -0.22888216      11.10570105       3.12221920      -0.00184935      -0.00206318       0.01271238
H       -0.39071032      12.62208862       2.96771404      -0.00161591      -0.00231886       0.01011407
O       10.70270939      10.95488718       0.26092789      -0.00726710       0.00168794       0.00048535
H       11.67436418      11.18126364       0.21927956      -0.00596969      -0.00172818       0.00318318
H       10.66565496      10.00234896      -0.02219333      -0.01214272       0.00457296      -0.00735003
O        9.51332800       7.47703096       9.76168709       0.00948182       0.00638948      -0.01223847
H        8.75125366       6.92156740       9.48498062       0.00271092       0.00370102      -0.00718084
H        9.39302623       8.33510990       9.31265377       0.01151712       0.00010146      -0.01286068
O        0.24591982       5.56005514       4.34867126      -0.00191677       0.00866430      -0.00646356
H        0.70905879       4.92484474       3.77067357      -0.00467747       0.00338018      -0.00434880
H        0.87500350       5.93851263       4.98203042       0.00258511       0.01309488      -0.01493494
O        0.86930246       7.83348754      10.96164138      -0.00789998       0.00462884      -0.00317358
H        1.42262746       8.46397490      11.45481918      -0.00998793       0.00618085      -0.00070069
H        0.60056306       8.32220668      10.15781968      -0.00478588       0.00355636      -0.00418145
O        4.63244900       5.60779441       6.88700308       0.01089925      -0.00317762       0.00012326
H        5.44335730       5.08935431       6.94187796       0.01923987       0.00887553      -0.01011391
H        4.75377015       6.35359052       7.51894939       0.00788246      -0.00248061      -0.00114802
O        9.53908799       2.10842782       7.21087307      -0.00856055       0.00127926      -0.01005921
H        9.97435486       2.80145186       7.77153608      -0.00610610      -0.00462404      -0.00607681
H        8.70729947       1.88931827       7.70221543      -0.00875330       0.00226485      -0.01088609
O        7.11087884       6.78147955      12.81851721       0.00270525      -0.00619021       0.00761300
H        6.83606593       6.04441309      12.25294958      -0.00253943      -0.00589865       0.00929496
H        6.30394668       7.02083648      13.31358531       0.00502849      -0.00251385       0.00989052
O        0.94460350       0.87523001       5.49324987       0.00153309       0.00436705       0.00210053
H        1.61685017       1.05279101       6.20245572       0.00486439      -0.00184847      -0.00203368
H        1.42816971       0.33332215       4.85751580       0.00335628       0.02616107      -0.01852989
O       10.48393209       5.06523033       5.83233954      -0.00013167      -0.00161146       0.00007709
H       11.16946599       5.35055423       5.19251199      -0.00385351       0.00256852      -0.00169631
H       10.74261012       5.49769793       6.68477305       0.00433082      -0.00664044       0.00075166
O        3.57815785       3.91710698      10.15349845      -0.00357410      -0.00152183       0.00484468
H        3.65483531       3.05018079       9.71721300       0.00021274       0.00224294      -0.00185225
H        4.45927757       4.06175753      10.53571525      -0.00224958       0.00119782       0.00151116
O       -0.10118203       1.74549328       7.94131240      -0.00023019       0.00039768      -0.01019692
H        0.86390301       1.71247329       8.09101893      -0.00465462       0.00825859      -0.01199602
H       -0.50048574       2.44441521       8.50602085      -0.00846416      -0.00191276      -0.00510409
O        7.32871197       6.88937617       4.09148784       0.00629124      -0.00813061       0.00668536
H        6.78198364       7.68880931       4.21189780       0.00519684      -0.00850929       0.00539922
H        6.83086576       6.24137296       3.54699111       0.00650014      -0.00949972       0.00902811
O       12.17786734       6.86927281       1.97936515       0.00627452       0.01617569      -0.00524746
H       11.29213926       6.89053495       1.59839271       0.00580555      -0.00592370      -0.00627524
H       12.10829154       6.51591274       2.88174335       0.01228558       0.01277452      -0.00621690
O        2.26692226       7.01106803       1.17985801       0.00810102       0.00194419      -0.00957246
H        1.33609642       6.91177025       1.48667160       0.00779312       0.00356518      -0.01176700
H        2.28718068       7.93982467       0.84994386       0.01012026       0.00437600      -0.00603756
O        9.25266037       6.83321528       2.09612192       0.00388956      -0.00973907       0.00354305
H        8.69107172       6.89003721       2.89993491       0.00400661      -0.00760997       0.00453851
H        8.58351560       6.76527711       1.37982105       0.00155994      -0.00444166       0.00624128
O       11.25934569       6.27770728       8.07850731       0.00895672      -0.01312321       0.00450946
H       12.04163906       6.77571008       7.77820301       0.00985933      -0.01475577       0.00184720
H       10.71591933       6.82670724       8.69151979       0.01167220      -0.01129785       0.00368409
O        5.60220655       4.35184940      -0.24833022       0.00092456       0.00054592      -0.00079209
H        4.71842844       4.48122060       0.13546396       0.00346559      -0.00188165       0.00486349
H        5.89105315       3.49490840       0.11749123       0.00419366      -0.00048363      -0.00549455
O       10.56409594       9.33877586       2.62790933       0.00118563      -0.00041717       0.00242898
H       11.47921544       9.23914186       2.30014810       0.00196305       0.00210358       0.00424135
H       10.10292832       8.50290741       2.41854690       0.00532308      -0.00360733       0.00354460
O        7.77489101       5.06599415       6.08197044      -0.00085521       0.01041626       0.02173933
H        8.75140775       5.06217083       5.99065415      -0.00159306      -0.00105596       0.02008133
H        7.50502136       5.77541300       5.45805102       0.00729524       0.00833714       0.01513815
O        7.22550534      12.42637511       2.65843864      -0.00706699      -0.00928245      -0.00373131
H        6.81739767      12.35308322       3.54802624      -0.00630184      -0.00781218      -0.00167888
H        6.80119126      13.20401623       2.21176903      -0.00686604      -0.00875710      -0.00318554
O        4.49190468      11.34923246       3.75588628      -0.00402826      -0.01238221      -0.00211247
H        3.92275858      11.50090410       4.52697829      -0.00308999      -0.01316663      -0.00105240
H        3.84626073      11.29346631       3.02320361      -0.00358868      -0.00823248      -0.00187089
O        2.46853849       6.37862241       9.03942774       0.00407949       0.00517423       0.00742030
H        2.80229837       5.50315945       9.29863850       0.00113312       0.00326627       0.00513131
H        1.98464722       6.72901701       9.80724642       0.00073184       0.00282989       0.00665391
O       12.58719622       9.45193241       8.81668638      -0.00067967      -0.00437659      -0.01016572
H       11.67194819       9.70078778       9.02479017      -0.00016612      -0.01075685      -0.01578860
H       13.19652348      10.07704884       9.27677065      -0.00506273       0.00208087      -0.00816076
O       12.42922504      10.92946159       6.55026778       0.00158387      -0.00114730      -0.01041995
H       12.41563488      10.30061618       7.31304451       0.00254529      -0.00076361      -0.01084277
H       13.37366133      10.93567493       6.23779336       0.00160295       0.00162724      -0.00787766
O        8.18610611      12.37064983      12.43791498       0.00111197       0.00499509      -0.00004596
H        8.90736128      12.28489373      11.80123504      -0.00346932      -0.00983071      -0.00238261
H        7.39223814      12.10102100      11.94204199      -0.00391397       0.00732407       0.00646736
O        7.48849463       5.91488411       8.74864720       0.00518671       0.01138373       0.02384101
H        6.73900766       6.55155221       8.72371378       0.00336513       0.00793203       0.02269989
H        7.62576770       5.63705604       7.81873371       0.00578604       0.01314191       0.02298539
O        9.01336169       8.45072506       5.85275437       0.01295504       0.00280330       0.00508866
H        9.47827615       8.72387052       6.66087728       0.00256997       0.00291480       0.00061068
H        9.22578918       7.52666834       5.69843255       0.02944093      -0.01302747       0.00643820
O        2.16753474       8.48842198       4.56126494      -0.00938005      -0.00169419      -0.00068316
H        1.73259945       8.78492602       3.74600834      -0.00557391       0.00178554       0.00013927
H        2.78147458       7.76773027       4.31783896      -0.00467517       0.00095116      -0.00170119
O        4.60067993       9.30694192      10.60221032      -0.00501001       0.00986181      -0.00780290
H        4.86237201       9.26142896      11.54134598      -0.00340762       0.00516114      -0.00785165
H        3.67597950       9.61141017      10.60215665      -0.00464790       0.01008026      -0.00529025
O        6.85098710      12.43017610       5.41512387      -0.00100014      -0.00443198      -0.00954261
H        6.86590901      11.58523325       5.88577238       0.00002088      -0.00106432      -0.00260529
H        6.14838592      12.93093481       5.88095482      -0.00621615      -0.00329876      -0.01384130
O        5.64129652       9.67216802       0.77285488      -0.00091588      -0.00081027      -0.01321638
H        5.30945407      10.57742321       0.96001966       0.00230154       0.00067746      -0.01253229
H        5.21769336       9.02890928       1.38165340       0.00126430       0.00253329      -0.00875697
O        5.93916750       2.01541635       1.43683530      -0.00517645      -0.00488658      -0.00192814
H        5.39090197       1.25875202       1.08724710      -0.00727017      -0.00347254      -0.00160895
H        5.35515289       2.49213556       2.04700120      -0.00324623      -0.00464424      -0.00044233
O        5.42548501       7.68088996       8.49174366       0.00269471       0.00593439       0.00315613
H        5.68526075       8.49491362       8.01458374       0.00577770       0.00359999       0.00249328
H        5.00419091       8.02601688       9.30364235      -0.00089207       0.01036577       0.00054896
O        7.45771587       1.56356579       8.86248286      -0.01078156       0.00815701       0.00307389
H        7.59194400       0.60443227       8.98982879      -0.00077453       0.00920610       0.00996241
H        6.50719275       1.65893198       8.69319955      -0.01209670       0.00191936       0.02143603
O        2.51775446      10.89935600       5.76453778       0.00553462      -0.00705603       0.00558145
H        3.01842080      11.01511228       6.60168624       0.00415475      -0.00863722       0.00539598
H        2.61071653       9.97913383       5.43776504      -0.00034772      -0.00830378       0.00702655
O       10.40138717       4.09196351       2.12576276       0.00023767      -0.00065893       0.00187603
H        9.92866057       3.77148806       2.91696882       0.00627317      -0.00257251       0.00520980
H       10.03152969       4.98064080       1.98544666      -0.00379112      -0.00251831       0.00377287
