193
Lattice="13.396189732330697 0.0 0.0 0.0 13.396189732330697 0.0 0.0 0.0 13.396189732330697" Properties=species:S:1:pos:R:3:forces:R:3 energy=-135457.65625 stress="-0.0024458046536892653 0.0006517625879496336 -0.0008330002019647509 0.0006517625879496336 -0.0024121503811329603 0.0012032700469717383 -0.0008330002019647509 0.0012032700469717383 -0.0028853637631982565" pbc="T T T"
N        7.16098841       8.02708268       9.51454530       0.01290348      -0.00075391      -0.00493548
C        5.94352453       8.49866895       9.84143123       0.01546603       0.00406267      -0.00328663
C        8.30441890       8.67787271       9.80221040       0.01593143      -0.00426348      -0.00948042
C        5.84575175       9.68129267      10.53328848       0.02105697       0.00597581      -0.00636284
C        8.24344391       9.87364115      10.48307779       0.02171147      -0.00305528      -0.01152492
C        7.00371222      10.37691193      10.86971056       0.02427624       0.00240785      -0.01061253
H        7.22287260       7.13773142       9.03632245       0.00915692      -0.00255156      -0.00200605
H        5.09234729       7.90914880       9.54068226       0.01291151       0.00600704       0.00011856
H        9.21400625       8.21243842       9.46011901       0.01323619      -0.00694779      -0.01195886
H        4.87031182      10.05672371      10.79523276       0.02320395       0.01022323      -0.00519610
H        9.15785407      10.41035961      10.69542126       0.02390167      -0.00583803      -0.01460315
H        6.93167802      11.31546656      11.40585022       0.02906214       0.00433974      -0.01398463
N        8.34652482      11.31894096       1.50311164      -0.00984549      -0.00822676       0.00022175
C        9.42544851      11.29852709       0.68561386      -0.00879040      -0.00356302       0.00175455
C        8.26021723      12.12605867       2.58403213      -0.01700574      -0.00489965      -0.00291282
C       10.49689913      12.11099087       0.95384844      -0.01682098       0.00762205      -0.00187504
C        9.30969311      12.96242243       2.87325009      -0.02456528       0.00478291      -0.00628677
C       10.44565924      12.95027397       2.06478831      -0.02475247       0.01220274      -0.00615215
H        7.57719675      10.69244190       1.30714036      -0.00389481      -0.01638460       0.00467612
H        9.37887942      10.61033149      -0.14554493      -0.00087216      -0.00916156       0.00598270
H        7.36475896      12.04901944       3.18262668      -0.01597801      -0.01217741      -0.00261256
H       11.37092937      12.12635129       0.31670432      -0.01544577       0.01131029      -0.00016326
H        9.24323143      13.60848220       3.73649747      -0.02844588       0.00731985      -0.00869767
H       11.28836319      13.58777520       2.27713068      -0.03252975       0.02381444      -0.01121925
O       13.38341430       2.75774336       0.85579045       0.01477265       0.01028848      -0.00184172
O       11.35336297       1.93537286       0.98118486       0.00869060       0.02960718       0.01010776
O       13.02149753       0.63283090       0.38076908      -0.00514811       0.00945091       0.01885802
C       12.59385031       1.77744749       0.73637058       0.00652942       0.01619104       0.00917987
O        1.05980665       8.02427660       1.44789646      -0.01127609       0.00369515       0.00263462
O        0.81136294      10.16240947       1.22174053      -0.00446394       0.00370274       0.00180584
O        2.28061994       9.40486267       2.76950092      -0.02296931       0.00002684       0.01706928
C        1.89402236       6.91508851       1.87694493      -0.01757002       0.00149417       0.00796881
C        1.30864036       5.63917066       1.34488121      -0.01740643       0.00362119       0.00365622
C        1.46292743       9.21718181       1.89994132      -0.01442677       0.00200051       0.00750887
C        1.20634304      11.50745583       1.55790960      -0.00595461       0.00257262       0.00647186
H        2.89564539       7.09834898       1.48048471      -0.01486591      -0.00170936       0.01393233
H        1.96979958       6.92646750       2.96323632      -0.02388436       0.00130876       0.00823778
H        1.91807866       4.79860663       1.67297947      -0.02036011       0.00195692       0.00383018
H        0.29705989       5.46590252       1.70720841      -0.01908627       0.00359502      -0.00162961
H        1.29488252       5.62817518       0.25505690      -0.01238359       0.00635967       0.00379902
H        1.14402826      11.65626943       2.63473556      -0.01856636       0.00276758       0.00535414
H        0.52899353      12.17219624       1.03334906       0.00126448       0.00361210      -0.00088142
H        2.23495906      11.67484738       1.23720223      -0.00213194       0.00076869       0.01876360
O        4.46532817       4.65968948       2.54129006      -0.00728184      -0.01080368      -0.00232260
O        4.58213240       6.68243007       3.32396479      -0.00277553      -0.00927329      -0.00910100
O        5.97766166       6.07611952       1.65858804       0.00068611      -0.01947363      -0.00268495
C        4.94192867       3.67173103       1.58559565      -0.01301360      -0.01541558       0.00003713
C        4.12329106       2.42463086       1.76722780      -0.01824510      -0.01100147       0.00513940
C        5.08737871       5.82809441       2.43636235      -0.00259334      -0.01424336      -0.00449705
C        5.09437872       8.02742127       3.18398677      -0.00319451      -0.01053934      -0.01503174
H        4.84262665       4.09549760       0.58480171      -0.01318500      -0.01785120      -0.00079194
H        6.00411898       3.50471276       1.77596294      -0.01352978      -0.01916531      -0.00149944
H        4.49778777       1.65733561       1.08820885      -0.02538812      -0.01389213       0.00485391
H        4.21228009       2.05007322       2.78698839      -0.01556256      -0.00998725       0.00507353
H        3.07052476       2.59463270       1.54055879      -0.01812577      -0.00615634       0.00934615
H        6.13150593       8.06773563       3.52057050      -0.00274566      -0.00900992      -0.01696455
H        4.46544097       8.64296089       3.80992815      -0.00174604      -0.00681123      -0.01734301
H        5.01682714       8.34997686       2.14832840      -0.00466763      -0.01408429      -0.01600856
O       10.03290779       2.42014331      11.65915987       0.00341401      -0.00597230      -0.00168163
O       11.74537055       3.73090296      11.46165254       0.00192297      -0.00432876       0.00074983
O       10.06251521       4.35236067      12.83495910      -0.00754207       0.00139832      -0.01404464
C        8.78189932       2.11016029      12.29631578       0.00398390      -0.00624704      -0.00167160
C        8.39950988       0.72057184      11.85218127      -0.00294305      -0.00028422      -0.01233359
C       10.57037989       3.56760835      12.07429800      -0.00093946      -0.00272232      -0.00609481
C       12.38671063       4.96419814      11.80328942       0.00392702      -0.00739786       0.00778666
H        8.92464633       2.17463030      13.37525173       0.00788197      -0.01613714      -0.00157404
H        8.03689036       2.84930961      11.98864786       0.00675538      -0.00042853       0.00774233
H        7.45037726       0.43527701      12.31242963       0.00011285      -0.00255255      -0.00831456
H        8.29145211       0.67343998      10.76707049      -0.01142965       0.01092273      -0.01161525
H        9.16823056       0.01091420      12.15858946      -0.00277819      -0.00539632      -0.02574938
H       11.80512898       5.80805358      11.42646437       0.00432020      -0.00410122       0.01595666
H       13.35909336       4.93652272      11.31932595       0.00292307      -0.00552312       0.00617540
H       12.49815167       5.04030963      12.88159346       0.00632514      -0.01675334       0.00795296
O        9.53888781       4.75970049       4.93535288      -0.00130057      -0.00963264       0.00977829
O       11.49100522       4.01627100       5.43764411      -0.00241251      -0.01075579       0.00389758
O       10.46447180       5.40899080       6.90227471       0.00866814       0.00255543       0.00717926
C        8.32538731       5.46829260       5.26030725       0.00085673      -0.00849232       0.01071054
C        7.25374483       4.88241330       4.38312808      -0.00371394      -0.00714588       0.01560411
C       10.49136089       4.79292952       5.86640220       0.00319466      -0.01324940      -0.00610012
C       12.62405934       4.00268423       6.31612093      -0.00007207      -0.01703234      -0.00000793
H        8.11991266       5.33059090       6.32232306       0.00376862      -0.00624451       0.01232332
H        8.48716361       6.53414602       5.07016090       0.00130286      -0.00844115       0.00961592
H        6.29916230       5.36289294       4.58738084      -0.00213075      -0.00605647       0.01744024
H        7.49982601       5.02517962       3.33198147      -0.00629215      -0.00895552       0.01480964
H        7.13121567       3.81691274       4.57501438      -0.00444346      -0.00651705       0.01743487
H       13.07939562       4.99071308       6.33159365      -0.00169504      -0.01641154       0.00931704
H       13.31050236       3.27343317       5.89608968       0.00031212      -0.01164521      -0.00717622
H       12.34471017       3.72301113       7.32830422       0.00229250      -0.02673187      -0.00159857
O        3.42451210       9.99913948       6.81294212       0.00315524       0.00689752      -0.00130779
O        4.77470774       8.33644920       7.03207167       0.00479892       0.00872581      -0.00399554
O        5.30955507       9.98083060       5.56101046      -0.00174642       0.00598812      -0.01461756
C        3.03915629      11.23865183       6.16987336      -0.00249559       0.00289638      -0.00462216
C        1.71064171      11.63081778       6.75584729       0.00186366       0.00687710       0.00161123
C        4.57488685       9.49752031       6.38612300      -0.00439644       0.00407988      -0.00117552
C        5.89157806       7.57170351       6.57352059       0.00161463       0.00899978      -0.00910430
H        3.81511204      11.98319607       6.35661579      -0.00105053       0.00408196      -0.01474628
H        2.98166575      11.06441598       5.09412861      -0.00996586      -0.00346598      -0.00319928
H        1.38243680      12.57473140       6.32208621      -0.00224550       0.00245346      -0.00319304
H        0.96238544      10.86589090       6.54672304       0.00158545       0.00438169       0.01337102
H        1.78122413      11.75307804       7.83704900       0.00970211       0.01565182      -0.00018920
H        5.74535266       7.27474580       5.53923701      -0.00529115       0.00531671      -0.00724751
H        5.91215371       6.67850348       7.19765084       0.00823262       0.01119430      -0.00709184
H        6.81828021       8.13637536       6.66039161       0.00125331       0.01126654      -0.01792829
O       12.81356835       8.74275742       8.15159312       0.00420065      -0.01015721       0.00889539
O       13.11236214       7.71635352       6.27222998      -0.00364906      -0.00521689       0.00966249
O       11.00784087       8.36364172       6.83920379      -0.00651962       0.01270231       0.00564156
C       11.95032731       9.49641455       9.02808082       0.01308352      -0.01022136       0.01457280
C       12.75380830       9.95706285      10.21337666       0.01959336      -0.00249735       0.00587034
C       12.18734181       8.26856518       7.06300875       0.02057850      -0.00191982       0.01136965
C       12.65752996       7.32093749       4.96285689      -0.00066760      -0.00160970       0.00843100
H       11.53308028      10.33548036       8.46352502       0.00288713      -0.01403937       0.01517196
H       11.12507708       8.85204007       9.32798331       0.01730320      -0.01270273       0.02556330
H       12.12595217      10.57233932      10.85981481       0.02465138      -0.00119272       0.00812837
H       13.11378721       9.11077297      10.79702221       0.02602372       0.00070067       0.00609932
H       13.60341205      10.56165373       9.89859411       0.01630580      -0.00300045      -0.00431800
H       11.66352045       6.88629543       5.01981317      -0.00821573       0.01295354       0.00538684
H       13.38046910       6.59571167       4.60263206      -0.01188545      -0.01323718       0.01225441
H       12.65216827       8.18630169       4.30031266       0.01393620      -0.00321272       0.00669920
O       11.32595953      10.28725979       3.73886917       0.01266615       0.00018980       0.00184482
O       10.40400287       8.92824509       2.34958144       0.01521298      -0.00496645       0.00684556
O        9.33620078       9.33559006       4.30866279      -0.00496578       0.02219948      -0.00531930
C       11.54278766      10.79948676       5.07778344       0.00724448       0.01017496      -0.00180516
C       12.00929957      12.23045255       5.03024250      -0.00455312       0.01348034      -0.00791847
C       10.26359852       9.49628254       3.55472124       0.01810777       0.00930852      -0.00867015
C        9.35933019       8.03084233       1.94120644       0.01523729      -0.00471227       0.00825091
H       10.63325859      10.66267999       5.65724154       0.00632748       0.00683654      -0.00202902
H       12.32435895      10.17249394       5.50793862       0.01003641       0.01805763       0.00433946
H       12.33671610      12.51608196       6.03069174      -0.00859297       0.02155228      -0.00962535
H       12.85607820      12.34515674       4.35361810      -0.00464772       0.01663638      -0.00724162
H       11.22126609      12.91419144       4.72857861      -0.00920551       0.00523889      -0.01325777
H        9.67885619       7.00188426       2.10087231       0.00784473      -0.00414634       0.02410211
H        9.21495281       8.19671765       0.87665419       0.02380321      -0.01716371       0.00585037
H        8.43998239       8.22265149       2.49104787       0.01101068       0.00580925      -0.00150019
O        5.73228120       6.93508213      12.27709345      -0.00571000       0.01025178       0.00606936
O        3.66399481       7.25871175      11.83209372      -0.00443254       0.00803223      -0.00164872
O        4.71120952       8.74172163      13.19636584      -0.00850939       0.01472867      -0.00637645
C        7.02999187       7.35904301      12.75160361      -0.00883590       0.01221001       0.01177171
C        8.00239343       6.29451275      12.33657679      -0.00883484       0.00541097       0.03230310
C        4.70540457       7.73657228      12.52214973      -0.00668016       0.01088184      -0.00207478
C        2.48257995       8.07585282      11.83062717      -0.00663105       0.00508544      -0.00144044
H        7.24975718       8.32979324      12.30674190      -0.00212239       0.00576642       0.00181442
H        6.98124217       7.46532260      13.82959760      -0.01795124       0.02534668       0.00995606
H        9.02539852       6.57585186      12.57793474      -0.00925885       0.00725479       0.02968497
H        7.80652012       5.36067253      12.85569482      -0.01296552       0.01395687       0.04492463
H        7.95448750       6.09761815      11.26413890      -0.00536084      -0.00981106       0.03539802
H        2.05586698       8.15252584      12.82608071      -0.00647777       0.00318471      -0.00109565
H        1.79474327       7.56874288      11.15972579      -0.00510880       0.00383157      -0.00165367
H        2.71008818       9.07454863      11.45562937      -0.00942846       0.00589275      -0.00051844
O        6.58598366       3.74376390       8.92692990       0.00706863      -0.01084799      -0.00043301
O        8.19957031       3.06360563       7.66413741       0.00331174      -0.01690499      -0.00038518
O        6.09818288       2.32361465       7.22816701      -0.00248653       0.00881559      -0.01334035
C        5.24376313       3.55581538       9.44243872       0.00476326      -0.00220805      -0.00372839
C        5.07337185       4.52853517      10.56837794       0.00799454      -0.00358647      -0.00198779
C        6.88310983       2.97303537       7.86993373       0.00172889      -0.00495386      -0.00522506
C        8.71599277       2.14506596       6.68420597       0.00000669      -0.01388754      -0.00422118
H        4.52444258       3.71124630       8.63959430       0.00796413       0.00369011      -0.00497115
H        5.15592904       2.52046805       9.78048722      -0.00272764      -0.00199723      -0.00574167
H        4.11022730       4.38239221      11.04967494       0.00783524      -0.00231884      -0.00235339
H        5.86540836       4.41274059      11.30669814       0.00761601      -0.00729635      -0.00230770
H        5.09818961       5.55357183      10.20376669       0.01052893      -0.00316812       0.00001170
H        8.47128460       1.12613976       6.97302193      -0.00715241      -0.01380941      -0.01131736
H        9.78934094       2.30961670       6.67711174       0.00067508      -0.02057961       0.00078332
H        8.29869256       2.35806963       5.70227521       0.00506251      -0.00553254      -0.00416017
O        2.15325983       4.66200997       9.35128118      -0.00177793      -0.00412318       0.00704756
O        2.05402861       3.08671967      10.82740957      -0.00781455      -0.00597960       0.00449774
O        0.54117592       3.08259566       9.13856044       0.01361275      -0.01475370      -0.01269668
C        1.65495749       5.27988546       8.14372340       0.00472254      -0.00534457       0.00353068
C        2.66467336       6.29348780       7.68841012       0.00029817       0.00333697       0.01487545
C        1.48348254       3.55793766       9.71887838       0.00138229      -0.00904727      -0.00215787
C        1.32995386       2.00768164      11.46467475      -0.00617893      -0.01380281      -0.00780051
H        1.50284037       4.49899567       7.40167483       0.01762147      -0.00470069       0.00041923
H        0.68711405       5.73648096       8.36371603      -0.00043491      -0.01337178      -0.00401711
H        2.27497162       6.84467286       6.83298089       0.00560924      -0.00142290       0.00977179
H        2.87837259       7.02028420       8.47092537      -0.01556748       0.00612102       0.01618664
H        3.59482751       5.80833212       7.39139749       0.00797495       0.01194832       0.02639592
H        0.41580522       2.39243756      11.90161709      -0.01649022      -0.02402404      -0.02172387
H        1.98031506       1.64497638      12.25284448      -0.01442026      -0.00811896       0.00104724
H        1.09971237       1.22890147      10.74131824       0.01256805      -0.01457047      -0.01214975
O        5.35944008      11.71275826       8.63044525       0.01349794       0.01115263      -0.00585170
O        7.00431516      10.60042520       7.78503511       0.00979787       0.01294981      -0.01119947
O        6.95780920      12.84384992       7.48425433       0.00320509       0.01805794      -0.02438945
C        4.74242898      12.95646917       9.04580667       0.01029125       0.01165998      -0.01345047
C        3.79058929      12.62551646      10.16859480       0.00741330       0.01924458      -0.01488522
C        6.48305882      11.82608257       7.91357849      -0.00081274      -0.00370038      -0.00643399
C        8.17317220      10.54505690       6.95229591       0.00717881       0.01359266      -0.01235177
H        5.52778015      13.64602261       9.35519861       0.00995106       0.01415089      -0.01463160
H        4.23516486      13.40261056       8.18914345       0.01386812       0.00853938      -0.01764286
H        3.22776850      13.51382934      10.45347195       0.01099988       0.02153201      -0.01816376
H        3.07950659      11.85526950       9.86534046       0.00559281       0.02125257      -0.01518440
H        4.32269098      12.27363231      11.05401927       0.00471561       0.01870886      -0.01387121
H        7.89784477      10.72803963       5.91723476       0.00624122       0.01708405      -0.01238316
H        8.57623894       9.54089541       7.04762744       0.00943372       0.01485062      -0.01618491
H        8.90584899      11.27902222       7.28819805       0.00793986       0.01458274      -0.01262303
