199
Lattice="13.770155280565328 0.0 0.0 0.0 13.770155280565328 0.0 0.0 0.0 13.770155280565328" Properties=species:S:1:pos:R:3:forces:R:3 energy=-341159.6875 stress="0.0001862712815636769 4.479052222450264e-05 0.0005139207351021469 4.479052222450264e-05 -0.00018005540187004954 -0.0003633665619418025 0.0005139207351021469 -0.0003633665619418025 -0.0008605995099060237" pbc="T T T"
Rb       8.08153082      15.32081489      14.41288921       0.01628764       0.05310392      -0.00902029
Rb       4.79896119      12.77127730       7.44258168      -0.00244497       0.01813240       0.02301212
S       11.57610888       2.60943260       1.38796129       0.03033322       0.03669411      -0.00506327
S       13.02415056       1.54402310       2.14065573       0.03232348       0.03374076      -0.02575183
O       10.28557955       2.30616564       2.06282083       0.04435635       0.04223418       0.02134162
O       11.32565844       2.18652498      -0.14479209      -0.00645658       0.03243446      -0.00077939
O       11.86664149       4.01493761       1.27304565       0.02477431       0.03752232      -0.01384310
O        8.53451387       7.45092155       3.01023409       0.00295466      -0.00369149      -0.00173616
O       10.24333432       8.48504835       2.00233768       0.00627255      -0.00514258       0.00228447
C        8.02733344       9.38595691       1.76200182       0.00600910      -0.00813079      -0.00934097
C        9.05963793       8.43304535       2.26745176       0.00659239      -0.00467540      -0.00250731
H        7.76563294       9.06300058       0.75150464      -0.00047925      -0.02258966      -0.00287867
H        7.13417386       9.37804319       2.38165305       0.00888756       0.00219630      -0.00507207
H        8.44363305      10.38404232       1.67260233       0.00692636      -0.00985156      -0.02449488
H        9.23530470       6.80520876       3.25759196       0.00233459      -0.00037351       0.00882442
O        8.72782416       3.40662412       3.85637715      -0.00280285       0.00309727      -0.01475608
O        9.83266480       5.33613321       4.10807345       0.00115138      -0.00186259      -0.00535658
C        8.00114976       4.84855674       5.58087072      -0.01010257       0.00259717      -0.01720947
C        8.94603891       4.57581305       4.44429478      -0.00479877       0.00138217      -0.01115495
H        6.97330718       4.93542110       5.22443665      -0.00844961       0.00370725      -0.02155884
H        8.02057824       4.02360183       6.29469801      -0.01504963       0.00190486      -0.01759623
H        8.28318518       5.77240554       6.07766545      -0.01078185       0.00163701      -0.01517788
H        9.42841497       3.22294903       3.16302300       0.00888574       0.00412558      -0.00414005
O        6.78425472       9.70762010       8.27642768      -0.01647094       0.00061744       0.00206202
O        4.62008688      10.04072708       7.82537365      -0.01371944       0.01489311       0.00190255
C        5.32347969       7.93663881       8.77089754      -0.03045656       0.01519370       0.01412100
C        5.50554107       9.32144283       8.25343884      -0.02040863       0.01091224       0.00480838
H        5.50558305       7.25365136       7.93420404      -0.02953589       0.00793557       0.02044104
H        6.05736489       7.71910154       9.54570148      -0.03489946       0.01646454       0.01871306
H        4.30322627       7.79466785       9.11468385      -0.03293821       0.02285758       0.01026703
H        6.90010655      10.50859825       7.71157047      -0.01125948      -0.00226232      -0.00021368
O        2.57612614       4.07933723       4.86947798       0.02675855       0.00580478      -0.03558457
O        4.25465965       5.43687284       5.50850675       0.02518395      -0.00652456      -0.00646441
C        4.12943451       3.22368925       6.41256343      -0.01409981       0.00070465       0.00238544
C        3.67368750       4.37583730       5.57574536       0.01363048       0.00104851      -0.01385564
H        3.29826974       2.72939148       6.91155669      -0.02769397       0.01023807      -0.01174460
H        4.59340358       2.48882192       5.75669634      -0.00654370      -0.00707498       0.01648843
H        4.87380844       3.56305496       7.12732180      -0.02567238      -0.00203796       0.01552847
H        2.32052070       4.83621472       4.31059221       0.04606294       0.00160116      -0.05115947
O       12.58164129      10.92971258       7.82845173      -0.00185353      -0.01016840       0.00252755
O       10.76729909      10.09491251       8.84029092      -0.01477331       0.00499326      -0.00938290
C       10.92109311      12.46338310       8.49298343       0.01551703       0.00545502       0.00977798
C       11.41691866      11.04802315       8.42072113      -0.00090468       0.00027055      -0.00115266
H       11.65902811      13.16901603       8.12454976       0.01903850      -0.00181726       0.00316937
H       10.01794067      12.52770142       7.88217536       0.00777927       0.01948776       0.02361363
H       10.61697966      12.72304393       9.50462092       0.03294905       0.00542633       0.01495051
H       12.78719947       9.96189539       7.57176683      -0.00997711      -0.01289144       0.00058901
O        8.09168683      11.19399879       4.26725759       0.00429617      -0.00863314      -0.00026006
O        7.20966994      11.53855803       6.29616805      -0.00183262      -0.00297441      -0.00329904
C        7.57203010       9.28741633       5.50276536      -0.00612041      -0.00517106       0.00290485
C        7.60037556      10.77240030       5.41577767      -0.00154665      -0.00506951      -0.00014973
H        8.08272887       8.83370266       4.66409872      -0.01008226      -0.00931280       0.00263441
H        8.00587610       8.95785558       6.44378843      -0.00403950      -0.00370722       0.00266767
H        6.52833539       8.96527404       5.47490230      -0.00708345      -0.00197327       0.00811894
H        8.11692407      12.16325812       4.17045746       0.00685173      -0.00907904      -0.00044534
O        4.69526520       2.75851188       1.63023825      -0.00843340       0.01020370       0.02387965
O        4.40071041       1.51707506       3.45597217       0.01038681      -0.02511167       0.00291862
C        2.97641556       1.14069817       1.56020737      -0.00159296       0.00590985       0.00488734
C        4.06819143       1.79665600       2.30712135       0.00189650      -0.00653470       0.00898510
H        3.15101886       1.18475349       0.48716724       0.00300995       0.00587982       0.00553799
H        2.85731244       0.11429419       1.89624688      -0.01394972       0.00660184       0.00212969
H        2.04338092       1.67345351       1.78459400       0.00253806       0.01482496       0.00080802
H        5.27711376       3.23332868       2.24549701      -0.00256854      -0.00162289       0.02597356
O       12.37690157       7.39946810       5.06152942       0.00256792      -0.00153214      -0.00727746
O       13.05692776       8.64140233       6.78425860      -0.01644909      -0.01216186       0.00643891
C       11.38015039       9.51075040       5.28737369       0.00426906       0.00085866      -0.00698142
C       12.35911120       8.49384593       5.78541429      -0.00419700      -0.00429511      -0.00065124
H       11.11677060       9.32154405       4.25008085       0.00146152      -0.00226974      -0.00558028
H       10.48467477       9.43580715       5.90967950       0.00457384       0.01602094      -0.00492674
H       11.79254020      10.50813639       5.40211741       0.01589925      -0.00308369      -0.01423702
H       12.99606760       6.70999192       5.44161223       0.00082941      -0.00121932      -0.00476351
O        9.82827059       6.81903073      10.63339227       0.00942749       0.02218688       0.00682604
O       11.86016860       6.79586104       9.72629457       0.00702193       0.00662720      -0.00195622
C       11.49032916       5.60510113      11.78792151       0.00083169      -0.00412399      -0.00874323
C       11.10257041       6.44295174      10.61653651       0.00430766       0.00851771       0.00022298
H       11.82648115       6.27074004      12.58624442       0.01100907      -0.01398975      -0.00517133
H       10.66196999       5.01289449      12.16382008      -0.00371534       0.00097860      -0.01045469
H       12.32105330       4.95677845      11.52564034      -0.00727071      -0.01152567      -0.01595190
H        9.68684641       7.49329170       9.95014676       0.01250230       0.02792692       0.01161477
O        6.96042232       0.78156295       4.27019176       0.00793135       0.00026985       0.00330737
O        6.36750425       1.03128495       6.41228749      -0.00016037       0.00417256       0.00028329
C        8.69719217       0.93152100       5.86822106       0.00147408       0.00025172       0.00832166
C        7.24047975       0.93352361       5.56925974       0.00277036       0.00161317       0.00344568
H        8.94773135      -0.04327509       6.29057664       0.00075492      -0.00377780      -0.00048721
H        9.29005204       1.11212035       4.97972224       0.00425923       0.00762016       0.01156244
H        8.91321365       1.67065324       6.63714497      -0.00079398      -0.00691769       0.01570630
H        5.99958804       0.91485688       4.13162503       0.00815868      -0.00089009      -0.00276908
O        0.35937974       5.61971402       9.17723451       0.00162637      -0.00654438      -0.00291999
O        1.63175738       7.48053138       9.15612312      -0.00042104      -0.04270792      -0.00155234
C        2.62847783       5.35304779       8.63053673       0.00223786      -0.00464952      -0.00081713
C        1.52483445       6.29494681       9.00235889       0.00221555       0.04121423       0.00742088
H        3.07221713       4.98354861       9.55847223       0.00958243       0.00344718      -0.00083277
H        2.23413327       4.50336323       8.07682737       0.00145256      -0.00695080       0.00636149
H        3.38562798       5.86697017       8.04782036      -0.00318968      -0.00334026      -0.00776857
H       -0.38615874       6.22425833       9.45855921       0.00104282       0.00058573      -0.00117259
O        9.85578543      13.91744209      12.82669606       0.04115203       0.01158237      -0.01328367
O        8.65043347      12.42075364      13.94513307       0.02585328       0.04358670       0.01360375
C       10.54572926      11.64583750      12.68296022      -0.00636959      -0.00343949       0.00034627
C        9.62050733      12.72758997      13.18012773       0.02294338       0.02028346      -0.00054613
H       10.69724078      11.75295953      11.61087226      -0.00522865      -0.01061830       0.00029364
H       11.50703488      11.80092730      13.17340382      -0.00109337      -0.02850761      -0.00301194
H       10.18297791      10.64936839      12.92121760      -0.03231101       0.00644128       0.00405995
H       10.95533786      15.04588856      13.49346234       0.02597326       0.01949869       0.00658119
O        3.05509296       7.46198444       3.59291030      -0.00228003      -0.00585741       0.00554025
O        4.92801688       8.68562619       3.64777638      -0.00926778       0.00460446      -0.00254148
C        4.95993811       6.53612665       2.55676032      -0.00131589       0.00611973      -0.00405520
C        4.35125177       7.67556356       3.30838171      -0.00425610       0.00277936      -0.00021726
H        5.16959934       5.76178814       3.29837560       0.00309816       0.00560591      -0.00588219
H        4.25334900       6.12172311       1.83872863      -0.00064747       0.00448142      -0.00368822
H        5.89406735       6.84709437       2.09819920      -0.00357951       0.01096059      -0.00492173
H        2.76135699       8.19064573       4.15883947      -0.00530816      -0.00703287       0.00593245
O        9.97168199       1.81599485       9.50975527      -0.00009763       0.01190287      -0.00305994
O        9.11731487       3.51626563      10.70121079       0.00100791      -0.02123731       0.04576033
C        7.84612859       1.48558973      10.46765997      -0.00118309      -0.01340699      -0.01681742
C        9.01264944       2.40009309      10.26119481       0.00046783      -0.01089644       0.01229551
H        7.47397358       1.12001094       9.50926240       0.01568389      -0.00901602      -0.02507222
H        8.18638150       0.62429957      11.04566983      -0.01054181      -0.01546609      -0.01399386
H        7.06308893       2.01189244      11.00795670      -0.01048289      -0.01873446      -0.02546702
H       10.72836316       2.42073291       9.50191481       0.00177026       0.00898319       0.01549504
O        3.48817060      11.82333065       0.25469531      -0.01734102       0.00114971      -0.00357288
O        2.70594559       9.85599135      -0.49158463       0.00239575      -0.00084436      -0.01606989
C        4.99410720       9.99283498       0.23450183      -0.00563771       0.01106831       0.00286041
C        3.62439285      10.50721793      -0.06695504      -0.00742275       0.00337952      -0.00644302
H        5.76073776      10.75518250       0.12012002      -0.00995871       0.01623945       0.01142401
H        5.00586414       9.67562153       1.28117436      -0.01130882       0.00663920       0.00147098
H        5.21180876       9.12911043      -0.38896679       0.00394677       0.01486662       0.00114302
H        2.53684797      12.01502718       0.21576771      -0.01798993      -0.00427069      -0.01159216
O        0.47459071       3.46703268      10.80780916       0.00709931      -0.00266567      -0.00555277
O        1.86653443       4.87337939      11.85159713      -0.00438529       0.00475252      -0.00087368
C        0.79064353       3.16230415      13.13440408       0.00415699      -0.00262740      -0.00514197
C        1.12057455       3.91017124      11.89599232       0.00361440       0.00102597      -0.00208770
H       -0.11979226       3.60528864      13.55031915       0.00431010      -0.00288297      -0.00492388
H        0.56380121       2.11549126      12.95152658       0.00467709      -0.00206766      -0.00857694
H        1.57322022       3.29161813      13.87444749       0.00346805      -0.00529274      -0.00387324
H        0.54350535       4.16470834      10.10943078       0.00371012      -0.00216597      -0.00290912
O        8.63184168      11.12596842      10.00279829      -0.00852108       0.01496260      -0.01971963
O        7.86640630       9.26381620      11.00789107       0.02125338       0.01623690       0.00419906
C        6.59427885      11.30257259      11.13755203       0.00523448       0.00550628       0.00701791
C        7.74822232      10.43249491      10.71846948       0.00689381       0.01370358      -0.00261966
H        6.81921246      11.70946683      12.12647773       0.00916759       0.00891313       0.00518882
H        6.47625129      12.14369325      10.45550418      -0.00739514       0.00390749       0.00683265
H        5.67823809      10.71923263      11.19746752       0.01014400      -0.00124897       0.01470417
H        9.39218468      10.56103825       9.68420486      -0.00687341       0.01751804      -0.02247974
O        4.05627663       1.51461697       9.67724056       0.02598119      -0.05682516      -0.02367371
O        4.37201066       1.29563044      11.88904722       0.01211882       0.06094699       0.02675215
C        2.35909599       0.41257111      10.89925766      -0.00204253      -0.01213145      -0.00883479
C        3.68502320       1.09312682      10.92010465      -0.00051838       0.00433448      -0.00094712
H        2.22779328      -0.18766583      10.00067753       0.00298437      -0.02533834       0.00174905
H        2.24083928      -0.20046296      11.78735910       0.00391703       0.00165169       0.00164339
H        1.58436961       1.18350055      10.88707771      -0.00598255      -0.01691198      -0.01666651
H        4.85440648       2.05078434       9.79728781       0.01555783      -0.04093456      -0.02269703
O        0.73481281      12.11154462       1.86685549      -0.04457241      -0.02512795       0.01246263
O        0.14334428      11.27202383       3.86491674      -0.00783753      -0.02839774       0.02070940
C        2.31299209      10.75603612       3.01147385      -0.01019120       0.00380403      -0.00067624
C        0.95940521      11.39598452       2.98150581      -0.02042645      -0.01638336       0.01149213
H        2.32198709       9.91743290       2.31123715      -0.00562224       0.00314564       0.00019860
H        3.10243842      11.44013915       2.70837004      -0.02257623       0.01350048      -0.01003437
H        2.51142119      10.39721962       4.01688577       0.00586002       0.00734942      -0.00284091
H       -0.19484423      12.43220370       1.88684818      -0.05474359      -0.05090728       0.01733316
O        9.25876873       7.31475634      13.42466951       0.00521797      -0.05763686       0.02833533
O        8.81160839       5.35851046      14.44454184      -0.05448526      -0.05438602       0.00060570
C        7.40329869       6.08435988      12.64537703      -0.01193947      -0.00031014      -0.01862764
C        8.55359744       6.18773595      13.60037809      -0.02598828      -0.03862959       0.00121492
H        6.48390045       6.02357339      13.23061519      -0.02551909      -0.01333027      -0.04097879
H        7.36379873       6.92765483      11.96325148       0.00838278       0.02183743       0.00731739
H        7.51025434       5.15429534      12.08716438      -0.01085928       0.02069578      -0.05379551
H        9.93922126       7.39366836      14.11844256       0.00085744      -0.09178135       0.03460112
O        1.02304849       6.38883546       0.17278570       0.00464775      -0.01397294       0.01126039
O        1.94876427       5.18004389       1.82530331       0.00519896      -0.01132536       0.01385766
C        0.19265808       6.75073763       2.33095631      -0.00489187      -0.02052099       0.00798559
C        1.14874395       6.01782655       1.44858073       0.00160384      -0.01415873       0.01075754
H        0.25384638       7.82366321       2.14656659      -0.01686608      -0.02086481       0.00292839
H       -0.82582735       6.44018954       2.09410826      -0.00120020      -0.03399707       0.01014842
H        0.39948347       6.53039793       3.37076555      -0.00046617      -0.01351682       0.00844927
H        1.59940697       5.85093365      -0.41419027       0.00472106      -0.01188761       0.00936015
O        9.40436852      12.86269148       2.60175059       0.02274251       0.00211459       0.00474799
O       11.43961677      12.26231828       1.86977613       0.02885067       0.02305731       0.00541818
C       11.19913622      13.01744285       4.13220087       0.01501861       0.00692785       0.00942349
C       10.72413956      12.66061101       2.76221332       0.02166656       0.01143163       0.00656384
H       11.26541749      14.10599279       4.18788759       0.00877232       0.00723875       0.01378145
H       10.50573887      12.66121467       4.89249948       0.01213919       0.00176321       0.00444562
H       12.18842892      12.60116273       4.28395933       0.01550294       0.00937345       0.01362407
H        9.13518642      12.61334345       1.65509861       0.02229735       0.01607093      -0.00221452
O        3.18694116      13.45138030       5.03900267      -0.00383335      -0.01016998       0.01220098
O        1.48854772      14.84260811       5.50260000       0.00113142       0.00595134      -0.00345366
C        1.47313656      12.64085596       6.46771503      -0.01223418       0.00972706       0.01230252
C        2.00991923      13.76459168       5.63487441      -0.00179511      -0.00370270       0.00695327
H        2.11895991      11.76408523       6.46586478      -0.01381795       0.00826921       0.02564545
H        1.28965963      12.98777626       7.48552705      -0.01975595       0.01920543       0.00759917
H        0.50695887      12.34296501       6.06268311      -0.00933641       0.00646327       0.00765960
H        3.47515131      14.20700336       4.47014419       0.00220659      -0.01792240       0.00614342
O       13.49582494       3.17577722       6.31064951       0.00241286       0.00119185      -0.00449067
O       13.80715136       5.31540453       5.72788837       0.00452942       0.00161546       0.00030270
C       11.82494396       4.71926063       6.93058723       0.00135517       0.00110227      -0.00609228
C       13.13866866       4.45139486       6.27225155       0.00303450       0.00225669      -0.00383925
H       11.09964298       4.91695801       6.13795163       0.00437865       0.00907966      -0.00690031
H       11.49544119       3.87059830       7.52458409      -0.00329683      -0.00172047      -0.01306519
H       11.89400582       5.61494286       7.54518313       0.00266156      -0.00297436      -0.00012842
H       14.29989559       3.01381510       5.78353389       0.00164896       0.00137876      -0.00537297
