197
Lattice="14.489561194176721 0.0 0.0 0.0 14.489561194176721 0.0 0.0 0.0 14.489561194176721" Properties=species:S:1:pos:R:3:forces:R:3 energy=-694750.375 stress="-0.00020066100114490837 2.2748883566237055e-05 -0.0002430148742860183 2.2748883566237055e-05 -0.00041132394107989967 -0.00013194351049605757 -0.0002430148742860183 -0.00013194351049605757 1.961774796654936e-05" pbc="T T T"
Sm      17.79838961      13.36225761       4.45048464       0.00363961      -0.00151896      -0.01699585
Sm       6.42552865      12.94791526       9.13990083      -0.01104521      -0.00299668       0.01080805
S        5.12995107      13.93238669       6.64307891      -0.00017892      -0.01713222       0.00028998
O        6.07869041      14.72125894       7.46129521       0.00733274      -0.01756293      -0.00683990
O        5.59933120      13.67261941       5.25826872       0.00718622      -0.04682845       0.00880530
O        5.01520661      12.60653878       7.36324887      -0.02416723      -0.00287524       0.02237520
O        3.78378501      14.52759047       6.52221459       0.01038933       0.00062762      -0.01979447
S        1.27005874      14.15179587       3.01938794       0.01595180       0.00203977       0.02430762
O        1.27550313      12.70918222       3.50966055      -0.00007662       0.00509381      -0.01776370
O        0.31800792      14.44477069       2.00052679      -0.02069044       0.02724102       0.00757802
O        1.24954022      14.95797605       4.26074899       0.00843602      -0.01182270       0.01304340
O        2.75320714      14.28704200       2.55438113      -0.00842834       0.01527187      -0.00476545
S        6.96271034      13.18796059      11.73480282      -0.01969370       0.00640480       0.00768819
O        7.54442954      11.85378784      11.51566252       0.00123441       0.01726413      -0.00641753
O        7.04539775      13.73065392      13.05292436      -0.02452477      -0.00658756       0.01444638
O        7.60328241      14.08566337      10.65394186      -0.03625923       0.02515262       0.01538134
O        5.51890808      13.10449064      11.18721581      -0.01856256      -0.01340040       0.01038074
C       11.32792754      10.38252133       0.95210694       0.00038451       0.00137086      -0.00042714
C       10.10450750       9.47254145       0.92760269      -0.00057989       0.00273776      -0.00157233
C       10.97480855      11.86659119       0.97860845       0.00237286       0.00179854      -0.00119936
C       10.44494971       7.98789777       0.98022707      -0.00196362       0.00244635      -0.00058237
C       12.19676462      12.77464963       0.99870738       0.00392145      -0.00018156       0.00065037
C        9.21594549       7.08823893       0.95191226      -0.00255591       0.00335702      -0.00121943
H       11.94848680      10.14230494       1.82409949      -0.00098376       0.00091577       0.00035524
H       11.95360286      10.17302753       0.07638304       0.00109476       0.00031034       0.00037175
H        9.51568244       9.68056504       0.02711303       0.00104612       0.00277333      -0.00256234
H        9.45279747       9.72041435       1.77302841      -0.00143935       0.00382470      -0.00253776
H       10.34577317      12.09895010       0.11305678       0.00424539       0.00273275      -0.00227338
H       10.35492580      12.06529736       1.85943233       0.00124882       0.00299659      -0.00234514
H       11.09936032       7.73986100       0.13954264      -0.00146392       0.00160500       0.00005278
H       11.03063379       7.78392111       1.88379307      -0.00289711       0.00238509      -0.00002056
H       12.81553253      12.60847373       1.88118115       0.00258026      -0.00201968       0.00132516
H       11.91741951      13.82961175       0.99618100       0.00573238       0.00041062       0.00140729
H       12.83181531      12.60692447       0.12656104       0.00443773      -0.00058242       0.00115569
H        8.53769145       7.32661390       1.77449318      -0.00268985       0.00353236      -0.00141326
H        8.65742501       7.21450474       0.02216563      -0.00214285       0.00387701      -0.00138815
H        9.48130728       6.03243424       1.03892073      -0.00322295       0.00315449      -0.00142475
C       11.76358410       3.09645116       3.42336482       0.00742623      -0.00249261       0.00199819
C       11.42176750       2.51204926       4.78853582       0.00433415      -0.00200123       0.00130659
C       12.62310916       4.35207599       3.51974667       0.00666496      -0.00219446       0.00317046
C       10.40613430       1.37658596       4.73605014       0.00371037      -0.00107831      -0.00134346
C       12.93090159       4.96948409       2.16308901       0.00700410      -0.00145543       0.00364745
C       10.02184679       0.87411991       6.12172543      -0.00040171      -0.00135085      -0.00281870
H       12.27992804       2.34327188       2.81900487       0.00918788      -0.00276729       0.00354725
H       10.83581282       3.33803995       2.88915596       0.00856569      -0.00319237      -0.00016433
H       11.02433025       3.30910408       5.42882333       0.00324574      -0.00170591       0.00023966
H       12.34003970       2.16007658       5.27096345       0.00284865      -0.00261748       0.00356904
H       12.10691169       5.08773065       4.14753746       0.00565900      -0.00284024       0.00312307
H       13.55631036       4.10928884       4.03649061       0.00634176      -0.00177956       0.00383437
H        9.50896157       1.72259298       4.21145549       0.00531939      -0.00032796      -0.00349918
H       10.80886459       0.55408264       4.13687157       0.00447312      -0.00135347      -0.00050537
H       13.48108913       4.26890485       1.53171826       0.00697771      -0.00123470       0.00336085
H       13.53004554       5.87725727       2.25574779       0.00712514      -0.00164469       0.00428653
H       12.01128611       5.23240070       1.63490459       0.00708696      -0.00110583       0.00375866
H       10.89633505       0.49367179       6.65409619      -0.00231241      -0.00198760      -0.00017970
H        9.59627913       1.68138517       6.72314303      -0.00226669      -0.00171983      -0.00363407
H        9.27826772       0.07560122       6.07538998      -0.00016913      -0.00106086      -0.00652644
C        9.11507642       7.25443212       4.78911496       0.00054061      -0.00162601      -0.00050002
C        7.92553974       6.30364991       4.81244630       0.00080162      -0.00195488      -0.00039980
C        8.69930530       8.72109378       4.74993069       0.00038379      -0.00178617      -0.00274280
C        8.30273192       4.82943872       4.89328805       0.00173455      -0.00159699       0.00153120
C        9.87712623       9.68511425       4.77176687       0.00026894      -0.00166595      -0.00168350
C        7.09004114       3.90882584       4.93460176       0.00244391      -0.00246316       0.00204066
H        9.74121124       7.07731703       5.67215804      -0.00037205      -0.00034644       0.00036803
H        9.74777623       7.03178601       3.92245695       0.00143649      -0.00267208       0.00045112
H        7.30952704       6.47108978       3.92141282       0.00144576      -0.00331935      -0.00106719
H        7.28703982       6.55624549       5.66761645       0.00004117      -0.00133135      -0.00119010
H        8.09196268       8.89947438       3.85549752       0.00192393      -0.00275178      -0.00391275
H        8.03968317       8.92614192       5.60165588      -0.00100614      -0.00096136      -0.00408560
H        8.93804739       4.57168140       4.03940747       0.00232136      -0.00221027       0.00220513
H        8.91750060       4.66603526       5.78412660       0.00131989      -0.00010947       0.00204331
H       10.47308070       9.55243680       5.67793435      -0.00111811      -0.00100999      -0.00065234
H        9.54930133      10.72535399       4.73319311       0.00032311      -0.00179525      -0.00293309
H       10.53936066       9.51796235       3.92031602       0.00159505      -0.00235619      -0.00054576
H        6.44362821       4.15109634       5.78109290       0.00194413      -0.00218073       0.00153305
H        6.49390129       4.01037532       4.02554489       0.00269126      -0.00399861       0.00171481
H        7.37559951       2.86043487       5.02935788       0.00355870      -0.00200632       0.00335459
C       11.83020283       4.48118557      11.69261059       0.00757390      -0.00517179      -0.00168517
C       10.88852895       3.28778007      11.67299449       0.00566763      -0.00367907      -0.00330800
C       12.00712443       5.11662065      13.06283446       0.00235033      -0.00257392      -0.00209790
C       10.83802643       2.59668012      10.31534831       0.00970456      -0.00732478      -0.00163308
C       12.93130466       6.32402441      13.01711953       0.00203857      -0.00220424      -0.00041234
C        9.80824524       1.48435034      10.27367191       0.00598863      -0.00419661      -0.00376438
H       12.81216605       4.17628801      11.31175029       0.00883958      -0.00729886       0.00334506
H       11.45999552       5.23719280      10.99237991       0.01182774      -0.00603417      -0.00475010
H        9.87938981       3.61393470      11.95312229       0.00519657      -0.00138097      -0.00804496
H       11.19099598       2.56176730      12.43787737       0.00138599      -0.00244217      -0.00021964
H       11.02945468       5.40742140      13.46261689       0.00085229      -0.00224432      -0.00624039
H       12.40658333       4.37007695      13.75447116       0.00007702      -0.00123894       0.00075080
H       10.61638732       3.33915534       9.54285912       0.01582390      -0.00859004      -0.00456935
H       11.83305647       2.20563120      10.07850618       0.00951657      -0.01107770       0.00404702
H       13.88414128       6.05649011      12.55557902       0.00381032      -0.00211326       0.00316320
H       13.14031210       6.72034466      14.01188778      -0.00153893      -0.00104681      -0.00013879
H       12.49705195       7.13056670      12.42108627       0.00364491      -0.00306451      -0.00271282
H       10.00860764       0.72275039      11.02776572      -0.00045857      -0.00243923      -0.00013757
H        8.80543101       1.86016771      10.47783729       0.00624280      -0.00007413      -0.01037796
H        9.77729383       0.98606447       9.30313875       0.00996407      -0.00681712      -0.00254117
C       11.21328632       7.22086196       8.64288024       0.00446731      -0.00279838      -0.00064681
C        9.69611998       7.15772110       8.75293749       0.00481784      -0.00506908       0.00258054
C       11.75427387       8.64615203       8.63154396       0.00262719      -0.00211552       0.00175801
C        9.12861268       5.74662787       8.82993241       0.00678805      -0.00594264       0.00024152
C       13.27477438       8.70414014       8.57587279       0.00239173       0.00000864      -0.00071939
C        7.60705653       5.71782943       8.86391792       0.00686020      -0.00775438       0.00101930
H       11.66483079       6.67588929       9.47859794       0.00709596      -0.00432882      -0.00302714
H       11.53797331       6.69886521       7.73473327       0.00304703      -0.00009058      -0.00264621
H        9.25440708       7.67755464       7.89468114       0.00225291      -0.00350742       0.00489384
H        9.37766438       7.71555188       9.64046616       0.00603628      -0.00768416       0.00468719
H       11.33473727       9.18513353       7.77515640       0.00030318      -0.00065964       0.00381321
H       11.39870776       9.17112253       9.52477989       0.00352031      -0.00468892       0.00360227
H        9.49084648       5.16267793       7.97738785       0.00688545      -0.00376101      -0.00119132
H        9.51930473       5.25205197       9.72345375       0.00803146      -0.00733478      -0.00107896
H       13.71332338       8.20129084       9.44068428       0.00467451      -0.00143957      -0.00272739
H       13.63960962       9.73235579       8.56627063       0.00115031       0.00039843       0.00099649
H       13.65259481       8.20634369       7.68015020       0.00153103       0.00251448      -0.00250459
H        7.22379694       6.26523001       9.72761830       0.00672083      -0.00937539       0.00199516
H        7.18582368       6.18272698       7.96932063       0.00592622      -0.00689301       0.00194892
H        7.22422740       4.69798728       8.91948282       0.00810241      -0.00824940      -0.00019265
C        3.37082465       9.31145885       5.59414578      -0.00817970       0.00074264      -0.00326556
C        3.83376589       8.67863458       4.28822683      -0.00116919      -0.00117144       0.00005287
C        3.10953799      10.81201746       5.44070504      -0.00410647       0.00105941      -0.00735071
C        4.14849295       7.19203289       4.39023414      -0.00356903      -0.00159055       0.00177294
C        2.30276098      11.43083880       6.58228091      -0.01394257       0.00562943      -0.01710328
C        4.46883910       6.58040748       3.03268693      -0.00204612      -0.00260009       0.00255501
H        2.45301240       8.82136296       5.93496021      -0.01119566       0.00259031      -0.00890210
H        4.11655354       9.15081419       6.38123403      -0.01359056      -0.00007830       0.00162889
H        4.71865122       9.20880306       3.91306984       0.00163406      -0.00246720       0.00490198
H        3.05267989       8.82780846       3.53467516       0.00334883      -0.00052891      -0.00451681
H        4.10736107      11.29074986       5.36020810      -0.00300872      -0.00077477       0.00042686
H        2.56032451      10.96814527       4.49549759       0.00471966      -0.00020900      -0.01254982
H        4.98997076       7.04395231       5.07411185      -0.00510332      -0.00261570       0.00340962
H        3.29628123       6.66953004       4.83685808      -0.00518030      -0.00017640       0.00035703
H        1.33924154      10.92614072       6.66673431      -0.01684836       0.00970897      -0.02745223
H        2.07885165      12.50213183       6.44591878      -0.00811784       0.00635402      -0.02026756
H        2.83108569      11.34607769       7.53056353      -0.02465224       0.00455219      -0.01133336
H        3.60833248       6.65144512       2.36376640      -0.00096910      -0.00195896       0.00127990
H        5.29801434       7.10449851       2.55078416      -0.00085607      -0.00363712       0.00351117
H        4.74150989       5.52783565       3.11353943      -0.00319775      -0.00283685       0.00326643
C        5.13602491      11.19884634       1.28381900      -0.00696892       0.01599458      -0.00266123
C        3.62664610      11.21411216       1.46309926      -0.00693008       0.01330557      -0.00287239
C        5.81151591      12.33545016       2.04094915      -0.00965255       0.01409191       0.00253318
C        2.90592956      10.01205899       0.87042270      -0.00470790       0.01225206      -0.00334644
C        7.32558581      12.33291510       1.88205672      -0.00901204       0.01436347       0.00741950
C        1.41293610      10.02085095       1.16986151      -0.00491017       0.00871925      -0.00428647
H        5.54310350      10.24045452       1.63233853      -0.00594290       0.01561004      -0.00471000
H        5.39175518      11.27142697       0.22223733      -0.00604688       0.01996624      -0.00202498
H        3.21252618      12.13761152       1.04975701      -0.00875965       0.01307786      -0.00180748
H        3.39918130      11.25420286       2.54382884      -0.00635072       0.01128651      -0.00269000
H        5.40010932      13.29107778       1.69649073      -0.00919607       0.01537481       0.00479247
H        5.55873674      12.24517773       3.11662925      -0.01139615       0.00816288       0.00152293
H        3.07151239       9.99742449      -0.21116875      -0.00402619       0.01281685      -0.00319734
H        3.36333351       9.09330743       1.25346181      -0.00314941       0.01307929      -0.00324506
H        7.75031981      11.38729815       2.22741100      -0.01107381       0.01345102       0.00753783
H        7.79853559      13.13852419       2.44450463      -0.01050504       0.01289828       0.01077901
H        7.59083623      12.45482059       0.83129162      -0.00576336       0.01581465       0.00848219
H        1.22840856      10.01435918       2.24608030      -0.00602680       0.00835970      -0.00458330
H        0.94355127      10.92620076       0.78360639      -0.00687516       0.00760937      -0.00466089
H        0.90689005       9.15795196       0.73339149      -0.00224452       0.00754103      -0.00497460
C        4.21350386       5.37586004      13.39650575       0.00385728      -0.00124496       0.00326651
C        4.72675800       3.96361507      13.15559194       0.00213954      -0.00134760       0.00029060
C        2.69589190       5.49974676      13.32671550       0.00423396       0.00154725       0.00114792
C        6.24720025       3.85684408      13.18732128       0.00199047      -0.00325212       0.00145706
C        2.20835653       6.90134754      13.66098142       0.00614500       0.00176829       0.00297098
C        6.73675163       2.42480974      13.03861732       0.00048502      -0.00348783      -0.00060043
H        4.55594082       5.72243728      14.37886702       0.00289103      -0.00447419       0.00468463
H        4.66675815       6.05742694      12.66681766       0.00607032       0.00003317       0.00578374
H        4.35870157       3.59701181      12.19048023       0.00264153       0.00145978      -0.00096169
H        4.30421542       3.29194621      13.91168960       0.00059502      -0.00267471      -0.00182191
H        2.35460842       5.21121042      12.32639181       0.00540319       0.00421833      -0.00000566
H        2.24590371       4.77921478      14.01822875       0.00177418       0.00092857      -0.00111488
H        6.66479162       4.48537894      12.39209144       0.00338636      -0.00235817       0.00294286
H        6.61304421       4.28159432      14.12902513       0.00159408      -0.00529516       0.00250158
H        2.52415418       7.19110821      14.66398946       0.00366092      -0.00103632       0.00458711
H        1.12268708       6.97752102      13.62167364       0.00641441       0.00416965      -0.00018660
H        2.61911179       7.63933613      12.96912352       0.00990099       0.00237294       0.00581819
H        6.34660112       1.78598731      13.83104401      -0.00059645      -0.00429958      -0.00186577
H        6.41396349       1.98606674      12.09342692       0.00097511      -0.00163768      -0.00157471
H        7.82436547       2.35493204      13.07188664       0.00041091      -0.00456632      -0.00016095
C        5.47560299       8.85754504       9.39874302       0.00057518      -0.00534534      -0.00016494
C        6.15930343      10.19388904       9.12062403       0.00220096      -0.00525257       0.00422679
C        3.97308210       8.97247503       9.62634981       0.00191429      -0.00117204       0.00686306
C        7.63197591      10.02693688       8.72520423       0.00087744      -0.00234771      -0.00138060
C        3.33707162       7.62415079       9.93410692      -0.00367326      -0.00038734      -0.00229605
C        8.37972894      11.29122301       8.27334181      -0.00421214       0.00226106       0.00362357
H        5.66448684       8.17794508       8.56026341      -0.00509281      -0.00124632      -0.00484085
H        5.94582657       8.39891926      10.27483644       0.00256321      -0.01177017      -0.00473112
H        6.07392728      10.78588278      10.04883639       0.00566729      -0.00875913       0.00665817
H        5.61015238      10.69439588       8.30792267      -0.00008285      -0.00161539       0.00800250
H        3.77718109       9.67553430      10.44222984       0.00852039      -0.00760670       0.01378444
H        3.50625419       9.40133904       8.73392514       0.00039235       0.00912317       0.01258364
H        8.17258409       9.59331448       9.56648881       0.00472818      -0.00599290      -0.00582629
H        7.67262946       9.30096707       7.90954746      -0.00041807       0.00241853      -0.00568590
H        3.51982637       6.91283988       9.12527180      -0.01268559       0.00659201      -0.01026008
H        2.25794720       7.70598988      10.07094058      -0.00232983       0.00421417       0.00498655
H        3.75687007       7.19535500      10.84598841      -0.00087629      -0.01160205      -0.00889899
H        7.84893125      11.82818120       7.46354940      -0.00808209       0.00373049       0.00727697
H        8.59878884      11.97147852       9.11494873      -0.00722632      -0.00079110       0.00691612
H        9.35339549      11.03168027       7.85458812      -0.00367039       0.00898016       0.00052325
