197
Lattice="14.256834760983173 0.0 0.0 0.0 14.256834760983173 0.0 0.0 0.0 14.256834760983173" Properties=species:S:1:pos:R:3:forces:R:3 energy=-828220.9375 stress="-0.00019860407337546349 0.0002508435136405751 8.179691121767974e-06 0.0002508435136405751 -0.00039279359043575823 -0.0003967128723161295 8.179691121767974e-06 -0.0003967128723161295 -0.0017934484640136361" pbc="T T T"
Sm       2.14356340      14.50975039       1.36974668       0.00090730      -0.00413969       0.00777599
Sm      -0.10398687      14.26431771       0.03719585       0.00407966       0.01641467      -0.00024951
S        6.32501136      12.30178496       7.42077618       0.00983822      -0.00166917      -0.01327991
S        5.98905540       7.50186757       8.78289954       0.00193313       0.00574064       0.00361085
S        4.87324950      10.63409599       7.79189039       0.00715709       0.00346375      -0.00303552
S        5.57262982       8.90086651       7.12782276       0.00100221       0.00028080      -0.00102946
O        7.24614593      11.83395099       6.40037698       0.00444579      -0.00637293      -0.01526010
O        4.92616686       7.69557368       9.74311303       0.00312400       0.00906011       0.00367701
O        6.91157389      12.59603639       8.71115997       0.01506579      -0.00081378      -0.01559997
O        5.35772840      13.29648590       6.95258251       0.01163018       0.00046122      -0.01163143
O        5.91449985       6.31008071       7.95387913       0.00156143       0.00312185       0.00776231
O        7.32109201       7.84440918       9.25330551       0.00248313       0.00760022       0.00201428
S        7.13600357       6.37608405      13.48165474      -0.01821744      -0.00435150      -0.00360991
S        2.20694208       6.63194323      14.14286886      -0.01235008      -0.00908886       0.00582039
S        5.37706996       7.77217267      13.39306698      -0.01813686      -0.00707924      -0.00395774
S        3.79427969       6.87669746      12.60020741      -0.01791424      -0.01172176       0.00094464
O        7.38609535       5.98123341      12.11045356      -0.02078044      -0.00924975      -0.00318313
O        2.68764637       7.27321668      15.36038776      -0.00848544      -0.00625283       0.00292742
O        6.75769525       5.29457175      14.37586474      -0.01386595      -0.00184572       0.00043309
O        8.07834635       7.33876213      14.03099810      -0.01791763      -0.00113964      -0.01008224
O        1.08127774       7.29470654      13.50575001      -0.01560748      -0.01118541       0.00913334
O        2.06235016       5.18184295      14.23859927      -0.01175588      -0.00870347       0.00943861
S       14.19791310      12.25829183      11.25779012       0.00263071       0.01264014       0.00017428
S       10.98683305      14.18336158      13.39792408      -0.00189328       0.00368583       0.04777583
S       12.21971465      11.52738000      11.80811206       0.00925502       0.00526623       0.00608784
S       11.94811405      12.21502719      13.67929010       0.01162694       0.00933824       0.00533891
O       14.36499117      13.46231709      12.16374487       0.00201527       0.01561591      -0.00190037
O       10.34778616      14.20927479      12.12497031       0.00029074       0.00430905      -0.01736069
O       14.05866081      12.62517253       9.88029184      -0.00269274       0.01314445      -0.00244683
O       15.14333611      11.22938781      11.59538753       0.00891560       0.01783091      -0.00477012
O       10.20892755      14.31056186      14.60541221       0.01357473      -0.00025145      -0.01816484
O       12.21766032      15.08183054      13.45700827       0.00248809       0.01274170       0.00758209
C       10.60430871       9.69550174       8.88115655       0.00439921       0.00040127       0.00702755
C       11.88277049      10.18804541       8.59993615       0.00430310       0.00126091       0.00897495
C       10.50341372       8.55425909       9.68028577       0.00382552       0.00159502       0.00858605
C        9.38212689      10.36725254       8.33933461       0.00512135      -0.00173447       0.00305489
C       13.02202591       9.56621351       9.09490782       0.00412722       0.00297347       0.01158291
C       11.64217538       7.93260238      10.17952216       0.00370298       0.00303954       0.01099341
C       12.90582565       8.43193680       9.89274638       0.00365207       0.00354157       0.01223217
H       11.98337842      11.08095955       7.99142232       0.00457571       0.00053982       0.00804833
H        9.52094760       8.15070969       9.89612932       0.00397038       0.00129759       0.00785635
H        8.47582757       9.88349417       8.69566488       0.00473469      -0.00451565      -0.00189812
H        9.33393079      11.41698132       8.63187778       0.00124185      -0.00247955       0.00496081
H        9.35777398      10.34764252       7.24776314       0.01029027       0.00038891       0.00295594
H       13.99911805       9.97445858       8.87140957       0.00403896       0.00355662       0.01293069
H       11.54102225       7.04850829      10.79732120       0.00364786       0.00386782       0.01198055
H       13.78952599       7.95183786      10.29240127       0.00329790       0.00427121       0.01396910
C        3.15689473       9.60230519       4.53448650      -0.01695428      -0.00157173      -0.00467090
C        4.53635812       9.45893907       4.38562958      -0.01658137       0.00175771      -0.00373853
C        2.62660711      10.88953932       4.58704671      -0.02029663      -0.00297196      -0.00857997
C        2.30954817       8.37775304       4.69881653      -0.01359469      -0.00324985      -0.00295397
C        5.36836251      10.56588620       4.32539394      -0.01954317       0.00361157      -0.00517952
C        3.45872135      12.00294859       4.52069744      -0.02345378      -0.00055684      -0.01175408
C        4.83276008      11.84151034       4.40585839      -0.02268596       0.00266647      -0.00915876
H        4.96353571       8.46855653       4.34702120      -0.01366075       0.00278890      -0.00104146
H        1.55702936      11.02000601       4.71397791      -0.02045507      -0.00530262      -0.00905172
H        1.24820784       8.60672406       4.60271106      -0.01509921      -0.00285449       0.01713856
H        2.57014344       7.62072464       3.95681837      -0.02547882       0.00429887      -0.01472303
H        2.48409877       7.94206436       5.68865356       0.00358470      -0.01330839      -0.01074165
H        6.44112018      10.43353808       4.27843201      -0.01907805       0.00686254      -0.00374486
H        3.04134133      12.99788292       4.63456401      -0.02656729      -0.00110628      -0.01664214
H        5.49513715      12.68946763       4.45239633      -0.02492836       0.00437833      -0.01192796
C        5.84984687       2.84951538      10.76551029      -0.00636149      -0.00629585       0.00160019
C        6.94105139       3.29700227      10.01763825      -0.00592732       0.00016162       0.00610220
C        5.01354025       1.88491048      10.20583945      -0.00001794      -0.00888611      -0.00294512
C        5.57906731       3.38373795      12.13437635      -0.01335403      -0.01081362       0.00199181
C        7.19705491       2.76132304       8.76201211       0.00043365       0.00345159       0.00591025
C        5.26541464       1.35028643       8.95201317       0.00646417      -0.00558089      -0.00291956
C        6.36976581       1.78041674       8.22890549       0.00678544       0.00066258       0.00157598
H        7.57232886       4.07739586      10.42767523      -0.01129080       0.00243540       0.00939052
H        4.15577210       1.54133582      10.77584631      -0.00026403      -0.01388907      -0.00640395
H        4.92500503       2.70486194      12.68425047      -0.01123733      -0.01597287      -0.00200673
H        6.49355776       3.54262617      12.70098824      -0.01606199      -0.00700995       0.00521624
H        5.08880346       4.35840989      12.09175291      -0.01847610      -0.01337352       0.00310947
H        8.05261834       3.10796471       8.19521578       0.00048079       0.00871117       0.00938203
H        4.63598558       0.57509561       8.53971769       0.01125664      -0.00760815      -0.00646351
H        6.57900626       1.33115039       7.26736099       0.01195201       0.00347041       0.00136770
C       12.97505615       2.63186701       2.59152309       0.00936651      -0.00815895       0.00330514
C       13.29761716       3.09218776       3.86725362       0.00445428       0.00743898      -0.00110415
C       13.03870282       3.52616462       1.52127688       0.00853606      -0.01879416      -0.00608416
C       12.58836921       1.19346152       2.40237564       0.01618150      -0.01146898       0.01814468
C       13.71662906       4.39858784       4.06554056      -0.00153034       0.01112761      -0.01375961
C       13.44670124       4.84465055       1.71711334       0.00305775      -0.01532616      -0.01909779
C       13.80069920       5.27597114       2.98967424      -0.00167885      -0.00021705      -0.02301102
H       13.20589612       2.41744913       4.71233302       0.00408478       0.01670515       0.00617687
H       12.75316640       3.20079474       0.52504283       0.00968591      -0.02906076      -0.00313729
H       12.02499229       1.04707458       1.48122083      -0.00092760      -0.02288332       0.02985281
H       13.48888981       0.52272226       2.41951166       0.02080472      -0.00582397       0.00546840
H       11.95564896       0.83560335       3.21629897       0.03529835      -0.01173699       0.03295174
H       13.96293037       4.73459313       5.06307341      -0.00618848       0.02346203      -0.01654182
H       13.51973774       5.52535619       0.87840676       0.00270880      -0.02334657      -0.02584396
H       14.14394800       6.29080577       3.14368503      -0.00521486       0.00259399      -0.03337944
C        9.09505476       2.39880810       2.61948903       0.00443880      -0.00157017      -0.00212714
C        9.02742819       1.14699271       3.23316559       0.00537223      -0.00257942      -0.00409284
C        9.66737943       3.44955187       3.33786413       0.00016629      -0.00143057       0.00088835
C        8.52938589       2.64791952       1.25306617       0.00664052      -0.00106341      -0.00287506
C        9.46593042       0.96016437       4.54047013       0.00107554      -0.00311446      -0.00284722
C       10.12386561       3.26735196       4.63504921      -0.00402461      -0.00202927       0.00227096
C       10.01182086       2.02400281       5.24976491      -0.00399712      -0.00272890       0.00043306
H        8.61922763       0.30983558       2.68028865       0.00882328      -0.00240047      -0.00642444
H        9.74363584       4.42409728       2.87005190      -0.00046699      -0.00069678       0.00233936
H        9.26832383       3.10088600       0.58902541       0.00812016      -0.00157160      -0.00164928
H        8.18661164       1.72498029       0.78864801       0.00771246      -0.00087115      -0.00360417
H        7.70483236       3.36459425       1.29561643       0.00657871      -0.00124282      -0.00401975
H        9.36704467      -0.01303251       5.00680945       0.00092992      -0.00377090      -0.00426912
H       10.57320399       4.09409512       5.17105649      -0.00798713      -0.00160091       0.00487663
H       10.35592353       1.88765953       6.26833870      -0.00842771      -0.00309511       0.00181769
C        4.45904013       1.45441267       2.78209506       0.00901158      -0.00296038       0.00274996
C        4.43424569       2.02770379       1.49946914       0.00921778      -0.00494684       0.00185989
C        3.28617910       1.49726070       3.54576549       0.01032576       0.00118934       0.00375217
C        5.71929927       0.90482434       3.34521654       0.00864330      -0.00274815       0.00245260
C        3.31375426       2.71692586       1.03663884       0.01142200      -0.00151327       0.00271538
C        2.15298858       2.17929141       3.08403403       0.01038257       0.00042674       0.00245651
C        2.16934489       2.82199370       1.83740957       0.01106900      -0.00080936       0.00182927
H        5.33949571       2.02873961       0.90512864       0.00827144      -0.00867439       0.00063317
H        3.29664280       1.07834965       4.54385202       0.01047938       0.00378685       0.00467061
H        6.00739615      -0.02925855       2.85865395       0.02283206       0.01109532      -0.01483016
H        6.52967151       1.61528781       3.18789307       0.00243214       0.00877616       0.02331401
H        5.63193987       0.71141257       4.41353357       0.00231278      -0.02468266      -0.00244841
H        3.34185099       3.26409888       0.10448492       0.01168396      -0.00230880       0.00215173
H        1.28236048       2.26749888       3.71914940       0.00972594       0.00150241       0.00178216
H        1.35985173       3.46240622       1.52227666       0.01163673      -0.00054415       0.00061810
C        7.88608484       7.25079882       3.19601582      -0.00312245      -0.00287674      -0.00023054
C        7.67747620       6.12932461       3.99406562       0.00041959       0.00048330       0.00532502
C        6.82245072       7.72128258       2.42892149      -0.00531156      -0.00827765      -0.00053844
C        9.22980525       7.91214206       3.11551023      -0.00459376      -0.00064486      -0.00542900
C        6.44923118       5.47578887       4.00999522       0.00151834      -0.00112788       0.01116104
C        5.59967841       7.07013774       2.43025234      -0.00400946      -0.01053246       0.00463513
C        5.41169916       5.93819743       3.21506376      -0.00069010      -0.00662084       0.01087820
H        8.48976210       5.75288138       4.60030837       0.00235473       0.00467730       0.00529730
H        6.97274360       8.58256579       1.78969356      -0.00763756      -0.01181853      -0.00556161
H        9.19020820       8.94725534       3.46345001      -0.00516080      -0.00071287      -0.00540429
H        9.96709787       7.38396451       3.71940340      -0.00162780       0.00091402      -0.00791623
H        9.57203965       7.92803144       2.07875984      -0.00822463      -0.00012802      -0.00653648
H        6.31420506       4.60706047       4.64284300       0.00404575       0.00194792       0.01580403
H        4.78855883       7.42317458       1.80944196      -0.00506496      -0.01555478       0.00314234
H        4.45527582       5.43015056       3.19205000       0.00021373      -0.00843034       0.01560947
C       12.07473045       2.72099864      10.51477024      -0.00657779       0.00407380       0.00018543
C       10.90136910       2.13446083      10.04049911      -0.00619620       0.00260856       0.00062513
C       13.29311762       2.25228998      10.02350582      -0.00634795       0.00523076      -0.00018931
C       12.01989529       3.80777017      11.54789490      -0.00734424       0.00446135      -0.00043106
C       10.94090503       1.11467123       9.09849764      -0.00525591       0.00229646       0.00124023
C       13.33959213       1.23563527       9.07813054      -0.00551938       0.00518500       0.00028090
C       12.16208143       0.66560920       8.61083807      -0.00483473       0.00344878       0.00100984
H        9.94308562       2.46505479      10.42486966      -0.00632100       0.00179924       0.00065443
H       14.21567870       2.68976266      10.39014660      -0.00684948       0.00641969      -0.00047296
H       12.96580839       4.34489823      11.61766693      -0.00708783       0.00384632       0.00022866
H       11.23132208       4.52753483      11.32382230      -0.00642292       0.00482182      -0.00188497
H       11.79997279       3.38619020      12.53182711      -0.00881867       0.00546680      -0.00046429
H       10.01588291       0.65778396       8.76756997      -0.00466506       0.00095345       0.00179124
H       14.29373881       0.86515108       8.72706336      -0.00525205       0.00608519       0.00017549
H       12.20090046      -0.14613238       7.89581898      -0.00415429       0.00303224       0.00177030
C       10.43118549       5.93084996       7.21566888       0.00342353       0.00545061       0.00359358
C       11.23726365       4.91558595       7.73702117       0.00516733       0.00670686       0.00300632
C       11.05979622       7.02430928       6.61995585       0.00119516       0.00655118       0.00380367
C        8.94237810       5.85261893       7.32478033       0.00347972       0.00347015       0.00466239
C       12.62125515       5.00071283       7.68929342       0.00496961       0.00915518       0.00289503
C       12.44537132       7.11433432       6.56649955       0.00108004       0.00915107       0.00381274
C       13.23108860       6.10876727       7.11124271       0.00298581       0.01033783       0.00329334
H       10.77402052       4.05214816       8.20099339       0.00676704       0.00592233       0.00309874
H       10.45063310       7.82580886       6.21977909      -0.00012484       0.00557284       0.00393758
H        8.45369959       6.71437802       6.87881864       0.00199319       0.00227240       0.00425412
H        8.54872698       4.95616105       6.84100609       0.00448126       0.00242168       0.00586091
H        8.61823741       5.82345448       8.36498696       0.00436610       0.00411408       0.00485799
H       13.21704851       4.20224734       8.11324131       0.00647200       0.01038703       0.00297947
H       12.91107779       7.98289126       6.11908899      -0.00063571       0.01022401       0.00450291
H       14.31086425       6.19068814       7.09384114       0.00267106       0.01255488       0.00371228
C        2.12341601      11.12254457       0.55538723       0.00060719      -0.00633482      -0.00813658
C        3.19380400      10.47438538       1.17132327       0.00348962      -0.00329244      -0.01001307
C        2.36220326      12.36673076      -0.05321485      -0.00530937      -0.00268682      -0.00280307
C        0.76324794      10.49830559       0.52907751       0.00483930      -0.01539862      -0.01348014
C        4.45269820      11.05963918       1.23197947       0.00119162       0.00153877      -0.00901245
C        3.62819644      12.99250070       0.07378042      -0.00667581       0.00044745      -0.00449132
C        4.66427872      12.34340447       0.73771047      -0.00344026       0.00280232      -0.00764453
H        3.04121123       9.47541685       1.55893077       0.00747665      -0.00458163      -0.01234181
H        1.67820153      12.72739841      -0.82212426      -0.00847723      -0.00263424       0.00041464
H        0.43544570      10.32240340      -0.49561459       0.01001429      -0.01606201      -0.01495290
H        0.75993203       9.54568251       1.05291322       0.00917425      -0.01596701      -0.01507361
H        0.03064925      11.16405745       1.01027486      -0.00108546      -0.02031328      -0.01700092
H        5.27278426      10.50936327       1.66744169       0.00328706       0.00388619      -0.01027113
H        3.83867150      13.91025510      -0.48533810      -0.01071224       0.00265273      -0.00241231
H        5.64918165      12.78765607       0.79180510      -0.00490585       0.00582438      -0.00863578
C        5.99702475      11.66116987      11.65863328       0.00744136       0.00637219       0.00014624
C        6.28847428      10.33837945      11.32533972       0.00572343       0.00465792       0.00580850
C        6.89132289      12.34794835      12.47790667       0.00779870       0.00829530      -0.00167038
C        4.73916621      12.30250165      11.15989679       0.01003507       0.00706148      -0.00472042
C        7.42888744       9.71274079      11.81085880       0.00438806       0.00496802       0.00838389
C        8.02591136      11.72121770      12.98304805       0.00682162       0.00836906       0.00147688
C        8.29559543      10.39840213      12.65473108       0.00446197       0.00693391       0.00669797
H        5.61412566       9.77618227      10.69102686       0.00584374       0.00347918       0.00658989
H        6.70423695      13.39083703      12.71480267       0.00927967       0.00941968      -0.00581679
H        4.76328095      13.38329874      11.29678062       0.00679637       0.00601405       0.00260750
H        4.60133356      12.10000106      10.09850819       0.01949976       0.01428801      -0.00728646
H        3.86319035      11.89645780      11.67420865       0.00647239       0.00206420      -0.01502094
H        7.63115858       8.68955289      11.52613748       0.00350104       0.00383103       0.01236129
H        8.69335234      12.27050917      13.63435288       0.00704455       0.00989133      -0.00050765
H        9.16513734       9.89172866      13.05371332       0.00370128       0.00706237       0.00908735
