197
Lattice="18.973561002835346 0.0 0.0 0.0 18.973561002835346 0.0 0.0 0.0 18.973561002835346" Properties=species:S:1:pos:R:3:forces:R:3 energy=-2512542.5 stress="-0.0007040665950626135 0.000123485555377556 -0.00013167032739147544 0.000123485555377556 -0.0009683179087005556 0.00031839171424508095 -0.00013167032739147544 0.00031839171424508095 -0.0007911054999567568" pbc="T T T"
Sm       9.67193934      15.05151265      10.12494300      -0.01228431      -0.01009753       0.00326115
Sm       3.16236223      16.95558354       4.74392264      -0.01800567       0.00081317      -0.00092067
S        6.00125036      10.23363691      17.15752527      -0.00600278       0.00598946      -0.00040999
S        3.82866101       9.89171801      17.32146397      -0.00846183       0.00949478       0.00098270
O        5.82682856      11.42125912      17.97590255       0.00240093       0.01291180      -0.00973165
O        6.23962133      10.43601167      15.74720840      -0.00707269      -0.00200692      -0.00177312
O        6.65543938       9.10455140      17.75544302      -0.01170492       0.00579154       0.00480396
S       10.68122066      17.18648459      11.94051463       0.00589490      -0.01521790       0.00518091
S        8.75603365      16.48206482      12.14052186       0.00176513      -0.00127017       0.00579154
O       11.38906807      17.19945214      13.18240233       0.01213080      -0.03900341       0.00121367
O       10.67513454      18.40017016      11.15300151       0.01645241      -0.00692713       0.01843059
O       11.23730354      16.02889690      11.02723784      -0.00935525      -0.01106220      -0.00994724
S        3.89574724      16.44874502      11.57261787      -0.03162594       0.01225330       0.00595802
S        3.42909369      16.21947664       9.61908305       0.02435966      -0.02803318      -0.01191497
O        5.25424213      16.19366821      11.93858506      -0.00455046      -0.01380503       0.02051462
O        3.13765311      15.14864584      11.07941662      -0.00944474      -0.00479537      -0.00226951
O        3.10085833      17.31829443      12.37161190       0.00110003      -0.00485924      -0.04435730
Cl       2.12688052      12.92623464       6.38221933       0.01019946       0.01285282       0.00143392
Cl       4.42011383      12.58467249       4.74917051      -0.01599090       0.01749109      -0.02846998
Cl       4.29211258      15.40111117       6.45623509      -0.01393792       0.03388304       0.00136763
Cl       3.63792811      15.81766495       2.56717844       0.00169104       0.01827270      -0.00135398
C        3.86344013      12.90525959       6.33902805       0.00712574      -0.00519994      -0.01988995
Cl       9.91899578       9.23260349      18.89830006      -0.00196868      -0.01857346       0.00842986
Cl       9.96011147      10.10679350      16.13235775       0.01038717      -0.03602873       0.00479358
Cl      11.78353864      11.27928046      18.05597196       0.00251949      -0.01533197      -0.00220242
Cl       8.95275243      11.87554271      18.19051121       0.00315738      -0.02329975      -0.01271757
C       10.14728093      10.61824381      17.82516008       0.00522072      -0.02451934       0.00203935
Cl       7.18032559      10.35018619       2.23725097       0.00194836      -0.00296152       0.00640915
Cl       5.49437796       9.18123605       4.28846716      -0.00240438       0.00120187       0.00475472
Cl       5.63311413       7.96980338       1.65705866       0.01045414      -0.00901914       0.01059005
Cl       4.30426825      10.51721938       2.00105660       0.00245190      -0.01188734      -0.00468303
C        5.65929962       9.50692839       2.53489883       0.00338461      -0.00588873       0.00434814
Cl       0.70507979       5.25139122      15.87083270       0.00338100      -0.00514377       0.00803787
Cl      -0.37011901       6.38600859      13.43245957      -0.00021228      -0.00866047       0.00859211
Cl       0.34603875       3.58922471      13.51315031      -0.00047044      -0.00825480       0.01130682
Cl       2.42498103       5.60525829      13.55905272      -0.00030684      -0.00854327       0.00541796
C        0.77311460       5.20085164      14.09886115       0.00075253      -0.00776125       0.00836316
Cl      13.83194704      17.24905987       2.54298062      -0.00489911       0.00519124      -0.01654005
Cl      15.02349897      17.49277525      -0.08703475       0.00101557       0.02118427      -0.01153433
Cl      16.47753975      18.39647283       2.25845349      -0.00140890       0.00177846      -0.00293511
Cl      14.15465354      19.86346620       1.33426607       0.00357643       0.01284742       0.00288706
C       14.87594745      18.24946010       1.50257054      -0.00074827       0.01013656      -0.00699464
Cl       4.23112704      19.07279341       5.56662638       0.01473680       0.00859177      -0.04573701
Cl       0.66289787      19.46248624       6.24149878       0.01008648       0.00604855       0.01071423
Cl       0.80920651      16.56873160       6.61907537      -0.01826233       0.01102993      -0.00400497
Cl       0.44441541      17.65951268       3.93183037       0.01422301       0.02542073       0.00639202
C        1.15311004      17.97262651       5.56787456      -0.00095308       0.00819355       0.01014099
Cl       9.49070981       1.38403568       3.07927582       0.01050407       0.01436392      -0.01766510
Cl       7.08583909      -0.20733832       3.37125355       0.03892082      -0.00664181      -0.00335569
Cl       6.88988361       2.67327378       3.06365322      -0.00193325      -0.01127481      -0.00195120
Cl       7.93952855       1.56032613       5.52022728       0.01877479       0.02687737      -0.01985472
C        7.84575096       1.35338582       3.75786570       0.01590928       0.00039980      -0.01307900
Cl      16.84802067       4.72982710      10.79160259      -0.00156748      -0.00393267       0.00483472
Cl      14.42008835       3.15419244      10.77036150      -0.00084145      -0.00441247       0.00075560
Cl      14.53990873       5.63922175       9.29054490       0.00072145      -0.00375360       0.00225896
Cl      14.49244314       5.67896696      12.18507667      -0.00329718      -0.00518790       0.00176108
C       15.07006893       4.79914353      10.75728953      -0.00146476      -0.00434980       0.00242253
Cl       2.17987688       7.77792850       3.09017171      -0.00518993      -0.00456420      -0.00284863
Cl       0.49682651      10.13044189       2.96058461       0.00515944       0.00321811       0.00827885
Cl       2.02607251       9.57383553       5.34946833      -0.00002423      -0.01611832       0.00743204
Cl      -0.23571341       7.90901836       4.68640096      -0.00580087      -0.00367439      -0.00547101
C        1.11585185       8.84921124       4.01363712      -0.00160719      -0.00547733       0.00169776
Cl       5.39714147       5.89947211       6.77345939       0.01282471      -0.01408711       0.01691404
Cl       4.25022658       3.33725515       6.01135138       0.00555576      -0.00376379      -0.00127915
Cl       4.55954223       5.42168969       4.03986293       0.01838823       0.00619384       0.01180595
Cl       2.57696747       5.70217101       6.14392313       0.01467824       0.00179262       0.00831829
C        4.19133744       5.07690780       5.74299015       0.01303812      -0.00284643       0.00805646
Cl      16.38546358      14.72330931       2.25709439       0.00568843      -0.00747697      -0.01602741
Cl      17.57523581      12.76528150       0.49267602       0.03883791      -0.00861004       0.00804493
Cl      19.00367783      13.63009928       2.87005893       0.01476896       0.02795957       0.00845158
Cl      18.68185206      15.44790600       0.63903133       0.00737938       0.00477967      -0.00815493
C       17.91333558      14.14357601       1.56565361       0.01611633       0.00448677      -0.00213583
Cl       3.37287541       8.45616159      15.99144576      -0.00522209       0.00492221       0.00634874
Cl       1.59717566       9.20665893      13.50246520       0.00285433      -0.01072092      -0.00400071
Cl       4.40011901       8.65052002      13.10058469       0.00770663      -0.00063987       0.01073721
Cl       3.57324030      11.10660418      14.38960895      -0.01086733      -0.00023720      -0.00255054
C        3.21645341       9.51924462      13.97007810      -0.00053123      -0.00349823       0.00161284
Cl       8.98070982      17.62266289       8.81466868       0.00824720      -0.00129726      -0.00370547
Cl       6.51353454      17.80670901       7.29108683       0.01609081       0.01335245      -0.01183156
Cl       6.97893905      15.51767962       9.04456031      -0.00231442       0.01402418      -0.00715040
Cl       8.50713581      15.80206178       6.59879195       0.00011538       0.00286909      -0.00812581
C        7.71907239      16.73443869       7.88409259       0.00631703       0.00508636      -0.00651079
Cl      17.41024679       8.22221606       9.34353480       0.00746576       0.00061280      -0.01476824
Cl      15.63108851      10.43149031       9.95419170       0.00800142      -0.00109059      -0.00907321
Cl      18.44376578      10.59204563      10.65123072       0.00652841      -0.00474748      -0.00458411
Cl      16.67195769       8.80212075      12.09011212       0.00442020      -0.00963452      -0.01377115
C       17.03860454       9.51149059      10.50369604       0.00654279      -0.00370547      -0.01034239
Cl       9.14485135       1.09282671      13.61934089       0.01362753      -0.00626653       0.00393987
Cl       8.91217093       2.70775452      16.02163491      -0.00139320      -0.00143516      -0.00102416
Cl       8.60847266      -0.16533893      16.16939593      -0.00973121       0.00002873       0.00166583
Cl       6.56018679       1.44219235      14.89408062       0.00499094       0.00195679      -0.01726045
C        8.30392551       1.26841276      15.17418632       0.00205973      -0.00123610      -0.00331062
Cl       7.53827133      12.17107491       6.91464238      -0.02380223       0.00314204       0.00615731
Cl      10.09945794      12.53962247       8.32261270      -0.02722859       0.01068336       0.00966790
Cl       9.66474200      10.23042968       6.59656859      -0.02333475       0.00215603       0.01952075
Cl       8.23382418      10.41992031       9.10247309      -0.02702639       0.01368946       0.01519366
C        8.82888089      11.29470872       7.70574076      -0.02631509       0.00654027       0.01237886
Cl       1.69188493       3.80193731       0.88114510       0.01373087       0.01506665       0.00498453
Cl      -0.25894385       1.89242523       1.86218921       0.01136222       0.00729892      -0.01131532
Cl       0.47715424       4.16961690       3.49339201       0.00080071       0.00504148       0.00105846
Cl       2.37648296       2.02950596       3.07441445       0.00558102       0.01283933       0.00108345
C        1.07756346       2.96979438       2.32673386       0.00579410       0.01067027      -0.00171653
Cl      17.16962653       0.81247704      12.00177673      -0.00120094      -0.00315156       0.01511747
Cl      16.93021593      -0.25021351      14.69345580      -0.01099662      -0.00187710       0.01422182
Cl      14.58431589      -0.08039745      12.98571524      -0.00434387      -0.00326955       0.00535190
Cl      15.79162429       2.32686919      14.05949256      -0.00924443      -0.00262773       0.00861751
C       16.11037063       0.70277672      13.43108741      -0.00670561      -0.00280959       0.01077307
Cl      11.19196219      13.06287777       2.04786305       0.01805394       0.01188573      -0.00996873
Cl      10.12855472      13.35552433       4.72668011      -0.00832972      -0.01469205      -0.01786064
Cl      10.76313518      15.70635709       3.16684551      -0.00327697       0.00076619       0.00880101
Cl      12.90205975      14.02190737       4.18377075      -0.00613508       0.00010007       0.01291600
C       11.25411962      14.03152628       3.51632089       0.00044936      -0.00033003      -0.00142150
Cl       6.21006635       5.45618151      14.62889819      -0.00272149      -0.00129631       0.00786671
Cl       8.09731298       4.38582429      12.69858401       0.00029460       0.00009122       0.00946424
Cl       7.89641191       7.25115802      13.09995159      -0.00727925      -0.00064003       0.00527458
Cl       5.75119481       5.79822797      11.78777631      -0.00356920      -0.00879795       0.00770944
C        6.99629589       5.70877891      13.05885875      -0.00333434      -0.00284651       0.00752851
Cl      12.54315137      14.83542854      17.84832669       0.00126542      -0.00537096       0.01069409
Cl      12.49198550      13.86753451      15.11001927       0.00560758       0.00866997       0.00585735
Cl      13.28027027      16.59674892      15.67499040       0.01254928       0.00296932       0.02136751
Cl      10.51072115      15.77209337      16.00929724       0.00962985       0.01095365       0.01097056
C       12.20396147      15.27522718      16.15273566       0.00689882       0.00397798       0.01201023
Cl      14.30513198      14.82713276      11.82351568      -0.00169379       0.00576277      -0.00330209
Cl      16.79068349      15.68544019      13.03231220      -0.00143921       0.00445291      -0.00394502
Cl      16.84508631      14.09343412      10.60924548      -0.00342686       0.00671370      -0.00543755
Cl      16.04025437      12.88904731      13.12033432      -0.00182492       0.00474322      -0.00629953
C       15.98814133      14.37659937      12.15110163      -0.00212211       0.00554140      -0.00463746
Cl      17.92836143       7.94844519      -1.24270765      -0.00606361      -0.01427728      -0.00562060
Cl      18.36153524       6.73034455       1.33649720      -0.01059046      -0.01367193      -0.00484771
Cl      15.83229830       6.36210659      -0.00453721      -0.01506403       0.00274110       0.00011539
Cl      16.52758285       8.96010307       1.08471782       0.00558148      -0.00102431      -0.00485206
C       17.16953440       7.50114055       0.29715402      -0.00647397      -0.00650166      -0.00390626
Cl      12.27443596       6.56281633      14.87449663      -0.01662794       0.00385067      -0.00002512
Cl      11.78110003       4.83325016      17.14774589      -0.00884712       0.00677050       0.00152645
Cl      14.42985557       4.97586952      15.98749862      -0.00819594       0.01247942      -0.01006343
Cl      12.27699851       3.67623008      14.53469811      -0.00651170       0.00688040      -0.00267461
C       12.68580183       5.00771911      15.62720553      -0.01059206       0.00643295      -0.00054985
Cl      14.46432821       8.94606958      17.03864964       0.00873840      -0.00360098      -0.01650521
Cl      14.95291201      11.80725681      16.99736098       0.00398691      -0.00306803      -0.00103670
Cl      13.63007104      10.50298951      14.75462171       0.00928700       0.00695146      -0.00909352
Cl      16.45156546      10.06752738      15.25433627       0.00897503       0.00802671      -0.00833972
C       14.86373830      10.33021027      16.02139320       0.00783128       0.00195717      -0.00880088
Cl      16.45581142       1.73135073       5.26021464      -0.00612513       0.00224076      -0.00117964
Cl      16.42442181      -0.28196187       7.35707478      -0.01540006      -0.00281823      -0.00819073
Cl      14.47228047       1.85663781       7.35974458      -0.01371682      -0.00078423      -0.00844909
Cl      17.24490344       2.42926720       7.96774358      -0.01666296      -0.00588229       0.00430462
C       16.14964457       1.43613860       6.97740934      -0.01308052      -0.00135460      -0.00315206
Cl      15.45105868       6.56737891       3.71465457      -0.01218498      -0.00570845      -0.00543469
Cl      14.79606754       7.86431444       6.22500322       0.00445843       0.00166857      -0.00555401
Cl      16.63054600       5.61854653       6.18521668      -0.01225150      -0.01249659      -0.00793304
Cl      13.80953849       5.19530507       5.66487364      -0.01518154       0.00778845       0.00082345
C       15.16628549       6.31284932       5.44136391      -0.00867236      -0.00199875      -0.00439667
Cl       0.84843244      13.55173705      14.31424805      -0.01037711       0.00454022      -0.00033623
Cl       1.33095557      15.92795898      15.89756238      -0.00749934       0.00882053      -0.00291617
Cl       3.56005930      14.53136636      14.67839007      -0.01145640       0.00590481      -0.00402512
Cl       2.14070259      13.33431611      16.90488044      -0.01099776       0.00925750      -0.00125062
C        1.95744080      14.33656065      15.45750851      -0.01037323       0.00768316      -0.00226438
Cl       8.07662979      13.05174563      14.44628776       0.00413389      -0.01250790       0.01606411
Cl       7.38349211      10.84613020      12.71560626       0.01448493       0.00581773      -0.00608774
Cl       9.51861675      12.68457178      11.91727707       0.03287545      -0.00241658       0.02597073
Cl       6.71264402      13.55976519      11.94373321       0.04326725       0.01198792      -0.00313300
C        7.85190845      12.52154405      12.81841545       0.02885461       0.00108784       0.00810847
Cl       3.43822408      -0.07584469      16.68212410       0.00344038       0.00340146       0.02374834
Cl       0.97960422       1.44205379      16.95017579       0.00371191       0.00476874       0.01382604
Cl       1.74591522       0.36026440      14.37570452       0.00610366      -0.00758708       0.01958263
Cl       3.24206793       2.56538188      15.51729729       0.00415963      -0.00218308       0.01103393
C        2.34513804       1.06987067      15.87947472       0.00445366      -0.00079124       0.01665555
Cl       5.98519909       0.63585970      11.06162284       0.00144210      -0.01760879      -0.01771761
Cl       3.63902924       0.65383295       9.34748198      -0.00132897      -0.00326866      -0.01026887
Cl       5.31734022       2.99817993       9.51281273      -0.00345175      -0.00269994       0.00709298
Cl       3.68370572       2.24144248      11.77930959       0.00226307      -0.02564433       0.00305885
C        4.65856858       1.63227734      10.43508919      -0.00050022      -0.01163127      -0.00499168
Cl      11.78681755      15.33692882       7.94230609      -0.01159602      -0.01313722      -0.00616951
Cl      13.18634730      17.26952754       6.28336070      -0.01863244      -0.01137624      -0.00994766
Cl      14.69537717      15.48196009       7.99059055      -0.01318495       0.00141518      -0.00151276
Cl      13.18412972      17.65931848       9.14388111      -0.02646021      -0.00265494      -0.01207590
C       13.27666641      16.49776508       7.85867177      -0.01845059      -0.00677070      -0.00773793
Cl       8.64618419       2.77835303       8.89044391      -0.00416625       0.00876949      -0.00790387
Cl      11.17394083       1.50179890       8.27002300      -0.00272505       0.00604427       0.00297847
Cl      10.81406884       2.87397007      10.79877258      -0.00946251       0.00853276      -0.00093991
Cl      10.99895532       4.38926075       8.33322813      -0.00260249       0.00595653      -0.00185728
C       10.40738210       2.89182164       9.07548767      -0.00527246       0.00723001      -0.00211793
Cl      17.42755724      10.88284495       6.70310475       0.00203025       0.00293295      -0.02017230
Cl      15.97018665      11.03653501       4.20553062      -0.00457981       0.01771116      -0.01526070
Cl      16.49051130      13.44344894       5.73728262      -0.00212117       0.00796050      -0.00193623
Cl      14.58149029      11.49416542       6.70655764       0.00138468       0.00119862      -0.00949299
C       16.12364212      11.70597136       5.83645490      -0.00084397       0.00728616      -0.01141161
Cl       4.36681929      10.33612719       7.71044758      -0.00031014      -0.00437549       0.01109827
Cl       5.16930198       8.46337652       9.76522081       0.00149930      -0.00473770       0.01062045
Cl       2.43321548       8.46396907       8.81592093       0.00067133      -0.00272775       0.01604682
Cl       3.40304931      10.69123759      10.39703902       0.00628698      -0.00200886       0.01244819
C        3.83639152       9.47752102       9.16339289       0.00150856      -0.00370866       0.01264650
Cl       9.34354838       5.97716691       1.92079405       0.00650646       0.01040934       0.00410497
Cl      10.02069630       4.95248398       4.55093324       0.00415650      -0.00381857      -0.00207496
Cl       8.28333516       7.25756950       4.29176585      -0.00164658      -0.00795174       0.00999767
Cl      11.09958079       7.49866061       3.65991973      -0.00150475       0.00452951       0.01688544
C        9.68333994       6.41657156       3.60767687       0.00223443       0.00024304       0.00751329
