198
Lattice="12.253555137796871 0.0 0.0 0.0 12.253555137796871 0.0 0.0 0.0 12.253555137796871" Properties=species:S:1:pos:R:3:forces:R:3 energy=-80478.3046875 stress="0.00019095769675914198 0.00011807371629402041 -0.0010523406672291458 0.00011807371629402041 0.00010806830687215552 -9.285401029046625e-05 -0.0010523406672291458 -9.285401029046625e-05 0.0016433126293122768" pbc="T T T"
N        6.68453796       7.36656536       8.71402419      -0.00436768       0.00622037      -0.00611629
C        6.50082748       6.74434207      10.05964530      -0.00511792       0.00807026      -0.00568414
C        5.75988270       6.71773414       7.73229900      -0.00396019       0.00142637      -0.00291789
C        8.08818648       7.14657028       8.24636634      -0.00430954       0.00666633      -0.00435895
C        6.40841236       8.82960584       8.81404442      -0.00417204       0.00641733      -0.00967488
H        5.45705317       6.86199502      10.34495092      -0.00400195       0.01392311      -0.00433079
H        6.75072209       5.69028965       9.98345424      -0.01146972       0.00642863      -0.00522093
H        7.15178645       7.25004433      10.77030115      -0.00134039       0.00441372      -0.00676326
H        5.83477040       7.24919352       6.78865512      -0.00324711      -0.00522138      -0.00633171
H        6.06406870       5.68237557       7.61854686      -0.00480472       0.00023997       0.00367395
H        4.74267843       6.79207031       8.10614539      -0.00416787       0.00689278      -0.00463411
H        8.17502318       7.52887031       7.23136316      -0.00522308      -0.00074112      -0.00707424
H        8.75992911       7.69018133       8.90556549      -0.00518464       0.01236114      -0.00785726
H        8.27285564       6.07400676       8.26191746      -0.00116322       0.00768107       0.00072671
H        6.59953876       9.29242961       7.85030713       0.01030478       0.00738507      -0.00573608
H        5.36175550       8.97420338       9.06371583      -0.00726458       0.00865881      -0.02491266
H        7.07158905       9.23993675       9.56705305      -0.01144496       0.00663798      -0.00353956
N        2.24806835      10.79798279       3.06724988      -0.00279939       0.00115128      -0.00083706
C        2.29260901      11.21100452       4.50272541       0.00095746       0.00152895      -0.00153387
C        3.46728182       9.99691720       2.76101593      -0.00549877      -0.00026730      -0.00433025
C        2.19242508      12.00888092       2.19333100      -0.00172969       0.00168818       0.00062537
C        1.02286161       9.97490439       2.83459875      -0.00411409       0.00339466       0.00105672
H        2.26810508      10.30570927       5.10514744       0.00334823       0.00132427      -0.00170676
H        3.23546926      11.72488327       4.68265308       0.00077300       0.00196406      -0.00401517
H        1.42105625      11.83607084       4.70989837       0.00179759       0.00128935       0.00106083
H        3.39119372       9.64026427       1.73492292      -0.00671013       0.00411199      -0.00550033
H        4.34186532      10.63245965       2.88785235      -0.00440831      -0.00217031      -0.00526272
H        3.53631704       9.15687335       3.45041178      -0.00692672      -0.00272931      -0.00707643
H        2.31507074      11.70060596       1.15670197      -0.01735152      -0.00013354      -0.00031891
H        1.21725780      12.47672387       2.31519272       0.00347850       0.00889499       0.01020838
H        2.99332170      12.68601912       2.48089157       0.00711672      -0.00499448      -0.00852476
H        0.99356198       9.69074058       1.78569424      -0.00159850      -0.00460709       0.00333877
H        1.09041364       9.07891060       3.44804725      -0.01136191       0.00869632       0.00943193
H        0.15010733      10.57380868       3.08967671      -0.00276183       0.00723946      -0.00665743
O       10.02380746       2.48762074       1.07871521       0.00165063       0.00784874      -0.00689530
O        9.33747402       1.22093423       2.79139307       0.00349474       0.00415787      -0.00923479
O       11.32639634       0.82917404       1.83430969       0.01306105       0.02258158       0.00393263
C       10.21995847       1.51439936       1.90199715       0.00629216       0.01067638      -0.00339683
N        3.59521749       6.66161138       0.64215163       0.00850498       0.00844632      -0.00125957
H        3.63782461       5.90193779      -0.03015183      -0.00749723       0.00502781       0.00288761
H        4.26945684       7.35167714       0.33296908       0.01943506      -0.00405750      -0.00669331
H        2.66312289       7.07878322       0.54546661       0.01500995       0.02247433       0.00286563
N        8.17241300      11.95615593       0.33970408       0.00964764       0.00643253      -0.00373001
H        8.11495567      12.39692431       1.26020960       0.03931092       0.01080457      -0.00346100
H        8.05610679      12.72946642      -0.31085834      -0.00390069       0.00513134      -0.00149840
H        9.16115594      11.72762118       0.26131298       0.00414072      -0.00123549      -0.03230518
N       -0.62873611      11.01562871      -0.31279294       0.00428852       0.00152038       0.00743061
H       -0.60998528      10.09581670       0.11348065       0.03925910       0.00467177       0.00654621
H       -0.81213844      11.68498731       0.44547528       0.00036607      -0.00179216       0.00828119
H        0.30645994      11.23878889      -0.63528888      -0.00827372       0.02856047      -0.00858030
N        9.31719273       2.77115426       5.73648857       0.00207183       0.00013769       0.00025359
H        8.50103803       3.37077502       5.75855664      -0.00583170      -0.00171052       0.00316364
H        9.24152838       2.11703838       6.50929282       0.00687656       0.00429734       0.00254409
H        9.27480747       2.24080185       4.86432685       0.00554864      -0.00140119       0.00557601
N        2.98911991       0.35089772       9.63871764       0.00892937       0.00402328      -0.00495687
H        3.05116147      -0.63364173       9.40215719      -0.01302054       0.00910732      -0.02528597
H        2.13301172       0.47268476      10.18352536       0.01011604       0.01372730      -0.00529990
H        3.73369697       0.51646827      10.31919697       0.00919639      -0.02304758      -0.00208524
N        1.28895054       6.57711930       3.21781076      -0.00221891      -0.00148267      -0.00888041
H        0.70027122       5.79156997       3.47789674      -0.01448169       0.00267639      -0.02376270
H        0.85877530       6.98938967       2.39511083       0.02276136       0.00548164      -0.01721641
H        2.17566352       6.20425629       2.89444639       0.00831453      -0.00029615       0.02349751
N        1.88852060       3.05260248       2.00441630       0.00237188      -0.01280172      -0.00396138
H        1.56553328       3.84461876       1.45384190       0.00200289      -0.00182204       0.01341482
H        2.05321012       3.39227805       2.94695182       0.01566829      -0.02395644      -0.00304536
H        1.08323861       2.43095550       2.05420633      -0.00409516      -0.00499853      -0.00256234
N       10.27828346       8.73519229       1.32417102       0.00363705      -0.01456457       0.00768686
H       10.24049903       9.37160234       2.12397429      -0.01977444       0.00029340      -0.00687472
H        9.73862834       7.91636642       1.61462298       0.00345289      -0.01309008       0.01309248
H        9.72256278       9.17818463       0.59750816       0.01581626      -0.03334140      -0.01083406
N        2.39962664       7.58829719       9.48582611      -0.00558215      -0.00751856       0.00000282
H        2.88042575       7.85067306       8.63127846       0.00936107       0.00669663       0.00992795
H        2.10934924       6.61442403       9.40487328       0.00227137       0.00153863       0.00487434
H        3.06368825       7.63730779      10.24863562      -0.01347253       0.00691436       0.01736701
N        5.97675048      11.23173326       5.28158391      -0.01703331       0.00577104       0.01406133
H        6.21689918      12.03334487       4.69071211      -0.02017292       0.00628912       0.01313445
H        6.44546006      10.43260104       4.86891323      -0.04304837       0.00387248      -0.00761141
H        6.42106046      11.38992748       6.18115521       0.01348611      -0.01226132       0.00004660
N       11.01910576       5.37537970       7.41267600      -0.00001615      -0.00125445      -0.00272342
H       10.45500145       4.53575492       7.31024541      -0.00120449       0.00123112      -0.01752482
H       10.72439701       5.99791897       6.65893887       0.00604187       0.01069133       0.00491138
H       10.74136168       5.81622711       8.28421119      -0.00576896      -0.01492386       0.00148961
N        6.63717932      -0.00840845       9.11209146       0.00549585      -0.00142193      -0.00324473
H        7.60238726       0.28545208       8.99848322       0.00229149       0.01328389       0.00963536
H        6.47721200      -0.10625934      10.10972088      -0.00579862      -0.00292999      -0.00483656
H        6.06613301       0.77981020       8.82483768      -0.00146794      -0.01008394      -0.01046665
N        0.31547054       9.84347801       8.73216293       0.01531625       0.00717308       0.00548393
H       -0.19014173      10.13380101       9.56282863       0.00258032       0.00056643       0.00074575
H        0.83959095      10.65617803       8.42887949       0.02524380       0.00579639       0.02203559
H        0.98519494       9.13055927       9.02863234       0.00717968      -0.00071901       0.00173271
N        5.39693560       7.55846927       3.94127947       0.00153323      -0.00819474      -0.00385448
H        6.24192577       8.06117888       3.69298343       0.00064210      -0.01558466      -0.01598085
H        5.04521731       7.15031752       3.08132417      -0.01954155      -0.00465931       0.00255783
H        5.61972790       6.77552209       4.54875923       0.00785716      -0.01059410      -0.00868323
N        4.80953679       1.50054624      -0.34950893      -0.00527239       0.00616264       0.01146725
H        5.11656658       2.30008237      -0.89407493      -0.01555634      -0.00005275      -0.00742924
H        5.54646899       1.26145884       0.30341724       0.00639852       0.01028356       0.00698080
H        4.01013593       1.81028640       0.19490320      -0.00095692      -0.00275192       0.00724274
N        9.86074308       2.83642119      10.29172071       0.00203413       0.00475085       0.00368413
H       10.01362227       2.05896697       9.65589429      -0.00665031      -0.00154129       0.00705121
H        9.98261900       2.51952538      11.25786139      -0.00001146       0.00790115       0.00403266
H       10.58815513       3.51863999      10.11113686       0.00996401      -0.00586279      -0.00002860
N        6.89359931       9.27460221       1.59922232       0.00349806       0.00505313       0.00615057
H        7.24297121      10.03802154       1.01852228       0.00085797       0.00780096       0.01922303
H        5.95560655       9.06305797       1.28469476       0.00187540      -0.00895673      -0.00505669
H        7.46521142       8.45375977       1.42551005       0.00770513       0.00669213       0.01280824
N        4.17855078       3.54245885       9.30389635       0.00292465      -0.01500029       0.00113754
H        3.44006529       4.23583685       9.39995863       0.01324344      -0.00646994       0.01547688
H        3.72505161       2.64413168       9.46011884      -0.00111192      -0.01187789       0.00223947
H        4.41606346       3.51920067       8.31576759      -0.00682944      -0.01263947      -0.00129604
N        9.30483595       9.91193388      10.20481052      -0.00377437       0.00464773      -0.00513222
H       10.12830128      10.33471766      10.64427537      -0.00424774      -0.00896716       0.00504874
H        8.52112156      10.43526728      10.58344490       0.00306775       0.01272780      -0.00484811
H        9.34901402      10.12781775       9.21298243       0.00624420       0.01199298      -0.00318064
N       10.32885484       9.95255856       6.57978699       0.00544180      -0.00675879       0.00233564
H       10.76692610      10.35918840       5.75784057       0.00464511      -0.00090864       0.00541980
H        9.97193959       9.05389559       6.27109183       0.01715450      -0.00968451      -0.00287117
H       11.07865211       9.76097056       7.24934560       0.00132906       0.00231144       0.01025147
N       11.89680288       4.58458231       0.29812516      -0.00010546       0.00981432      -0.00039626
H       11.84673794       5.14222509       1.14692520       0.00366424       0.00479505       0.00309423
H       11.38485767       3.71998408       0.52861466       0.00102504       0.00908333      -0.00300349
H       11.31057317       5.07716263      -0.37215802      -0.00735911       0.01115384       0.00626882
N        7.69078834       3.95260324      12.35433514       0.00110704      -0.01140720       0.01050609
H        8.04675366       3.82314041      11.41068047       0.00367445       0.00327434       0.01027318
H        6.77153236       3.52660579      12.36533208       0.00144042      -0.01506319       0.00909505
H        8.31967641       3.36308113      12.91962235       0.00403337      -0.00757500       0.01043248
N        9.97016997       6.60495319      11.03123072      -0.00858051      -0.00288253       0.01171653
H        9.13654463       6.07014895      10.81706442      -0.00791880      -0.00297805       0.00548311
H        9.81433530       7.56559851      10.73057775      -0.00467826      -0.00858552      -0.00311842
H       10.00066852       6.64624410      12.04448343      -0.02233267       0.01117488       0.01106981
N       11.79416935       0.71179470       4.73917514      -0.00546731      -0.00454360       0.00649594
H       12.10187723       1.66313913       4.92408475      -0.00085030      -0.00758202       0.01311047
H       10.86935408       0.65013517       5.15015680      -0.00104769      -0.01353458       0.01503520
H       11.60128812       0.68742541       3.72699593      -0.01144282       0.00395902       0.00797135
N       11.05597522       4.23181464       3.53178873      -0.00197114       0.00365737      -0.00186128
H       10.53049620       3.74145045       2.80471143       0.00286386       0.00858845      -0.00867844
H       10.69611651       3.87673109       4.41703076      -0.01470597       0.00486093      -0.00666242
H       11.99401806       3.84789948       3.46488491      -0.00509259      -0.00435561       0.00707405
N        0.73938316       7.65724236      12.22885175       0.00819927       0.00306492       0.00237025
H        0.91353745       8.14729600      11.35573295      -0.00094519       0.00505219       0.00080110
H       -0.13912525       8.01202531      12.61611495       0.00761206      -0.00742269       0.00881298
H        0.54124119       6.70168186      11.94519657       0.01301359      -0.00002701       0.00754312
N        3.75606888       9.33591283       7.04459582      -0.01463771      -0.00094764       0.00705658
H        3.20257098      10.14809830       7.29250608      -0.01823464      -0.00228402       0.00239163
H        3.11548776       8.65300783       6.63804957      -0.00840401      -0.00119447      -0.00172296
H        4.38334665       9.65596555       6.31058537      -0.00625811       0.00324314       0.01572785
N        0.66525325       1.47407662      11.61324643       0.00298041       0.00558229      -0.01385137
H        1.09639903       2.38222875      11.75386586       0.01912455      -0.00342102      -0.01309683
H        0.12644997       1.30836262      12.47662768       0.00934281       0.00633932      -0.00900456
H       -0.05686400       1.64128063      10.91781877       0.00210859       0.02654807      -0.00777194
N        4.07263801       1.68026011       6.58219484      -0.00010885      -0.00367409       0.00286378
H        3.69459722       1.23603979       7.41828288      -0.00276694       0.00706653       0.00763940
H        4.64863079       0.98732571       6.11348978      -0.00423693      -0.01149611       0.01110522
H        3.28555193       1.84730424       5.96363548       0.00270124      -0.00641750      -0.00212297
N        9.26003299      10.61717291       3.62298251      -0.00690193       0.01562720      -0.00625901
H        8.96532878      10.70591213       4.59002081       0.01735120      -0.00543656       0.00108120
H        8.44605719      10.25963227       3.12733931      -0.01948974       0.02878755       0.00546226
H        9.39238326      11.58411120       3.29179916      -0.00804297       0.02104157       0.01013394
N        6.58082800       1.72665249       3.89335285      -0.00476781      -0.00323674      -0.00834195
H        6.84258905       2.02681589       4.82535377      -0.00993748      -0.00914201      -0.00528696
H        6.00922221       2.47839254       3.52456865       0.00443669       0.00074569      -0.01140498
H        7.45527551       1.69024104       3.35762868      -0.00253839      -0.01063143      -0.00536836
N       10.39142619       7.14362936       4.76318785      -0.00139286       0.00857674       0.00208350
H       11.23633122       7.70161267       4.82133794       0.01067381      -0.01001344      -0.00273487
H        9.77900615       7.64611955       4.12837759       0.00971356       0.02039499       0.00204317
H       10.65661304       6.28077576       4.28348609      -0.01942216       0.00254567       0.00384460
N        4.49180294       4.94505289       5.39180136       0.01228879      -0.01822520       0.01003212
H        3.65257909       5.50680441       5.49399924       0.01655002      -0.01241335       0.01940886
H        4.34190557       4.06724078       5.88003922       0.00618230      -0.01808502       0.00629665
H        4.57542821       4.70385620       4.40142827       0.00456647      -0.01227638       0.00804942
N        4.91748763       4.27055116       2.33702959      -0.00312349       0.00382338      -0.00786194
H        4.36075577       3.49341404       1.99330273       0.00289510       0.00150047      -0.01050062
H        5.85780238       4.17119431       1.97153340      -0.00193733       0.01200327      -0.01003304
H        4.52715445       5.10313475       1.89903614      -0.01185014       0.00143849      -0.00373987
N       10.49998954      12.73763519       8.07772337      -0.00720185      -0.00734586       0.01409471
H       11.25174794      13.18435373       7.56273887      -0.00845616      -0.01069111       0.00941477
H       10.25597744      11.90056686       7.54484861      -0.02242222      -0.00297152       0.01555560
H       10.91192124      12.39367083       8.93967267       0.00119179      -0.01467167       0.00598207
N        1.39657055       7.38496655       6.32015900      -0.00842845       0.00668176      -0.00145108
H        1.35052455       7.26067280       5.30761314      -0.02423897      -0.00203673       0.00094395
H        0.77802343       8.15138992       6.56944376      -0.00471545       0.00687794       0.00608624
H        0.96263029       6.56152980       6.72810709       0.00627921       0.00545011       0.00997117
N        1.17846341       3.46759005       6.19147388       0.00150211      -0.00815219       0.00026906
H        1.00081906       2.61327529       6.70968008       0.01674254      -0.00223406       0.01476365
H        0.48628267       4.14042199       6.52036148      -0.01382830      -0.01954782      -0.01128133
H        2.08052540       3.80112069       6.51425586      -0.00799214       0.01623125      -0.00203399
N        7.32138777       3.76935113       8.69625612      -0.00109255      -0.02438280      -0.01462410
H        8.11414134       3.36208055       9.19653671      -0.00198594      -0.00452161       0.00106801
H        7.20388656       3.24956209       7.83435372       0.01844000      -0.04260397      -0.00547132
H        6.47839927       3.58768139       9.23721804      -0.00314838      -0.02444304      -0.01876466
N        8.48119886       6.18447130       2.21831348       0.00152092      -0.00855094      -0.02317165
H        7.74961841       6.29699415       2.91295567       0.00446742      -0.01616410      -0.01920135
H        9.22436708       5.65773860       2.66950642       0.00715427      -0.00024166      -0.02429512
H        8.11096030       5.56787508       1.49129430       0.00296210      -0.01265810      -0.02202274
N        1.11593982       4.57561089       9.57151723       0.00270659       0.00411218       0.00998583
H        0.41188014       4.89700411       8.91106027       0.00008745       0.00019048       0.01084227
H        0.71447790       4.60376849      10.50690961       0.00126915      -0.00668582       0.00994816
H        1.27490087       3.59803405       9.35457021       0.01661448       0.00861599       0.00149393
