200
Lattice="12.232107189992826 0.0 0.0 0.0 12.232107189992826 0.0 0.0 0.0 12.232107189992826" Properties=species:S:1:pos:R:3:forces:R:3 energy=-90835.5625 stress="0.0009164034272544086 0.0006400659622158855 0.00010202331395703368 0.0006400659622158855 0.0006758053204976022 -0.00034173476160503924 0.00010202331395703368 -0.00034173476160503924 0.0013301605358719826" pbc="T T T"
N        5.67253998       8.22836210      10.06317990       0.00140260       0.00152954      -0.00692176
C        6.03790201       7.91783834      11.48124031       0.00322023       0.00754474      -0.00630695
C        4.90417389       9.50753914      10.00747022       0.00311998       0.00242245      -0.01186424
C        4.84275880       7.11621771       9.51137582      -0.00133777       0.00015968      -0.00059298
C        6.92664616       8.37776524       9.25973511       0.00127316      -0.00294855      -0.00806713
H        6.64146962       8.73367612      11.87007935       0.01063100       0.00576715      -0.01405211
H        5.12209629       7.80828425      12.05889811       0.00472039       0.01910588      -0.00202982
H        6.58009541       6.97262218      11.49435453      -0.00330403       0.00388241      -0.00098885
H        4.70660520       9.75338691       8.96716441       0.00359367      -0.00171289      -0.01294339
H        3.96897714       9.37181598      10.54414694       0.00352886       0.00658025      -0.00983061
H        5.50987887      10.29610009      10.45233245       0.00457962       0.00369561      -0.01583602
H        4.64807452       7.32898955       8.46213833      -0.00106817      -0.00559086      -0.00179929
H        5.40208783       6.18951713       9.63408465      -0.00425224      -0.00119518       0.00401742
H        3.90634080       7.06928765      10.06698377      -0.00152999       0.00596093      -0.00020520
H        6.65137238       8.67266636       8.24912181       0.00142068      -0.00953503      -0.00994377
H        7.52958855       9.16097749       9.72311485       0.00073786       0.00042956      -0.01283428
H        7.45365817       7.42589451       9.26901561       0.00225069      -0.00234199      -0.00185735
N        3.14446821      10.64413454       2.24656292      -0.00395236       0.00664556       0.00642434
C        2.42519716       9.42010212       2.70702089      -0.00366977       0.00516897       0.00379795
C        4.51138185      10.70276204       2.85591779      -0.00284636       0.00276911       0.00426641
C        2.36722761      11.85311651       2.65047627      -0.00011662       0.00733352       0.01195827
C        3.28436082      10.61325387       0.76307793      -0.00687868       0.00916686       0.00590312
H        3.04079581       8.55191600       2.47769050      -0.00299202       0.00687605      -0.00140491
H        2.28311977       9.49819630       3.78428922      -0.00119210       0.00081679       0.00449255
H        1.46189461       9.37218839       2.19666961      -0.00446385       0.00635242       0.00501912
H        4.96095400      11.65163721       2.57346877      -0.00032330       0.00167263       0.00390926
H        4.40733251      10.61997690       3.93514681      -0.00200346       0.00249067       0.00434047
H        5.09913730       9.86636556       2.48042223      -0.00682834       0.00058766       0.00307671
H        2.82821439      12.73102688       2.20992778       0.00301941       0.00804561       0.01656412
H        1.34977215      11.74020555       2.28818449      -0.00060849       0.01372594       0.01126557
H        2.37520300      11.91994740       3.73583963       0.00008238       0.00228937       0.01243031
H        3.85702368      11.49151181       0.46504698      -0.00659928       0.00872946       0.00559668
H        3.80409135       9.69349349       0.50549576      -0.00712297       0.00932142       0.00371361
H        2.29234322      10.62210627       0.31387254      -0.00807589       0.00932400       0.00829723
P        8.89392572       2.41077280       0.66258770       0.01344405       0.02914670      -0.00334629
O        9.97800785       2.35995418       1.91823149       0.01241356      -0.00736473       0.00140655
O        9.28971584       1.25079390      -0.25080325       0.00229716      -0.00675893       0.00082600
O        9.09193410       3.77868516       0.00577378       0.00014871      -0.02165771       0.01598823
O        7.53851970       2.23678562       1.31862375       0.00305176      -0.00400406       0.01491988
H       10.71848003       1.76978635       1.68996008       0.00457677      -0.00386298       0.00021624
N        3.54680960       5.63147587       0.49830374       0.00216499       0.00648293       0.00011848
H        4.37618912       5.48749159      -0.06747178       0.00233003       0.00388047       0.00092373
H        3.82994062       6.20336294       1.29265763       0.00309671       0.01668465      -0.00670259
H        2.88447525       6.16804696      -0.05769285      -0.00014171      -0.00120572      -0.00400684
N        9.11655122      11.24886861       1.87112418      -0.00819689       0.00268801      -0.01142019
H        8.17911686      11.07371401       2.21436544      -0.01183072       0.00672277       0.00101430
H        9.02602154      12.00121457       1.18322115      -0.00826211       0.00958426       0.00754630
H        9.62590179      11.64924467       2.65338646       0.00292780      -0.02089246      -0.00649056
N       -0.49361311      12.48770711       0.80300709      -0.00569621      -0.01135400      -0.00627746
H       -1.27321675      12.74795906       0.18083798       0.00188501      -0.01367521      -0.00256011
H       -0.64678621      11.52239179       1.06886325       0.00613267      -0.01171563      -0.00867557
H        0.37326374      12.54215085       0.28211399       0.00362247      -0.00594888      -0.00890902
N        9.41244241       2.14332977       5.14454007      -0.00224359      -0.00458103      -0.00068944
H       10.09015326       2.87106937       5.34311796      -0.01038702      -0.00212703       0.00575497
H        8.57950542       2.32942816       5.69738654      -0.00841356      -0.01061224      -0.00616472
H        9.16927078       2.24816040       4.16168108       0.00169076      -0.00055601      -0.00295784
N        3.20038690       0.10988137       9.98887968      -0.00876383       0.00302088      -0.00358246
H        4.16172230       0.01764633      10.30466562      -0.00388210       0.01073188      -0.01514751
H        2.72434441       0.70583692      10.66923835      -0.00635156      -0.00461364       0.00484026
H        3.26991661       0.68296365       9.15191375      -0.02309304       0.01039188      -0.00005679
N        1.83190514       6.39777900       4.10986413      -0.00161399      -0.00075564      -0.00095144
H        1.35690212       7.28331916       3.98542124      -0.00536273      -0.00275576       0.00345293
H        1.24022862       5.68793811       3.67796175      -0.00148802      -0.00310421       0.00172348
H        2.69562871       6.46177725       3.57728247      -0.00548166       0.00307041      -0.00754729
N        2.22770051       3.32581766       2.31826596      -0.00401402      -0.00421755       0.00441155
H        2.64518924       4.07716541       1.76564939      -0.00305569      -0.00420945       0.00561773
H        2.78364357       3.24753223       3.16408550       0.00392340      -0.01214065      -0.00166926
H        1.31573468       3.66814061       2.62561975       0.00038855       0.00072302       0.01560988
N       11.21553977       9.03748726       1.04585946      -0.00429112      -0.00694087      -0.00290197
H       10.44668872       9.64360773       1.35758831      -0.00044009      -0.00480815      -0.00370442
H       10.86986580       8.08329553       1.05121517      -0.01144002      -0.00730967      -0.00525324
H       11.37979965       9.26541473       0.07102527      -0.00333618      -0.00832292      -0.00230290
N        1.17709077       6.70289300       7.18387311       0.00185728       0.00473391       0.00709096
H        1.38858459       6.40162491       6.22878095       0.01559975       0.00790195       0.00916127
H        0.92663557       5.87053687       7.71366903       0.00326626       0.00152933       0.00081651
H        2.06793527       7.00837554       7.56158109      -0.00356371       0.00981943       0.01883878
N        6.27272397      11.37004200       7.42545970      -0.00532557      -0.00783336       0.00580368
H        7.26837749      11.38685426       7.22458887      -0.00657556      -0.00814056       0.00079588
H        6.19599259      11.76560935       8.36454073      -0.00142976       0.00671130      -0.00091358
H        5.86753334      12.06372520       6.80359236      -0.00927901      -0.01875658      -0.00602359
N       10.00975726       5.07692086       7.39849586       0.00222141       0.00071678       0.00760269
H        9.21479138       4.64646634       6.94267841      -0.00187425       0.00428841       0.00628911
H       10.46525333       5.66966971       6.71480034       0.00054505       0.00116800       0.00770915
H        9.66684509       5.66633902       8.15388744       0.00470056      -0.00276548       0.00988285
N        6.43849683       0.75596035      10.30044313      -0.01014994       0.00002803      -0.00695874
H        7.30794604       1.09688925       9.89189193      -0.01997739       0.00039643      -0.02384198
H        6.67111370       0.62906441      11.28269866       0.00614564       0.00182714      -0.01206845
H        5.82283528       1.56248508      10.27640598      -0.01348034       0.00142110       0.00323424
N        0.65850170      10.71151675       9.01518441       0.00245422      -0.00151799       0.00393936
H       -0.16533326      11.12144531       9.44133843       0.01263972       0.01082512       0.00775044
H        1.48554041      11.15740761       9.41836807       0.01134833      -0.01055708      -0.00242046
H        0.67619910       9.73634640       9.28685261      -0.00936071      -0.00171802       0.00936708
N        4.85214280       7.18819894       3.19242541       0.00219941       0.00448100      -0.00965817
H        4.66662020       7.73022989       4.03709077      -0.00225396       0.00254438      -0.01008257
H        5.65730762       7.63858556       2.75153376       0.01913448      -0.00792701       0.00738701
H        5.18859844       6.27898664       3.49600277      -0.01876482      -0.00229873      -0.00446624
N        4.77599761       1.42410336       0.94319399       0.00907052       0.00381520      -0.00819135
H        5.76837490       1.68638839       0.89311168       0.00831773       0.00964861       0.00742471
H        4.42569400       1.86966227       1.78459567      -0.00837007       0.01109830      -0.01404060
H        4.28273913       1.87916706       0.18265685       0.01856472      -0.01229273      -0.01676130
N        9.09134485       2.35022058       9.13270085       0.00529866      -0.00752289       0.00568224
H        9.50352938       1.52958980       8.68890210       0.00718760      -0.00308852       0.00665538
H        9.22434528       2.23002414      10.13917408       0.00199522      -0.00079075       0.00030352
H        9.64727878       3.14953547       8.85017246       0.01216856      -0.00192957       0.00229103
N        7.54800515       8.47036624       2.24414206      -0.00243938       0.00192548      -0.00639406
H        7.84627804       7.48899010       2.18175163       0.00458167       0.00218929      -0.00594463
H        7.84928009       8.77882340       3.16729862      -0.00570467       0.00399807      -0.00617225
H        8.13449047       8.99266841       1.60135426      -0.00675704       0.00488105      -0.00504734
N        3.61434384       3.38297119       8.46135389      -0.00290386      -0.00215909      -0.00967498
H        4.17081768       3.66631766       9.26019887       0.00436540       0.00155606      -0.01485810
H        2.65583622       3.65855754       8.66274026      -0.00068970      -0.00143844      -0.00412123
H        3.91959783       3.94840945       7.66865497      -0.00746926      -0.00480492      -0.01382974
N        8.88985478      10.74230930      10.77615750       0.00625737      -0.00026277      -0.00118740
H        9.52476049      10.25324328      11.39651564       0.00958835      -0.00708862      -0.00857498
H        8.88945500      11.70990383      11.10950650       0.00439960      -0.00950857       0.00557069
H        9.32305073      10.76381875       9.85833910       0.00926360       0.00789416      -0.00508121
N       10.08772650       8.62193519       7.79461483      -0.01259582      -0.00068867      -0.00472574
H       11.07669506       8.69554187       7.57112291      -0.01065743       0.00329439       0.00708765
H        9.69802733       8.01886910       7.07742575       0.00050849      -0.00423840      -0.00960601
H       10.03281727       8.07418467       8.65086859      -0.01964997      -0.00176050      -0.00534263
N       11.81518423       5.03856339       0.18652150       0.00768940       0.00426544       0.01331916
H       10.92315608       4.53714577       0.06812280       0.00183690       0.00010943       0.01294529
H       11.78408966       5.39757385       1.13766544       0.00613626      -0.00030335       0.01287347
H       12.53371026       4.32137837       0.22985287       0.00394638       0.00720868       0.00571375
N        6.57632944       4.42496926      10.86543473      -0.01034161      -0.01552390      -0.00076946
H        7.41564918       4.24877588      11.43990391       0.00280362       0.00302038      -0.00319018
H        6.79963376       3.97527670       9.98012691      -0.01095437      -0.02359710       0.00781853
H        5.87324655       3.83134015      11.29678233       0.00727140      -0.01963956       0.01914559
N        9.58283929       6.39278151      10.44028328       0.00356812       0.00051223       0.00418624
H        9.17159090       5.53740281      10.81855714       0.00673067      -0.00444335       0.00684868
H        9.16557177       7.14579823      10.97884144      -0.00243790      -0.00275657       0.00062721
H       10.54611977       6.34126942      10.76342817       0.00205405       0.00563276       0.00660798
N       11.46066111      -0.03158008       4.23342589      -0.00576556      -0.00317425      -0.00456907
H       12.29605776       0.09277515       4.79568050      -0.00087105      -0.00809870      -0.00965786
H       10.78003059       0.63789791       4.60219362      -0.00045293       0.00075260      -0.00087772
H       11.69757113       0.30627561       3.30358289      -0.01059266      -0.00722474      -0.00637713
N       11.72365681       4.39938509       3.59901944       0.00264217      -0.00154249       0.00579561
H       11.05082878       3.83327248       3.08532411       0.00610985      -0.00483518       0.00291798
H       11.24401236       5.24415656       3.89666539      -0.00122598       0.00054346      -0.00504352
H       12.00632149       3.88761266       4.43664861      -0.00517414       0.00356218       0.01046483
N        1.31530941       7.27848634      10.97651506       0.00130141       0.00000776      -0.00553878
H        1.05251845       8.17790910      11.36226826       0.00917550       0.00388998      -0.00853834
H        0.69422208       6.58726297      11.41004240       0.00135125       0.00555369       0.00634353
H        1.08253345       7.29750789       9.98913158      -0.01067981      -0.00561625      -0.00168727
N        4.11420348       8.78045632       5.91778270       0.00094581       0.01733480      -0.00208193
H        4.15634826       7.84390812       6.30020988      -0.00164255       0.01022215      -0.00489168
H        3.15712041       9.11575047       6.02101347       0.00518753       0.01985557       0.00978817
H        4.72723483       9.38108623       6.46152891       0.01086931       0.00680613      -0.00765233
N        1.59046546       2.22161411      11.75634428      -0.00231141       0.00364023      -0.00053598
H        1.98880837       3.01160262      11.25968892      -0.00330119       0.00567849      -0.00414661
H        1.75129951       2.39900688      12.75396104       0.00446790       0.00396806      -0.00197634
H        0.58747933       2.26857303      11.60941259      -0.00058194       0.00458881       0.00391726
N        3.38263635       1.08450654       6.00857730      -0.00691664       0.00221163       0.00518315
H        3.61069437       1.60258136       6.85528361      -0.00027445      -0.00283526       0.00731805
H        4.21349123       1.06025994       5.41454302      -0.01050200       0.01067327      -0.00161493
H        3.17685339       0.13325954       6.29403996       0.00158653       0.00000173      -0.00033372
N        8.67848407       9.99319165       5.04722189       0.01132526      -0.00000721       0.00420034
H        8.75160993       9.81123448       6.04286808       0.01103301       0.00200024       0.00305666
H        7.82744772      10.52882339       4.91487594       0.00870854      -0.00010978       0.00297785
H        9.45472958      10.60753910       4.81125337       0.00857295       0.00179175       0.00195182
N        6.04888967       1.59092797       4.18269576      -0.00612903       0.00184473       0.00185814
H        6.53739445       1.71000924       5.06822150      -0.00179634       0.01218658      -0.00358611
H        5.83730030       2.54319443       3.88775062      -0.01258078      -0.00150187      -0.00600934
H        6.73991752       1.29351181       3.49575105      -0.00762944       0.00187444      -0.00116245
N       10.77895534       7.62904906       4.14060921       0.00131264      -0.00125143       0.00113554
H       11.37026437       7.70065879       4.96193992       0.00186887      -0.00496361       0.00061261
H        9.96345231       8.21460519       4.31881785       0.00306829       0.00086972       0.00304377
H       11.28061784       8.09122008       3.38723656       0.00144616      -0.00114290       0.00081008
N        4.04359506       4.35655492       5.47865842       0.00422606      -0.00115656      -0.00155112
H        3.22614718       4.92604633       5.26956799       0.01813427       0.01420696      -0.01018626
H        3.72510035       3.39187521       5.46718120      -0.01576661       0.00480735      -0.00614606
H        4.67005541       4.44773011       4.68115373       0.01439329      -0.01491548       0.00374524
N        5.83342556       4.31313522       2.38443871       0.00164396      -0.00511548      -0.00038475
H        4.96353629       4.23939497       1.86857246       0.00232996       0.01017374      -0.00212083
H        6.45457623       3.57520979       2.01934751       0.00038750       0.00358542      -0.00705376
H        6.26772641       5.17966245       2.08095899       0.00559039       0.00403936       0.01428593
N       10.27668882      11.99534306       7.51873508       0.00657970       0.00038698       0.00478549
H        9.89573774      12.42700094       6.68053634       0.00851441       0.00341493       0.00351731
H       10.05994172      11.00227190       7.48559994       0.00048235       0.00268525       0.00339715
H       11.28676938      12.04171113       7.43934910       0.00618807      -0.00474751       0.00487755
N        1.01329998       9.74726990       5.99016711      -0.00158545       0.00326025       0.00230693
H        0.27833924      10.05168337       5.35729973      -0.00981000      -0.00609637       0.00790635
H        0.88287959      10.26722628       6.86025791      -0.00373975      -0.00017692       0.00376118
H        0.82547074       8.77693847       6.23778406       0.01109742       0.00017984       0.00279116
N        0.54043994       2.82231106       6.21029465       0.00249314       0.00207503      -0.00416625
H       -0.18097791       2.19243289       6.54322072      -0.00413638       0.00465526      -0.01158113
H        0.76588255       3.43169773       6.98911963       0.00497520      -0.00725221       0.00129344
H        1.36857044       2.26080122       6.02042676      -0.00128292      -0.00385028      -0.00508162
N        6.77430999       2.78940407       7.12177378      -0.00229205      -0.01078315       0.00284025
H        7.45769873       2.72503212       7.88440560       0.00274352      -0.01219833      -0.00222397
H        5.89722051       2.42052439       7.47308893       0.00150134      -0.01713802       0.00461002
H        6.58986997       3.76419061       6.91152044      -0.00821531      -0.00875973       0.01227585
N        8.66004897       5.61605314       2.34159246       0.00139813       0.00539774       0.00236835
H        9.51032130       5.98713991       2.75228536      -0.00774986       0.01620054      -0.00643315
H        8.90690235       5.03201413       1.53635336       0.00683358      -0.00174844      -0.00205350
H        8.27752323       4.97740841       3.03119706       0.01072105       0.00106457       0.00226761
N        0.20501087       4.22059385       9.18851002       0.00558236      -0.01416449       0.00288905
H       -0.62280639       4.42583552       8.62142577       0.00922525      -0.00513292       0.00090296
H        0.06974943       4.70495718      10.07262838       0.00304355      -0.02179883       0.00755727
H        0.13068273       3.23244319       9.40909315       0.00051486      -0.01544407      -0.00596046
