200
Lattice="13.310056622132404 0.0 0.0 0.0 13.310056622132404 0.0 0.0 0.0 13.310056622132404" Properties=species:S:1:pos:R:3:forces:R:3 energy=-1053241.375 stress="1.9514865925884806e-05 -0.0006850322824902833 -0.00039277179166674614 -0.0006850322824902833 -0.0001292714587179944 0.00047028312110342085 -0.00039277179166674614 0.00047028312110342085 -0.001037336653098464" pbc="T T T"
Tm      15.32944816      14.25819784       8.36535165       0.00259666      -0.00139685       0.00663447
Tm       7.60579909      10.88662571       8.23666220      -0.00386171      -0.01160288      -0.00401559
O        7.86334797      11.56488879       6.25467953      -0.01498884      -0.00305318      -0.00428939
O       10.25473415      10.99213219       5.01356410      -0.00806303       0.00317156       0.01168579
O        8.94169737      13.24247529       4.44370715      -0.00882155       0.00232673       0.00687283
O        7.95514259      10.91254840       3.64085646       0.00084770       0.00165176      -0.00491059
Cr       8.69461996      11.70960597       4.80512366      -0.00510001       0.00220618       0.00565088
Cr      11.75373882      11.83433688       4.43981461      -0.00390792       0.00053257       0.01753390
O       11.64009465      12.22628225       2.88844242       0.00536165      -0.00464696       0.01708829
O       12.01444311      13.13426161       5.34498676      -0.00626150      -0.00015187       0.01537526
O       12.93178876      10.78664494       4.67954801      -0.00540924      -0.00474834       0.02821574
O        6.92481074       8.96435212       7.33932061       0.00848055      -0.01689053      -0.00503540
O        5.74585342       7.17034137       9.10013747      -0.01092084       0.00014725      -0.00107849
O        7.66291504       9.13861053       9.73983369      -0.00817057      -0.00676008      -0.00028461
O        8.33519611       6.97468431       8.32699086      -0.00657111      -0.01913428       0.01623563
Cr       7.18107306       8.00501974       8.64108927      -0.00536627      -0.01167196       0.00443448
Cr       4.97615351       7.31024606      10.73933796      -0.01099741       0.00377163      -0.00162673
O        5.98024502       6.71197880      11.82763318      -0.00703275       0.01075137       0.00175989
O        4.68834923       8.84052694      11.03392063      -0.01287010       0.00646710      -0.00495139
O        3.59750052       6.46260490      10.69622428      -0.00709665       0.00214082       0.00417174
O        3.75597965      13.84880256       4.42695063      -0.00332814       0.00882396      -0.00417417
O        4.93115223      12.81868107       6.66784247       0.02061178       0.03922508      -0.00431108
O        6.28483656      13.15812433       4.30290967       0.00017327      -0.00363061      -0.03256235
O        4.55448504      11.22432198       4.41709935      -0.01862817       0.00089991       0.02385288
Cr       4.93133024      12.67717200       4.92950999      -0.01625517       0.01514137       0.00795954
Cr       5.12246786      12.53976474       8.35480433      -0.00075437       0.00243503      -0.00894362
O        5.16434607      10.93943734       8.54155110      -0.00846738      -0.00988096      -0.04598396
O        6.65729376      12.95076484       8.77487837       0.00011331      -0.01881310       0.01884416
O        3.83948075      13.34860226       9.10521377      -0.00152878      -0.01505750       0.00070673
O        2.33536622       4.47237119       9.65371676       0.00586209       0.00034696      -0.01103570
C        3.12392239       3.32427431       9.50248207       0.00696826      -0.00027412      -0.00350676
C        4.56631361       3.47241684       9.94177219       0.00620365       0.00386479      -0.00252873
H        2.66209993       2.49337446      10.08347260       0.00717443       0.00224429       0.00024074
H        3.12627549       3.05753892       8.41718018       0.00889039      -0.00541987      -0.00180119
H        5.10077360       2.53794520       9.76791269       0.00754115       0.00405276       0.00007201
H        5.05849601       4.26753682       9.38040332       0.00557526       0.00194128      -0.00556995
H        4.63263439       3.71513867      11.00265262       0.00487563       0.00828446      -0.00352576
H        2.85184700       5.17054915      10.14101558       0.00060511      -0.00018983      -0.00579220
O        0.13353221       2.31607267       8.29216447       0.00358969      -0.00401291       0.00603676
C        0.24941222       3.36441766       7.25555479       0.01012262      -0.00782433       0.00358871
C       -0.03532274       2.83343257       5.87526174      -0.01060206      -0.00473773       0.00677127
H       -0.44412674       4.15908559       7.52065643       0.02618691       0.00369254       0.00942998
H        1.25834217       3.77360792       7.33973978       0.01718110      -0.02361280      -0.00681554
H       -0.02573925       3.66801822       5.17306625      -0.00727776      -0.00523928       0.00601196
H        0.70498239       2.09997948       5.56081916      -0.02340302      -0.01423712       0.00089311
H       -1.01257016       2.35602376       5.82633177      -0.01727518       0.00894786       0.01743506
H       -0.77847627       2.43245409       8.64084755       0.00139639      -0.00043497       0.00096154
O        9.85496599      10.27848007       8.17912132      -0.00289573      -0.00215060      -0.00312972
C       10.84081817      11.33359530       8.16976815      -0.00316766      -0.00144818       0.00507803
C       10.14347360      12.63462063       8.45956569      -0.00627214      -0.00100589      -0.00370376
H       11.58982797      11.11356988       8.93184728      -0.01069316       0.00035587       0.01262102
H       11.32181079      11.35794244       7.19302925       0.00586033      -0.00320125       0.01019341
H       10.87454903      13.44299064       8.49375997      -0.00610667      -0.00097002      -0.00267543
H        9.43086910      12.89681982       7.67304039      -0.00142172      -0.00431754      -0.00894098
H        9.64342092      12.59908562       9.43342036      -0.01179875       0.00267550      -0.00695629
H       10.35885018       9.43947284       8.12510908      -0.00055897      -0.00164810      -0.00284702
O        8.00863735       7.93977414       3.17252911       0.00428331       0.01002872      -0.00001046
C        6.79621523       7.42317543       3.71393961       0.00366592       0.00427747      -0.00721055
C        7.01357995       6.84275648       5.09709016       0.00203386      -0.01655447      -0.01604092
H        6.02838743       8.20388668       3.74031264       0.00454724       0.00540113       0.00429950
H        6.44561338       6.64841690       3.02928554       0.00169930       0.01496470      -0.01773712
H        6.06537549       6.56451340       5.56181323       0.00149220      -0.02653989      -0.02409006
H        7.63872056       5.95414737       5.05147111       0.00406720      -0.01458547      -0.02991357
H        7.50280165       7.57607698       5.73251139      -0.00061236      -0.02659959      -0.00269240
H        8.07930285       8.86862619       3.43256687      -0.00008371       0.00980327       0.00014211
O        3.66064578       6.25012538       4.29015488      -0.00425816       0.00084060       0.00722673
C        2.95516966       5.06973732       4.63985887      -0.00339082      -0.00294983      -0.00112590
C        3.73005759       4.21229980       5.61846577      -0.00547582      -0.00690293      -0.00312251
H        1.96081132       5.31960062       5.03244985      -0.00497079      -0.00608340      -0.00281489
H        2.81515902       4.52670439       3.70421826       0.00009257       0.00174668      -0.00412840
H        3.19319005       3.28030649       5.81898865      -0.00485706      -0.00793109      -0.00915299
H        4.69664504       3.95478805       5.18835149      -0.00376549      -0.00388698      -0.00190865
H        3.88257431       4.74011038       6.56467908      -0.00816630      -0.01111653      -0.00020258
H        3.69342297       6.82226110       5.06216882      -0.00984909      -0.00265240       0.00802464
O        2.21046152      13.79217927       6.37375447       0.00200337       0.00900465       0.00428760
C        1.65707951      12.47712784       6.24921265       0.00148574       0.00912315       0.00093260
C        0.87936863      12.06841734       7.50190651       0.00178093       0.00388864      -0.00080517
H        0.97323861      12.45137702       5.40479992       0.00121957       0.01280930       0.00096840
H        2.45239945      11.74626838       6.06183381       0.00125992       0.01022705      -0.00281794
H        0.37546284      11.11854032       7.31577210       0.00194135       0.00501531      -0.00643019
H        1.52413222      11.89067645       8.38244386       0.00178711      -0.00058286      -0.00202302
H        0.07735661      12.79426879       7.71232231       0.00166088       0.00255033       0.00263285
H        3.04880464      13.91456487       5.18235955      -0.00011222       0.01175405      -0.00326937
O       10.75505630       4.74466104       6.42143783       0.00201984      -0.02108043       0.01065725
C       10.58236479       5.93156655       5.62856499      -0.00289181      -0.01659098       0.01893422
C       11.86957711       6.37166811       4.96234343      -0.00636429      -0.01103501       0.01590124
H        9.81133101       5.76486194       4.87245604      -0.00527340      -0.01447177       0.02085140
H       10.21025864       6.71123153       6.29664510      -0.00158809      -0.02104568       0.02466559
H       11.70627657       7.29010797       4.39668732      -0.00826120      -0.00298741       0.02981979
H       12.64979959       6.55526655       5.70438858      -0.00092510      -0.02283064       0.01311103
H       12.22799765       5.62254286       4.25493106      -0.01290252      -0.00193980       0.00352116
H       10.42579959       3.97447906       5.92854542      -0.00653310      -0.01808088       0.01088677
O       11.97724197       8.56965237       8.47110163       0.00076653       0.00165001      -0.00165272
C       11.96310109       8.40882472       9.90216701       0.00036427       0.00022998      -0.00006828
C       10.90981843       7.42020301      10.33572637       0.00584102      -0.00611353      -0.00127552
H       12.95952273       8.10658752      10.23481412       0.00210369       0.00525893       0.00005139
H       11.74818444       9.39369043      10.31997652      -0.00495911      -0.00157934       0.00038464
H       10.87460097       7.32936775      11.42009971       0.00639393      -0.00787181      -0.00124991
H        9.92257566       7.72903914       9.99437284       0.00421494      -0.01104799      -0.00063329
H       11.10372203       6.43139030       9.91583251       0.01133623      -0.00451691      -0.00247792
H       12.46912344       7.81462902       8.11619063       0.00327432       0.00324923       0.00010940
O        9.21404859       2.53167642       5.79390473       0.00338554      -0.00298846      -0.00655499
C        7.98499056       3.25858087       5.89905910      -0.00194657      -0.01176391      -0.00298575
C        6.89874474       2.50031365       6.63057279       0.00539136      -0.02468646      -0.00680843
H        8.24351894       4.16878795       6.44375625      -0.00916754      -0.01182038       0.00033566
H        7.62646328       3.55207635       4.90677205      -0.00472885      -0.01093020      -0.00195956
H        6.06543938       3.17300380       6.84166513      -0.00607292      -0.03680342      -0.01436227
H        6.52514531       1.67649169       6.02435352       0.02247994      -0.03201091      -0.00557025
H        7.26298557       2.10238696       7.57645310       0.00560872      -0.01629617      -0.00270493
H        9.08130342       1.71193124       5.28752908       0.00740063      -0.00437383      -0.00345632
O        0.91146515       6.56810749       8.18776973      -0.00548691       0.00195092      -0.00402445
C        2.10157329       7.26358202       7.79505892      -0.00431427       0.00070697      -0.00210116
C        2.22110947       8.60573980       8.48208444      -0.00248517      -0.00086820       0.00044382
H        2.97660319       6.64854080       8.02054666      -0.00574267      -0.00098741      -0.00428355
H        2.05247023       7.39810452       6.70875817      -0.00503222       0.00328911      -0.00217992
H        3.09138949       9.14917205       8.10756318       0.00038145      -0.00275369       0.00364413
H        1.32532817       9.19889697       8.29565271      -0.00000529       0.00240089      -0.00015803
H        2.34737042       8.47798510       9.55680986      -0.00516038      -0.00356966       0.00039524
H        1.18109402       5.81772665       8.73597292      -0.00640870      -0.00087395      -0.00501722
O        5.51104700       2.60964724       3.31429378       0.00151849       0.00931323      -0.01246393
C        6.56441442       2.13634722       2.47793958      -0.00088552       0.00815296      -0.01081204
C        6.10134714       1.11374234       1.45707147       0.00156277       0.01250464      -0.01712745
H        6.94960174       3.02112203       1.96857658       0.00167890       0.00860018      -0.00531885
H        7.36895132       1.70354287       3.08485911      -0.00254500       0.00425652      -0.00846100
H        6.93648602       0.83002610       0.81360265      -0.00377242       0.01501333      -0.01574946
H        5.74293416       0.20787420       1.94703629      -0.00579793       0.01427926      -0.01938424
H        5.30748678       1.51974710       0.83064058       0.00329183       0.01763006      -0.01419034
H        4.99110580       1.85959902       3.63449142      -0.00316186       0.00445100      -0.00817643
O        9.58893476      10.47997251      11.37378277      -0.00562477       0.01370370      -0.02006868
C        8.80951449      11.43780793      12.07852459      -0.00275036       0.00518811      -0.00600672
C        9.73230573      12.50343186      12.61703850      -0.00097305       0.00028053      -0.00082564
H        8.05987747      11.88996280      11.40664472      -0.00731796       0.01069546       0.00313979
H        8.25509860      10.96721033      12.89802315       0.00276217      -0.00439671      -0.00768256
H        9.15258644      13.30606406      13.07265229       0.00048248      -0.00464657       0.01079953
H       10.40472319      12.09812592      13.37209842       0.00336206      -0.00555521      -0.00825281
H       10.34211805      12.92465514      11.81600958      -0.00583386       0.00932941       0.00000390
H        8.99936803       9.79281866      11.03296422      -0.00496589       0.00812463      -0.01225199
O       12.01420943       7.36463908       1.54157005       0.00250721      -0.00258487       0.00557947
C       10.73211335       7.91521970       1.26221620       0.00744635       0.00592268       0.00037033
C       10.55931508       9.32275769       1.78551776       0.01277974       0.00488985       0.00512218
H       10.52358220       7.88490946       0.18571130       0.01405165       0.01173287      -0.00104040
H       10.01018081       7.25586385       1.74832871       0.00050914       0.00868243      -0.00672221
H        9.55522957       9.68807116       1.56097335       0.01633596       0.01191486       0.00096215
H       10.69573659       9.35649821       2.86676234       0.00642551      -0.00062743       0.00612004
H       11.28013289      10.00665363       1.33579744       0.01945385       0.00255698       0.01248875
H       12.70951244       7.98044512       1.27187794       0.00729582      -0.00492842       0.01322856
O        5.75519262       4.38683122       0.10732580      -0.01091683       0.00960859      -0.00248125
C        4.42760983       4.33440898       0.61247230      -0.01230717       0.00772485      -0.00567415
C        3.82598450       5.69494195       0.89597486      -0.00962588       0.00706440       0.00349085
H        3.77861328       3.78841222      -0.09228198      -0.01226190       0.01509398      -0.01128948
H        4.47694476       3.74140167       1.52815121      -0.01478928       0.00053090      -0.01069266
H        2.82275013       5.58573042       1.31200144      -0.01058170       0.00593513       0.00191019
H        4.42618079       6.24637846       1.61895320      -0.00944448      -0.00021864       0.00862738
H        3.73993514       6.28460774      -0.01661736      -0.00763223       0.01353289       0.00790530
H        5.84797154       5.17103854      -0.45814994      -0.00987035       0.01010185       0.00014985
O       12.76888320       0.60231327       1.04056625       0.00113165      -0.00871402       0.00922519
C       11.78970689       1.61096733       1.14309888       0.00322396      -0.00692928       0.01010248
C       11.91885158       2.44313994       2.40833870       0.00537442      -0.00755459       0.01023024
H       11.91690518       2.24382409       0.26330333       0.00408722      -0.00711653       0.01012689
H       10.78047191       1.18147542       1.09918880       0.00226313      -0.00491956       0.01043653
H       11.17311877       3.24333307       2.42044105       0.00715733      -0.00602511       0.01068711
H       11.76462833       1.81776074       3.28897488       0.00479864      -0.00712523       0.01019755
H       12.91056864       2.89395067       2.46579313       0.00649197      -0.00951080       0.00965545
H       12.52514434      -0.08526060       1.68589299       0.00178960      -0.00731263       0.01147509
O        9.77602048       5.31878965      12.51636052       0.01298171      -0.00393659       0.00500667
C       10.82364658       4.42380141      12.16681591       0.01395851      -0.00370811       0.00382954
C       12.17978367       4.83422600      12.70071820       0.01231110      -0.00416592       0.00824916
H       10.57266818       3.40649069      12.49375954       0.01289509      -0.00396687       0.00025663
H       10.84210974       4.41230493      11.07813234       0.01601315       0.00013841       0.00427192
H       12.93781549       4.11456955      12.38442937       0.01372550      -0.00249453       0.00835996
H       12.45817345       5.81781616      12.32377849       0.01196084      -0.00265971       0.01230855
H       12.18546481       4.89249790      13.78918176       0.00942433      -0.00745476       0.00881132
H        9.67181959       5.31562193      13.47189002       0.01883513       0.00150985       0.00495839
O        1.36029005       8.63813209       1.80855280      -0.01788791       0.01042132       0.00909913
C        1.15037643       8.37672571       3.19409169      -0.00715464       0.00380751       0.01012456
C        2.10234987       9.13707914       4.08703056      -0.00179565       0.00345397       0.00485343
H        0.12446385       8.66494061       3.42783797      -0.00578988       0.00056329       0.01846619
H        1.24281812       7.29674712       3.36769307      -0.00264217       0.00377756       0.00552323
H        1.82938462       8.99165624       5.13432969       0.00602841       0.00174613       0.00616361
H        3.13170895       8.81191020       3.93646830      -0.00260571       0.00427218      -0.00287025
H        2.04212682      10.20404281       3.88025993      -0.00423130       0.00395095       0.00672515
H        2.21426467       9.08898255       1.70846760      -0.01770860       0.00441720       0.00258756
O       10.81625445       3.23672417       8.91121261       0.02199098      -0.00179386      -0.00530076
C        9.65016290       2.49367970       9.30832503       0.01270139       0.00955945      -0.00811738
C        8.49753698       3.33202278       9.82467903       0.01663971       0.02371269      -0.02195439
H        9.31374224       1.88789589       8.46423768       0.01437716       0.00640553      -0.00716436
H        9.99678984       1.81526578      10.09095012       0.00189510       0.01354629      -0.00104091
H        7.67340596       2.65757972      10.07219039       0.01269384       0.03877243      -0.01794680
H        8.74482165       3.89686088      10.72105082       0.02020517       0.03198102      -0.02868646
H        8.13949811       4.03151588       9.06754356       0.03229507       0.02188390      -0.03081824
H       10.58644536       3.81820962       8.16373504       0.03092243      -0.00056613      -0.00809515
O        3.87883669      10.04020099       1.72208152      -0.00661606       0.00641458       0.00534886
C        4.75291413      10.06703481       0.59209552      -0.00645673       0.01071900      -0.00035831
C        6.03241763       9.28936771       0.81063659      -0.00914371       0.00603241      -0.00311550
H        4.18344136       9.63403532      -0.22732101      -0.00637150       0.01743454      -0.00308579
H        4.97818617      11.10522377       0.31712255      -0.00461337       0.01194656       0.00920162
H        6.60094741       9.24213296      -0.12020815      -0.00845799       0.01110309      -0.00287223
H        6.65551006       9.75152877       1.57869460      -0.00784788       0.00046378       0.00037761
H        5.81803854       8.26446757       1.11053952      -0.01128696       0.00521792      -0.00997727
H        4.31985633      10.40934806       2.49849801      -0.01250282      -0.00095707      -0.00304756
