200
Lattice="13.140074786610308 0.0 0.0 0.0 13.140074786610308 0.0 0.0 0.0 13.140074786610308" Properties=species:S:1:pos:R:3:forces:R:3 energy=-1041660.9375 stress="-0.0003883058379869908 0.00019789145153481513 3.396912006792263e-06 0.00019789145153481513 -3.08255257550627e-05 0.0007559718214906752 3.396912006792263e-06 0.0007559718214906752 -0.0011667103972285986" pbc="T T T"
Yb       5.91195081      12.47444722       3.97389170      -0.00199911       0.00643153       0.02048418
Yb       1.98903652      13.13544854       4.47230368      -0.00150289      -0.00375456       0.00157365
S        6.00144609       8.35179216       4.66326021       0.00386733      -0.00516075      -0.00250477
S        9.46124303      11.96955961       6.17229034       0.00164819      -0.00592923       0.00502087
S        7.41231991      10.08781404       4.26627589      -0.00319716       0.00237410       0.00530685
S        7.42345362      11.13997308       6.05767438       0.00133485      -0.00585914       0.00991359
O        5.25466111       8.81042464       5.81166564      -0.00482416      -0.00767606      -0.00239933
O        9.67984507      12.60898584       4.86842642      -0.00089696      -0.01258284       0.00112367
O        6.86339253       7.21626824       4.87316349       0.00252324       0.00179851      -0.00370523
O        5.29796302       8.39137477       3.39584422       0.00498152       0.00007781      -0.00503337
O        9.21339078      12.89659656       7.25231639       0.00018328       0.00382036       0.00018066
O       10.34068552      10.86057405       6.42497046       0.00219595       0.00078934       0.01178640
S        9.79530633       5.59515877      10.91362417      -0.00201988       0.00944126       0.00118445
S        7.34762734       9.40294908      10.10435964       0.00240731       0.01261285       0.01110223
S       10.23268581       7.75126563      11.08226954      -0.00289616       0.00874466      -0.00133211
S        9.38730251       8.73436385       9.54238067      -0.00516617       0.00453885      -0.00237034
O       10.43732679       5.16633625       9.67963869      -0.00056869       0.00754204       0.00228524
O        7.48329076       9.97740902      11.44770208       0.01727907       0.01282847       0.00981545
O        8.35967303       5.46193124      10.93821642      -0.00068355       0.00700894       0.00116533
O       10.48718965       5.16424884      12.13114987      -0.00076842       0.01256764       0.00248110
O        7.17757596      10.36886574       9.04153749      -0.00172749       0.01539814       0.01171601
O        6.51090071       8.22637612      10.05265269      -0.00434661       0.01947260       0.01873965
S        5.30725983       2.17132906       6.09539370       0.00107783       0.03579983       0.01423767
S        2.59000279       5.47036033       6.47888310       0.00526418       0.00875759      -0.00084117
S        3.30539993       2.54589678       5.36957782      -0.00613448       0.00234395      -0.00998944
S        2.34838923       3.32384240       6.94942681      -0.01268503       0.00577360      -0.01532084
O        5.12978656       1.21795605       7.18498450      -0.01705894      -0.00797647       0.00816125
O        1.20654655       5.89561471       6.28504682       0.00723839       0.02536407       0.00276220
O        5.89293208       3.42892860       6.42193336      -0.02785126      -0.01752537       0.01955247
O        5.86060769       1.49952907       4.89796261       0.00825622       0.00949877       0.01303247
O        3.18649859       5.98379817       7.69690937       0.00567132      -0.00264698       0.00343364
O        3.41164565       5.52411941       5.29164755       0.00310516       0.00607290       0.00120783
O        1.19055167       9.55369016       7.26382499      -0.00441593       0.00753389       0.00026876
C        2.23243126       8.97987664       8.07036952      -0.01173799      -0.00678765      -0.00057381
H        1.87614255       8.08886663       8.58190343      -0.02020411      -0.00829238      -0.00910626
H        2.61371680       9.70545930       8.79079214      -0.00885312      -0.01569381       0.00674206
H        3.03601088       8.67776677       7.40446109      -0.01143762      -0.00716787       0.00017679
H        0.35746337       9.54684849       7.74250181      -0.00480089       0.01506044      -0.00028285
O        7.88553016       0.36635631       3.21227592       0.00149632      -0.01283664       0.00676355
C        8.09680428       1.77190004       2.95588665       0.00948183      -0.01887388      -0.01593321
H        7.91103050       2.36018207       3.85187005       0.02836277      -0.00619791      -0.02057764
H        7.39976581       2.07662145       2.17836334       0.00042041      -0.02266835      -0.00909171
H        9.10433188       1.94151084       2.58600551       0.00490034      -0.03097689      -0.03366905
H        8.61682953       0.05471841       3.81406642       0.00054720      -0.00915449       0.01076047
O       10.50193619      11.13862687      11.77082477      -0.00870917       0.00687158       0.00012510
C        9.78781048      12.21200302      11.12983022       0.00092254       0.00935096      -0.00552619
H        8.73904392      12.19433834      11.41015511       0.00131547       0.02193460      -0.00382258
H        9.86253381      12.14132377      10.04426155      -0.00192083       0.00191505      -0.00527066
H       10.23718546      13.14221158      11.46794108       0.01059981       0.00691229      -0.01200718
H       10.01552659      10.32653514      11.58418070      -0.02502616       0.01253961       0.01779537
O       10.99340857       7.17018672       3.24365006       0.00161394      -0.00056267      -0.00281301
C        9.98130716       7.86373602       3.98582420       0.00028580      -0.00934267       0.00363574
H       10.35553739       8.82039946       4.36270530      -0.00332211      -0.00918940       0.00675796
H        9.61375382       7.26190218       4.81734867       0.00649445      -0.01487419       0.00222683
H        9.16751892       8.05332800       3.29127048      -0.00307581      -0.01050387       0.00743771
H       11.81737295       7.13281278       3.76810018       0.00245742      -0.00169610      -0.00430429
O        9.94826808       2.68362585       0.33231455      -0.00759596       0.02190366      -0.00062227
C       11.20155709       2.36508852       0.88641578      -0.00348204       0.01321195      -0.01596364
H       11.04301740       1.67203112       1.71564341       0.00315081      -0.00433597      -0.02969462
H       11.71689388       3.24393049       1.28000549      -0.00261152       0.00592309      -0.00106806
H       11.87319856       1.87343296       0.17160957      -0.00684333       0.02961209      -0.03009769
H       10.05741434       3.48708744      -0.20286134      -0.00864993       0.02395696       0.00205146
O        3.12476215       9.20360595       0.94362003       0.01130138       0.00992602      -0.00215591
C        3.24348328       7.80591675       1.14285761       0.00790988       0.00874370      -0.00909311
H        4.28570481       7.48284105       1.16054157       0.00716561       0.00669669      -0.00702509
H        2.70779682       7.24346081       0.36664035       0.00989047       0.01391892      -0.01413938
H        2.80796128       7.56064128       2.11225788       0.00381330       0.00441842      -0.01205826
H        3.86430543       9.51334582       0.39318210       0.01546831       0.01189810       0.00442108
O        7.97323696       0.93492122       9.80784856      -0.00406726       0.00442648      -0.00776243
C        7.89909808       2.34993021       9.84467662      -0.00180170       0.00491661      -0.00849289
H        8.81006885       2.82724597       9.46973599      -0.00070518       0.00275524      -0.00823149
H        7.77710646       2.63293620      10.88903087      -0.00145519       0.00507318      -0.00856376
H        7.04265913       2.73668329       9.28237009      -0.00067270       0.00634542      -0.00901955
H        8.18694862       0.64473342       8.91558187       0.00152223       0.00388315      -0.00579637
O        5.32104934      10.58166317      -0.01981003       0.01293409       0.01058318       0.01017654
C        5.94293853      10.72474046       1.24227027       0.01404974       0.01698104       0.00889140
H        6.49396406      11.68147700       1.30648355      -0.00767323       0.02889639       0.01313735
H        6.64502649       9.91812483       1.45841139       0.03301793       0.03133839       0.00042164
H        5.14025631      10.67340434       1.99569595       0.01910335      -0.00563961       0.01211584
H        6.01709236      10.35733790      -0.67452111       0.01299636       0.01256191       0.00976764
O        1.06712513       3.63740167      13.71489979      -0.00017887      -0.00061715       0.00188303
C        0.38668369       4.57904154      12.87859214      -0.00017032       0.00041209       0.00319382
H       -0.02087301       4.11134769      11.98145075      -0.00235707       0.00106952       0.00388953
H        1.05368486       5.39508872      12.58109900       0.00041705      -0.00054872       0.00219664
H       -0.43868705       4.99012505      13.45106461       0.00155514       0.00149148       0.00476351
H        1.68342872       3.16913212      13.14675392       0.00108247       0.00129230       0.00172354
O        8.67227146       6.40921399       7.32363178       0.00682503       0.00550598      -0.00328434
C        7.57649772       5.56107190       7.67109378       0.00406799       0.00784996      -0.00534946
H        6.65704975       5.91401613       7.20133125       0.00436461       0.01449028      -0.00054178
H        7.44090160       5.50970976       8.75020334       0.00680509       0.00235283      -0.00521022
H        7.80159343       4.56757426       7.29392240      -0.00137739       0.00921637      -0.01138406
H        8.69711119       7.14280446       7.95280346       0.01110983       0.00189236       0.00007474
O        3.99990805       2.34297436      10.40048523      -0.00630897      -0.00689948      -0.00251156
C        3.04053116       2.73078231      11.35561607      -0.00370154      -0.00736052       0.00006208
H        3.49276642       3.34520980      12.14800488      -0.00049995      -0.01331957       0.00293061
H        2.63404671       1.82005897      11.80565970      -0.00828939      -0.00767645      -0.00436503
H        2.20875985       3.29163960      10.90863336      -0.00141543      -0.00136060       0.00358379
H        4.34769036       3.18428809      10.02117974      -0.00395918      -0.00670291      -0.00115867
O        1.65812530      10.84930519       5.05203737       0.00462922      -0.00127959      -0.00295162
C        2.35050076       9.83693780       4.28757383      -0.00457960      -0.00415686      -0.00688973
H        1.64748222       9.08635703       3.92903066      -0.01328230       0.00837338      -0.01516770
H        3.12579154       9.36285765       4.88762095      -0.01416188      -0.01854138      -0.00602004
H        2.82577836      10.30554815       3.42335811       0.00703665      -0.00427374      -0.00071481
H        1.40604382      10.42287848       5.91164090       0.00161855       0.00035164      -0.00313145
O        8.44718653       8.55346685      14.24508262      -0.00021696      -0.00553751       0.00726756
C        7.79595555       7.54374231      13.48414538      -0.00595942      -0.00185594       0.00721079
H        6.78103512       7.47027415      13.87387588      -0.00424144      -0.00030862       0.01171789
H        8.29122518       6.57488314      13.58564360      -0.00784332      -0.00332487       0.00253328
H        7.73531127       7.79343647      12.42790710      -0.00957412       0.00119513       0.00804043
H        9.35318694       8.65508313      13.92381871      -0.00165297      -0.00613772       0.00348365
O        0.02102036       4.38875085       9.47680961      -0.00370905      -0.00477040       0.00826806
C        0.49196593       5.71509119       9.62757856       0.00143883      -0.00624561       0.00515606
H       -0.05253704       6.25041768      10.41441889       0.00439468      -0.00268717       0.00475967
H        0.40660502       6.27698823       8.69442495       0.00218105      -0.00768879       0.00433183
H        1.54840522       5.66687833       9.89379437       0.00152758      -0.00950112       0.00419228
H       -0.94647898       4.45575463       9.43043295      -0.00342143      -0.00086316       0.00769316
O       11.57584877      11.35815339       2.29896783       0.00399402       0.00041167       0.00803103
C       10.27663644      11.79215742       1.89967839       0.00638101       0.00446312       0.00506765
H        9.51689184      11.32075663       2.52466750       0.00256780      -0.00392389      -0.00618079
H       10.09683323      11.55253149       0.85149346       0.01326823       0.01829992       0.00078315
H       10.22287254      12.86841200       2.03518318       0.00472465       0.00240901       0.01976576
H       11.64255434      10.41597208       2.00902458       0.00359695       0.00162173       0.00390966
O        0.70675949      12.50616105       2.55092710       0.00419334      -0.00346440       0.00129975
C        1.31297230      11.65415410       1.55548317       0.00018258      -0.00673219       0.00184746
H        0.99243379      10.62494167       1.68995576      -0.00317064      -0.00542748       0.00411692
H        2.39376344      11.67280447       1.67774307       0.00019608      -0.00972360       0.00065780
H        1.04957707      11.98185743       0.55075313      -0.00187975      -0.00755577       0.00220740
H       -0.26060039      12.20727397       2.54309703       0.00349477      -0.00182575       0.00341128
O        4.08858604       0.63829656       2.76205619       0.00210525       0.00212222       0.00220226
C        3.92222594       0.59160487       1.30804660      -0.00018038      -0.00957977       0.00283867
H        4.11339342      -0.41554232       0.94946484       0.00013556      -0.01210225       0.01057912
H        4.63252356       1.28106809       0.85808117      -0.00141644      -0.01317079      -0.00456511
H        2.90579937       0.88573610       1.04641249      -0.00078288      -0.01273981       0.00169987
H        4.39914458       1.62613112       2.90151113      -0.00075670       0.00481653      -0.00646485
O       11.94433756       3.32640012       6.15688845      -0.00002444      -0.00540683      -0.00161767
C       10.58726824       3.20636938       5.73368947      -0.00160035      -0.00782982       0.00403546
H       10.45421512       2.19650979       5.34760443      -0.00282627      -0.00940084       0.00850090
H       10.35009359       3.93688601       4.95580695      -0.00469369      -0.01112571       0.00198162
H        9.90256947       3.34631081       6.57267545       0.00216550      -0.00462238       0.00631669
H       12.07460826       4.24532683       6.45988001      -0.00078313      -0.00501262      -0.00254737
O        2.68926393       0.43737017       8.86629141      -0.01306069      -0.00856715       0.00408253
C        1.37975217       0.60193965       9.37733851      -0.01305097       0.00404306       0.00094052
H        1.03748363       1.64124964       9.32254708      -0.00291538       0.00700593       0.00021134
H        1.28877799       0.24797968      10.41061977      -0.01876679       0.00618878       0.00118387
H        0.71029565      -0.00898760       8.76779995      -0.01630016       0.01113825      -0.00223392
H        3.27105617       1.09358410       9.29825469      -0.01032579      -0.00878780       0.00015014
O        0.44225454       6.97480557       3.92773950      -0.00075743       0.00147122      -0.00266194
C        0.58487319       5.96528280       2.93873825       0.00859506       0.00149587      -0.00126249
H       -0.20159335       5.21064914       3.02390001       0.00773513       0.00152534      -0.00921875
H        1.56013083       5.48119989       3.00283569       0.00771651       0.00122736       0.00876384
H        0.49545522       6.43609789       1.96337068       0.01854864       0.00172634      -0.00202784
H        0.72079133       6.59099596       4.78541427       0.00108655       0.00566475      -0.00161204
O        4.87495906       3.01837828       2.66389352       0.00010169       0.00111525      -0.00833273
C        3.88805097       4.00132037       2.33152736       0.00739428       0.00718469      -0.01237291
H        4.27951882       4.69204494       1.58161183       0.00750591      -0.00625087      -0.02481794
H        3.59459770       4.55669734       3.22222742       0.02167594       0.02138442      -0.01666895
H        3.01848120       3.49451551       1.91818374      -0.00213832       0.01171425       0.00225675
H        5.56858119       3.48642577       3.20776043      -0.00100431      -0.00231619      -0.00242819
O       11.44296011       8.88426024       1.33013523      -0.00006658       0.00312571       0.00098200
C       12.58637351       8.54710518       0.55493280      -0.00423867      -0.00185915      -0.00275138
H       12.42854082       7.61519515       0.00402562      -0.00829907      -0.00399256       0.00212146
H       13.47908461       8.44784781       1.18033586      -0.00143617      -0.00077824      -0.00655350
H       12.75944121       9.35633819      -0.15216340      -0.00632712      -0.00521246      -0.00698301
H       11.30737630       8.18269103       2.03015484      -0.00103576       0.00296439       0.00095563
O        4.63039594       4.84159041       9.72417095       0.00964282      -0.01115638      -0.00401819
C        4.52533281       5.81246005      10.75955749       0.01460095      -0.01148045      -0.00339872
H        3.52650319       5.80701163      11.21588168       0.01603296      -0.01046382      -0.00026102
H        4.74948537       6.81095191      10.38679079       0.01476127      -0.01133734      -0.00302860
H        5.26591415       5.56912219      11.52045159       0.01657271      -0.01315078      -0.00589168
H        4.21286586       5.20495118       8.92474270       0.00775119      -0.00988578      -0.00255099
O        4.10643239      12.43807976       5.78816251      -0.00044362       0.00860521       0.01453692
C        4.00311770      11.44236061       6.87812246      -0.00160208      -0.00864226      -0.00372055
H        3.02464220      11.53130223       7.33559352       0.00454322       0.00428665       0.00555722
H        4.76656273      11.67473092       7.61733755       0.01276466      -0.04326822      -0.00744018
H        4.18570767      10.46393306       6.45755776      -0.02256406      -0.00327265      -0.02399170
H        4.42680431      13.22982437       6.32257424      -0.02183961       0.00885913       0.02731338
O       11.22654922       6.00391959       6.65773163       0.00472481      -0.00579393       0.00083974
C       11.60817390       7.32968899       6.97911165       0.00451155      -0.00681001       0.00571164
H       12.53577283       7.55499655       6.45826470       0.00883311      -0.00775051       0.01342699
H       11.77520712       7.44686229       8.05781778      -0.00372186      -0.00895935       0.00715262
H       10.84693891       8.05345961       6.67418605       0.00805840      -0.00526440       0.00076997
H       10.29283170       5.92995992       6.95788548       0.00330900      -0.00438580      -0.00246314
O        0.02891283      11.30284640      11.66129131      -0.00625718       0.00464749      -0.00057036
C        0.55034482      10.43419692      10.68479015      -0.00208902       0.00887185      -0.00235489
H        0.02928581       9.46755871      10.66816653      -0.00119644       0.00859153      -0.00801988
H        1.60081562      10.25164262      10.91789937      -0.00278819       0.00868355       0.00051014
H        0.49831506      10.87148137       9.67921441       0.00109541       0.01309457      -0.00055918
H       -0.95198679      11.24083495      11.64634378      -0.00578798       0.00020666      -0.00046298
O        6.67788115       4.57318539       3.72581914      -0.00592603      -0.01166666       0.00968117
C        7.15602266       5.33036108       2.60995461      -0.00208533      -0.01428743       0.01004708
H        8.16187767       5.71056816       2.79302131      -0.00403982      -0.01149186       0.01412052
H        6.49808398       6.17248447       2.40148602      -0.00265071      -0.01640210       0.00329510
H        7.18104354       4.66390497       1.74853294       0.00384059      -0.01795849       0.01291946
H        6.52838600       5.19402162       4.45362599      -0.01052268      -0.01048335       0.00835784
O        0.26472412       1.64746468       4.81123965      -0.00481451      -0.00198170      -0.00544208
C        0.36529214       2.58500388       3.72497369      -0.01051911      -0.00597923      -0.00910899
H        0.85865190       2.10556857       2.87629555      -0.01655547      -0.00990665      -0.01006700
H        0.93888829       3.45884654       4.03216130      -0.00785878      -0.00541413      -0.01570150
H       -0.62563323       2.89207581       3.39895939      -0.01209378      -0.00457654      -0.00325385
H       -0.19896382       2.17458032       5.52538181      -0.00223294       0.00113550      -0.00548926
