194
Lattice="14.411210410456386 0.0 0.0 0.0 14.411210410456386 0.0 0.0 0.0 14.411210410456386" Properties=species:S:1:pos:R:3:forces:R:3 energy=-902315.875 stress="-0.0009784604189917445 -0.0007191227632574737 0.0008457107469439507 -0.0007191227632574737 -0.0001803283957997337 -8.584067472838797e-05 0.0008457107469439507 -8.584067472838797e-05 -0.002022147411480546" pbc="T T T"
Yb       8.74220968      13.71241237      12.05633240      -0.00502568      -0.00662190      -0.00144150
Yb      10.72773007      13.55876464       2.88758256      -0.01658276       0.00641787       0.02068490
O       12.82688494      12.69919294       2.31386780      -0.01219910       0.01022863       0.01076490
O       12.66236399      14.88233271       2.52460370      -0.00492918       0.01527500       0.03371264
O       14.65164745      13.90191747       2.69777650      -0.02063179      -0.00469817       0.02388418
C       13.42131877      13.83168634       2.50578851       0.00422591       0.00921559       0.02362122
O       11.09967507      13.46799784       5.18460552      -0.02508640      -0.01061374       0.00994993
O        9.02746984      13.19009749       4.48656191      -0.02691293       0.00824386       0.00896418
O        9.56773931      12.63181167       6.58879871      -0.03021210      -0.00362170       0.00486422
C        9.88800001      13.09082604       5.46609098      -0.02819014       0.00390884       0.01175660
O        8.08430904      14.84274151      -0.51065793       0.00216174      -0.00126547       0.00573671
O        9.11842357      14.57624241       1.46201409       0.02232730      -0.01432690      -0.00947130
O        9.93154808      13.61059572      -0.38727451       0.00014031      -0.00678992      -0.02129495
C        9.05013452      14.36242310       0.22805660       0.00886071      -0.00687021      -0.00719169
C        4.94866827       1.54607475      13.61208068      -0.00201773      -0.01085411      -0.01187277
C        5.74793104       2.58899534      14.06649100      -0.00191404      -0.01071375      -0.01189090
C        3.64635916       1.79130678      13.19374199      -0.00453131      -0.01060314      -0.00572458
C        5.23919271       3.87913707      14.09338303      -0.00313383      -0.01126464      -0.00651536
C        3.14120576       3.08800955      13.22247810      -0.00486068      -0.01128362      -0.00083713
C        3.93952756       4.12956646      13.67206179      -0.00505716      -0.01097387      -0.00184127
H        5.35491792       0.54252174      13.60544354      -0.00143586      -0.01017314      -0.01726582
H        6.75403208       2.36653988      14.39707784      -0.00046965      -0.00848446      -0.01487614
H        3.02199817       0.97802433      12.84547524      -0.00690045      -0.00888258      -0.00528201
H        5.85678030       4.69478493      14.44886469      -0.00317538      -0.01217417      -0.00532039
H        2.13036976       3.28549700      12.88859135      -0.00625731      -0.01285157       0.00257056
H        3.55323989       5.14097846      13.68501868      -0.00616269      -0.01178046       0.00219718
C        9.96851232       4.74160110       1.76693635       0.00832866      -0.02347346       0.00995418
C       10.42242626       5.97039955       2.23249970       0.00561243      -0.01375190      -0.00933736
C        8.60333787       4.49066208       1.68441031       0.00746736      -0.02630423       0.01820951
C        9.51264269       6.94884116       2.61355597       0.00560167      -0.01155381      -0.02296531
C        7.69306501       5.46926579       2.06848792       0.00738944      -0.02438907       0.00542655
C        8.14889398       6.69733451       2.53039379       0.00481278      -0.01466538      -0.01387165
H       10.67564927       3.98131537       1.46048074       0.00875102      -0.02508996       0.01951981
H       11.48476078       6.16972273       2.30246504       0.00590964      -0.01152058      -0.01589188
H        8.25252394       3.53033438       1.32735377       0.00930396      -0.03318672       0.03350349
H        9.86286255       7.90023239       2.99206334       0.00406910      -0.00335139      -0.04031178
H        6.62909069       5.26979008       2.03702813       0.00729513      -0.02638068       0.01085688
H        7.44222134       7.44858710       2.85446374       0.00455548      -0.01262580      -0.02326803
C       13.16900439       6.24860929       6.84587589       0.00916368      -0.00166568       0.01231495
C       12.00032138       5.54799078       7.10783413       0.00418951       0.00493813       0.00613398
C       13.16029221       7.63915475       6.82264401       0.01624458      -0.00172427       0.00965419
C       10.82778367       6.23907748       7.37420245       0.00540560       0.01137359      -0.00406212
C       11.98816890       8.33297881       7.09823901       0.01770018       0.00467357      -0.00004837
C       10.82787327       7.62807459       7.39036321       0.01193169       0.01136728      -0.00796609
H       14.08083338       5.70853064       6.64721187       0.00801268      -0.00643929       0.01918687
H       12.00235605       4.46506504       7.10109593      -0.00121896       0.00503077       0.00892329
H       14.06784931       8.18534410       6.59526714       0.02027501      -0.00685792       0.01437093
H        9.91727724       5.69358729       7.56986036       0.00162789       0.01613363      -0.00906762
H       11.97703459       9.41575431       7.10499917       0.02315539       0.00467536      -0.00265697
H        9.91475350       8.16092703       7.62211066       0.01285373       0.01662447      -0.01620445
C        5.90392272      10.58999091       1.70725920      -0.00722896       0.00822261       0.00049199
C        6.46459144       9.42629857       1.19376866      -0.00399600       0.00740185       0.00328113
C        4.53489032      10.80655781       1.60076156      -0.00493813       0.00150485      -0.00460218
C        5.65452640       8.47092239       0.59023426      -0.00028990       0.00646016       0.00380703
C        3.72549669       9.85420798       0.99060532      -0.00368458       0.00397507      -0.00210673
C        4.28419520       8.68335755       0.49023510      -0.00071486       0.00255334       0.00003584
H        6.53213488      11.32258942       2.20014188      -0.00923247       0.01138949      -0.00060531
H        7.53069999       9.25390515       1.27791034      -0.00350927       0.01196785       0.00511779
H        4.09238033      11.71346757       1.99416978      -0.00583453       0.00773956      -0.00521175
H        6.09417280       7.55670711       0.20878643       0.00134506       0.00708380       0.00564708
H        2.66034237      10.02747977       0.90792941      -0.00534543       0.00116217      -0.00485294
H        3.65168085       7.93856438       0.02199318       0.00159417       0.00151689       0.00038465
C        7.24068286       9.66318992      11.62547295       0.00658322       0.01497082       0.01425800
C        5.86715174       9.87132744      11.64430553       0.00812866       0.02574328      -0.00024599
C        8.08209607      10.52876851      12.30704240       0.00468980       0.00219736       0.03245921
C        5.33069760      10.97511253      12.29700842       0.00865980       0.02047888       0.00856613
C        7.53936689      11.60699721      13.01732267       0.00562146       0.00132358       0.03492768
C        6.15776473      11.84254325      12.99407413       0.00695208       0.00843427       0.02541415
H        7.64875130       8.81051451      11.09909350       0.00610266       0.02017082       0.00565695
H        5.21489199       9.17345936      11.13764161       0.00890145       0.03967782      -0.01959221
H        9.15092217      10.35171450      12.31668766       0.00262769      -0.00828409       0.04563541
H        4.25968770      11.12871602      12.29202259       0.00961059       0.02645225      -0.00254911
H        8.16076811      12.12272847      13.74979405       0.00531895      -0.00275484       0.03712456
H        5.74241786      12.66324003      13.56362155       0.00636299       0.00171751       0.03453216
C        4.41572560       9.64364772       8.43956682       0.00364353       0.00938331      -0.00076585
C        4.94113110      10.92956835       8.36188252       0.00157563       0.00942247      -0.00708947
C        5.26736322       8.54699612       8.49943231       0.00511756       0.01057290       0.00262215
C        6.31828541      11.11665505       8.33112108       0.00134489       0.01142076      -0.00921422
C        6.64355237       8.73553164       8.48572622       0.00494069       0.01264529      -0.00067429
C        7.16682622      10.01848608       8.38835567       0.00285290       0.01268549      -0.00664742
H        3.34181981       9.49986950       8.43000906       0.00385620       0.00780023       0.00314522
H        4.27358866      11.77859942       8.29329824       0.00023545       0.00816000      -0.01072123
H        4.86272429       7.54329099       8.53999287       0.00651653       0.01047553       0.00854398
H        6.73819937      12.10906063       8.21980228       0.00038745       0.01104541      -0.01414867
H        7.30429931       7.87699726       8.51094265       0.00606123       0.01354159       0.00275261
H        8.23639348      10.17262927       8.31610089       0.00222467       0.01491165      -0.01132459
C       11.06146556       7.81603057      12.98149007      -0.00286330      -0.01554868       0.00549975
C       11.96159454       6.78231301      12.75625487      -0.00382009      -0.01375718      -0.00512190
C        9.71292677       7.53767634      13.16105234      -0.00182101      -0.01803260       0.01309942
C       11.50886026       5.46938298      12.69688336      -0.00218986      -0.01376802      -0.00738319
C        9.25828718       6.22819002      13.08726756      -0.00014931      -0.01813396       0.01152113
C       10.15514570       5.19319802      12.85415008      -0.00101712      -0.01622540       0.00158574
H       11.41349996       8.83805701      13.01100291      -0.00402860      -0.01545627       0.00782316
H       13.01519564       7.00197674      12.63012109      -0.00480998      -0.01212090      -0.01179736
H        9.01640399       8.33649289      13.37568386      -0.00119893      -0.01948342       0.02002366
H       12.21299288       4.66190311      12.53877732      -0.00267981      -0.01231697      -0.01601931
H        8.20857228       6.01478018      13.24562220       0.00120559      -0.02042955       0.01822000
H        9.80246208       4.16949306      12.82279693       0.00025926      -0.01635198       0.00057340
C       10.25957376      10.66166448       3.27699825       0.00010668       0.00741196      -0.00271769
C        9.93439499      10.93329056       1.94704861       0.00649858       0.01163653      -0.00380599
C       11.42493587       9.96420494       3.57659670      -0.00193187       0.00381728      -0.00090307
C       10.77995763      10.51607400       0.92259982       0.00904261       0.01345582      -0.00086243
C       12.24619346       9.52143325       2.55113928       0.00042725       0.00597496       0.00195592
C       11.92877965       9.80117205       1.22858509       0.00708932       0.01028676       0.00084569
H        9.60036454      11.00316801       4.06204874      -0.00237162       0.00606225      -0.00492409
H        9.02294879      11.48313018       1.72236196       0.00825169       0.01421588      -0.00549271
H       11.68903918       9.77249302       4.60770751      -0.00707289      -0.00032577       0.00005390
H       10.54892244      10.77264051      -0.10364422       0.01471842       0.01897780      -0.00097589
H       13.13716783       8.95562854       2.78341924      -0.00143507       0.00223432       0.00267547
H       12.59191809       9.47293773       0.44027688       0.00886353       0.01110856       0.00274546
C        8.79007718       2.70774167       7.49793500       0.00994960      -0.01411112       0.00113599
C        7.76873346       3.64045118       7.34003623       0.01045519      -0.01028210      -0.00350963
C        9.65461303       2.81229199       8.58259589       0.01461623      -0.01883011      -0.00284036
C        7.61330980       4.67180757       8.25868539       0.01380447      -0.00717419      -0.00754548
C        9.50891203       3.85165877       9.49471891       0.01262781      -0.01359180      -0.00563937
C        8.49198282       4.78293562       9.32955802       0.01243279      -0.00665262      -0.00595132
H        8.91402525       1.90296492       6.78283053       0.00343454      -0.01520431      -0.00031647
H        7.09463105       3.55911354       6.49762478       0.00939217      -0.01022503      -0.00351800
H       10.45078234       2.08947581       8.70963374       0.00686130      -0.00105041       0.00063995
H        6.80637371       5.38624291       8.14603713       0.01708695      -0.00563770      -0.00732615
H       10.19789938       3.95462341      10.32266209       0.01226078      -0.01058389      -0.00411665
H        8.39078830       5.59963855      10.03258995       0.01553840      -0.00452866      -0.00441027
C        5.58571513       3.58978850      10.64757403       0.00074700      -0.00476986      -0.00250473
C        4.35981904       3.72953487      10.00959518      -0.00208905      -0.01169670       0.00137297
C        6.13697405       4.67784587      11.31215006       0.00598873      -0.00352622      -0.00937152
C        3.68678524       4.94885687      10.04487454       0.00061464      -0.01218532       0.00298382
C        5.47893655       5.90020720      11.33762664       0.00517157      -0.00607955      -0.01050669
C        4.24504095       6.03347362      10.71110932       0.00301694      -0.01110610      -0.00378398
H        6.11930015       2.64128444      10.63486542       0.00336745      -0.00194144       0.00488125
H        3.92110731       2.88573314       9.49083268      -0.00832839      -0.01093636       0.00563505
H        7.08485470       4.56377498      11.81973887       0.00848410      -0.00134287      -0.01469148
H        2.72481741       5.05390098       9.55778579      -0.00083914      -0.01622384       0.01069092
H        5.91271371       6.74309547      11.86514820       0.00751559      -0.00762704      -0.01476206
H        3.71806919       6.97972228      10.74298891       0.00277285      -0.01220812      -0.00376177
C        0.92459573       4.82833293       4.33118298      -0.00772952       0.00015189      -0.00506808
C        1.47728076       5.88903052       5.03943166       0.00042088      -0.00055763      -0.01055966
C        1.15857793       3.51739940       4.73313400      -0.01754168       0.00058281       0.00165682
C        2.25433100       5.64490278       6.16695314      -0.00034413      -0.00057049      -0.01029667
C        1.94801669       3.27675804       5.85185838      -0.01948150       0.00058447       0.00267528
C        2.49167123       4.33601642       6.56947606      -0.01040530      -0.00018754      -0.00338201
H        0.31307475       5.02087213       3.45891487      -0.00582406       0.00016415      -0.00635280
H        1.28425956       6.90772984       4.72433071       0.00861444      -0.00072928      -0.01611623
H        0.74459231       2.68834308       4.17154182      -0.02382672       0.00072816       0.00587223
H        2.67688379       6.47071753       6.72852915       0.00724702      -0.00114441      -0.01544268
H        2.15309418       2.25805274       6.15475193      -0.02810032       0.00053719       0.00852769
H        3.12269769       4.14171279       7.42686943      -0.01181912      -0.00041122      -0.00227362
C       11.13093999      11.50621663       9.79531823      -0.00922763       0.02317825      -0.00762150
C       12.41817343      11.99798461       9.98971158      -0.00906189       0.02319852      -0.01005577
C       10.89555471      10.13916564       9.90453589      -0.01176627       0.02501769       0.00250840
C       13.46210843      11.12518423      10.28232011      -0.00904633       0.02518100      -0.00368330
C       11.94239013       9.26495510      10.17385516      -0.01275988       0.02611573       0.00900971
C       13.22740851       9.75709097      10.36393000      -0.01208118       0.02640273       0.00649709
H       10.33317025      12.17818152       9.48353415      -0.00537232       0.02531497      -0.01302579
H       12.61901699      13.05735108       9.89097020      -0.01567203       0.02384669      -0.01573989
H        9.90012555       9.74353671       9.74524398      -0.01287131       0.02553591       0.00771504
H       14.46385532      11.50988120      10.43081188      -0.00773598       0.02348903      -0.00609512
H       11.75987629       8.19962271      10.21153315      -0.01492463       0.02683318       0.01309012
H       14.04472640       9.07254272      10.55813590      -0.01430184       0.02512061       0.01221558
C        5.88913461       9.29396070       5.09748382      -0.00307444       0.01481137      -0.00966084
C        5.69907701       7.93064451       5.29735522      -0.00589606       0.01611401      -0.01317360
C        7.16633720       9.83856643       5.17690690       0.00015753       0.01154825      -0.00747627
C        6.78941161       7.11122984       5.55181386      -0.01082074       0.01095347      -0.01319199
C        8.25180151       9.01171760       5.44462031      -0.00472404       0.00644247      -0.00818572
C        8.06499726       7.64800447       5.61547801      -0.00721741       0.00786908      -0.01007506
H        5.03811659       9.93566805       4.90963055       0.00019351       0.01828970      -0.00937385
H        4.69968157       7.51244310       5.27129350      -0.00798272       0.01880395      -0.01636071
H        7.32040817      10.90625596       5.06361162       0.00238505       0.01074609      -0.00539232
H        6.66679819       6.04901537       5.69692343      -0.01480527       0.01168042      -0.01583671
H        9.24295529       9.43443152       5.54179878      -0.00258163       0.00358818      -0.00654703
H        8.91119181       6.99859953       5.78552313      -0.01020877       0.00497225      -0.00884587
C        4.29011236       4.85544406       3.62672422       0.00797068      -0.02052140       0.01044617
C        5.07964954       4.13972418       4.51659907       0.00897470      -0.02437571       0.00591829
C        3.69784692       4.20090445       2.55946790       0.00927734      -0.01782127       0.00626478
C        5.33365852       2.79251321       4.30398232       0.01201067      -0.02492010       0.00327514
C        3.93230663       2.84723852       2.35459073       0.01228712      -0.02190950      -0.00528891
C        4.77298759       2.14689974       3.20826364       0.01489962      -0.02218255      -0.00071448
H        4.12360389       5.91417256       3.77178872       0.00614791      -0.02491930       0.01334447
H        5.48532510       4.63524329       5.38561726       0.01337533      -0.02312566       0.00834340
H        3.06136207       4.74655026       1.87471568       0.00653370      -0.02064134       0.01169094
H        5.97138421       2.24451587       4.98647676       0.01032980      -0.02370771      -0.00086288
H        3.49023758       2.35450788       1.50159495       0.02596080      -0.00726575      -0.00485450
H        5.01783846       1.11114016       3.00473605       0.01687475      -0.01926789      -0.00738586
C        1.93676159      10.69052698       5.82487593      -0.00429744       0.00419426      -0.00115545
C        2.52242923      11.25351611       4.69668803      -0.00682274       0.00637528      -0.00124516
C        1.65327233      11.48287076       6.93127975      -0.00767428       0.00370315      -0.00169469
C        2.82533009      12.60893217       4.67280902      -0.01325092       0.00714761      -0.00169782
C        1.98032856      12.83469138       6.91619659      -0.01408659       0.00496756      -0.00259903
C        2.56808192      13.39547012       5.78796546      -0.01665583       0.00711432      -0.00274335
H        1.69870112       9.63335266       5.84012980       0.00029157       0.00313821      -0.00073789
H        2.74600231      10.63868935       3.83436569      -0.00384070       0.00740572      -0.00117428
H        1.18166360      11.04872525       7.80532282      -0.00570017       0.00224505      -0.00166094
H        3.24873686      13.05865583       3.78485861      -0.01581932       0.00819594      -0.00277977
H        1.77359606      13.45151918       7.78288044      -0.01763456       0.00469552      -0.00290117
H        2.82013897      14.44784284       5.76875278      -0.02187014       0.00810958      -0.00346185
