197
Lattice="17.922797867571315 0.0 0.0 0.0 17.922797867571315 0.0 0.0 0.0 17.922797867571315" Properties=species:S:1:pos:R:3:forces:R:3 energy=-3565621.5 stress="-0.00031530915293842554 -5.4276508762995945e-06 -1.55496536535793e-05 -5.4276508762995945e-06 -0.0005688738892786205 -4.706976505985949e-05 -1.55496536535793e-05 -4.706976505985949e-05 -3.4915952710434794e-05" pbc="T T T"
Yb      10.32333544      13.66655764       8.51281851       0.00554141       0.00749347       0.01340008
Yb       3.94581807      14.69836714      -2.92556766       0.00627580       0.00074595      -0.00281961
O        0.53434375      16.43569094      17.54417499       0.00450690      -0.01129174       0.00201893
O       -0.39517519      13.73106696      17.68982182       0.00547230      -0.01120484      -0.00215697
O        2.24502485      14.35574213      16.44572438       0.00374913      -0.00020170      -0.00525229
O       -0.24700569      15.12626920      15.11828959      -0.00206804      -0.00053170       0.00322807
W        0.50357081      14.90343293      16.71373149       0.00599009       0.00609976       0.00387889
O        9.09476474      15.02488481       9.90863843       0.01070261       0.00835907       0.01486433
O        8.94569783      12.81894618      12.28166054       0.00015414       0.02436280       0.00563109
O       10.50418936      15.34819269      12.64307703       0.01644289       0.01222384       0.03504813
O       11.00011360      13.43477154      10.63859093      -0.00357318       0.00284672       0.01600461
W        9.62304815      14.31064562      11.57391932      -0.02193063      -0.03146526      -0.00695109
O        5.05951754      15.79521786      11.32651338       0.00416923      -0.00994277       0.00230813
O        7.78114999      15.19172879      12.22693737       0.00947094       0.01661086      -0.00095738
O        5.29121130      13.70409067      13.19278111       0.01744145       0.00128317       0.00119931
O        5.62882782      16.19573853      14.13638530      -0.00520736       0.00803328      -0.00796700
W        6.03846227      15.24072825      12.65541410      -0.00790595       0.00534509      -0.00893945
Cl       4.99183117       8.36630183       4.38615461       0.00554228       0.00019526      -0.00850996
Cl       6.44533983      10.10421891       6.22753544      -0.00325260       0.00444663      -0.00571060
Cl       4.55568625      11.25924494       4.31947063      -0.00639046      -0.00170437      -0.00620291
C        4.93661838       9.85493851       5.33484751      -0.00201215      -0.00117549      -0.00676980
H        4.14276764       9.75644326       6.06349045      -0.00728238      -0.00897708      -0.01310191
Cl       3.50097444       6.54496800      15.65708082      -0.00698352       0.01843002       0.00570621
Cl       1.66130011       4.57641848      16.75970084      -0.00226480       0.00631616      -0.00704043
Cl       2.37027760       6.90639726      18.33692825      -0.00831820      -0.00129742       0.00651515
C        2.09543385       6.28411112      16.69919491      -0.00693217       0.00790539       0.00289744
H        1.26832772       6.83601953      16.27015000      -0.00772795       0.00758378       0.00611643
Cl      13.74981809      17.73453209       1.66451615       0.00951838      -0.00026026      -0.00229248
Cl      12.27787846      15.21715153       1.71686534      -0.00081679       0.00650831      -0.00309175
Cl      15.05551407      15.26171534       0.79976980      -0.00079960      -0.00468573      -0.00299788
C       13.88815727      15.97773369       1.88146043       0.00226294      -0.00045701      -0.00258462
H       14.20781738      15.80196144       2.90176025       0.00142675      -0.00223988      -0.00261691
Cl       4.00921445      15.56518748       1.61898160      -0.01403597       0.00542444      -0.00668393
Cl       5.83307660      15.00006268      -0.58976252      -0.00382050      -0.01475791       0.00657442
Cl       3.78724438      17.05237383      -0.88693294       0.01544346       0.00271330      -0.00837532
C        4.86106429      16.25888629       0.26622457       0.00247909      -0.00447690      -0.00058393
H        5.56603034      17.00183797       0.62115483       0.00530306      -0.01170030       0.00119154
Cl      12.72268579       5.65048768       7.52931515      -0.00140345       0.00007084      -0.00522340
Cl      14.65054009       4.02589982       9.01194186      -0.00340397      -0.00103443      -0.00385584
Cl      12.83940712       2.76539715       7.09879751      -0.00753076      -0.00178435       0.00248216
C       13.76071217       4.23114101       7.48312556      -0.00483745      -0.00250829      -0.00310007
H       14.50121708       4.37323230       6.70237527      -0.00570004      -0.00588054      -0.00474334
Cl       5.97158668       1.85131573      16.21117020       0.01136337       0.01911357      -0.00113249
Cl       6.35084126       1.20356144      13.38790123       0.01056074       0.01771295      -0.00113553
Cl       8.54162111       0.83301740      15.29143826       0.00631636       0.00809897      -0.00018797
C        6.78560451       0.78755702      15.03780183       0.00588648       0.01502924      -0.00069384
H        6.44320584      -0.23424988      15.18155761       0.00080800       0.01695669      -0.00171168
Cl       1.00953616       7.58926382       3.70202800       0.01502017       0.01015553       0.01188126
Cl       0.06043146       4.95824925       2.86039825       0.00194870       0.01076356       0.00192618
Cl       2.64274556       5.21586341       4.19644602       0.00432405       0.00165722      -0.00183995
C        0.99630137       5.85951049       4.06398496       0.00583679       0.00545728       0.00245391
H        0.51140048       5.72648304       5.02372431       0.00682947       0.00392552       0.00263488
Cl       3.78186348       5.45122156       9.52304965      -0.00648725       0.00173494      -0.00607580
Cl       3.95020911       8.09737121       8.34041926       0.00643690       0.00334293       0.00012467
Cl       6.26467127       6.32154319       8.26037777      -0.00221568      -0.00802099      -0.00432706
C        4.50255492       6.41094205       8.22787465      -0.00186024       0.00133909      -0.00384834
H        4.16203652       6.01383165       7.27895344      -0.00304949       0.00517835      -0.00477678
Cl       2.41188099      12.60092779       9.68021874       0.00541085       0.01460278      -0.00271043
Cl       5.00531711      11.55365251      10.45327817       0.00023654       0.00303435       0.00059176
Cl       4.84105296      13.75890097       8.55985560       0.01012191      -0.01135419      -0.01589769
C        4.11248362      13.00027029       9.98112591       0.00851006       0.00419673      -0.00903841
H        4.16342698      13.72232081      10.79294012       0.01591632       0.01118204      -0.01510340
Cl      14.02279582       7.31051109      15.21783475      -0.00832808      -0.00368896      -0.00350383
Cl      16.28641132       8.08010100      13.55084719       0.00175866      -0.00639865       0.00712773
Cl      13.57187488       8.72198041      12.70235415       0.00619861      -0.01130691      -0.00921291
C       14.65085976       8.50539881      14.08052096      -0.00167714      -0.00712946      -0.00323532
H       14.71059619       9.45106486      14.60360922      -0.00479873      -0.00496832      -0.00662363
Cl       2.50794879      16.93231383      13.71523410      -0.01208891       0.00971065       0.00415243
Cl       0.78313023      16.47550877      11.41626029      -0.00449751      -0.01665977       0.00075269
Cl       1.99924136      14.21634982      12.80961216       0.01562556       0.00312662       0.00764506
C        1.27404208      15.85830058      12.96712881      -0.00009214      -0.00229321       0.00489062
H        0.45773766      15.73315995      13.72001209       0.00097376      -0.00613251       0.00532675
Cl      10.21690234       8.37421257       6.66222520      -0.00475582       0.00338423       0.01433688
Cl      11.30459135      11.10042803       6.64555754      -0.01039694       0.00522849       0.00963473
Cl      12.86826076       8.89712842       5.56769780      -0.01478007       0.00797777      -0.01081609
C       11.23954815       9.50667827       5.79260388      -0.01307502       0.00631472       0.00840195
H       10.79989363       9.71101102       4.82269184      -0.01937363       0.00611890       0.01146162
Cl       1.22582116       0.19372714       1.79691534       0.00469804       0.01182640      -0.00410110
Cl       2.18103382       0.54265542       4.54300318      -0.01340205       0.00446075       0.00095236
Cl       3.49153987       1.94421139       2.33898198       0.00827664       0.00401597       0.00836040
C        1.94376968       1.30014521       2.95243959       0.00275773       0.00865668      -0.00100450
H        1.28367761       2.14643859       3.09744023       0.00617540       0.01136166       0.00002699
Cl      15.03303655       3.31633773      16.50152229      -0.01406246       0.00452320       0.00084114
Cl      12.73062898       3.79242759      14.77539745      -0.01050684      -0.00479627      -0.00925003
Cl      15.42692594       4.01933174      13.69813137      -0.00700641      -0.00126848       0.00081553
C       14.38369103       3.18283612      14.85804339      -0.00934241      -0.00089924      -0.00091362
H       14.37396398       2.13236816      14.59366646      -0.00563762      -0.00101700       0.00212391
Cl       7.76250345      12.50616065       3.55882097      -0.00782333       0.01559505      -0.00529556
Cl      10.65878253      12.25164281       3.33994099      -0.00823963       0.00373876       0.00221957
Cl       9.14767103      13.57284992       1.22029673       0.00062496      -0.00462587      -0.00898805
C        9.24182878      13.25407504       2.95020765      -0.00391244       0.00619131      -0.00702678
H        9.37551849      14.20232081       3.45916941      -0.00138807       0.00847070      -0.01278482
Cl       5.73895027       6.80758732      12.55210524      -0.00056116       0.01258007      -0.00145807
Cl       7.31480530       4.60294885      13.60446842       0.00052488       0.01400379      -0.00032192
Cl       4.53531833       4.17335210      12.81715927       0.00045958       0.01198789      -0.00086012
C        6.02889965       5.06710495      12.48802167       0.00008117       0.01298110      -0.00053388
H        6.34885204       4.82073475      11.48272832      -0.00027717       0.01279940      -0.00035074
Cl      13.65360005      13.00999939      15.54042001       0.00322092      -0.00259337      -0.01570997
Cl      12.51114206      15.69866397      15.52231311       0.00068711      -0.00402170       0.00606510
Cl      10.76019068      13.37485459      15.32972473       0.00064760      -0.00383580       0.00281551
C       12.25462205      14.01978300      15.99592871       0.00472949      -0.00717052      -0.00222519
H       12.19011194      13.98601833      17.07595883       0.01102353      -0.01377759      -0.00287622
Cl      14.84575995      13.04560175      10.87296152      -0.00540772       0.01185539       0.01977959
Cl      13.31018260      13.28140847       8.37961924       0.00365528       0.00143299       0.01323152
Cl      13.76417078      10.67257965       9.60096124       0.01059620       0.00676364       0.02341089
C       13.52144950      12.37112467       9.97730560       0.00188652       0.00453550       0.01526695
H       12.55803009      12.56315720      10.48527441      -0.00059056       0.00053300       0.01226233
Cl      16.36346085      10.52657475      -1.56845932      -0.01011068      -0.01259729      -0.00006685
Cl      14.83086287      11.10254628       0.85085562      -0.00331545      -0.00212028       0.00100923
Cl      17.60672401      10.21512824       1.04612449      -0.00505942      -0.00688043      -0.00271934
C       16.43533957      11.15253941       0.10191720      -0.00474790      -0.00672793      -0.00246003
H       16.78954567      12.19566945       0.03614020      -0.00314596      -0.00865620      -0.00578148
Cl      11.89764467       4.86471899      11.12120574      -0.00117239      -0.00809007      -0.00629731
Cl      10.54468087       6.44872652      13.16710782       0.00498350      -0.00607947      -0.00498366
Cl       9.40849803       6.24729367      10.48366787      -0.00609452      -0.01459396      -0.00143722
C       10.34030525       5.41701409      11.74815196       0.00045444      -0.00887689      -0.00232697
H        9.77313854       4.54485661      12.04758331       0.00260822      -0.00918266       0.00086105
Cl      11.28407858      10.90695752      18.11571029      -0.00543752      -0.00298461      -0.00185785
Cl      11.88075378       8.06390112      18.02294051      -0.01932965      -0.00570172      -0.00376648
Cl      10.95551737       9.44039398      15.62176245       0.00546512       0.00384852      -0.00711304
C       11.88997734       9.58224065      17.11348257      -0.00496399      -0.00396881      -0.00040800
H       12.91632661       9.81087334      16.85145627      -0.00224215      -0.00872454       0.00784288
Cl      17.03903447       0.04435195       6.86697233      -0.00341278      -0.00038829      -0.00413539
Cl      17.16258903       2.91095688       6.31685633      -0.00341928      -0.00002608      -0.00104653
Cl      16.03179584       1.09057883       4.33318603       0.00041784       0.00163859      -0.00442353
C       16.25588333       1.40294269       6.05490815      -0.00261843       0.00043768      -0.00393861
H       15.27712741       1.53724824       6.50194714      -0.00278690      -0.00056799      -0.00547883
Cl      18.22007006       6.77821250       7.82344634       0.00326903      -0.01498037      -0.00214832
Cl      16.01258356       8.64110575       8.23970632       0.01180686      -0.00209802      -0.00474674
Cl      15.97227548       6.83472407       5.95090363       0.00238706      -0.00882391       0.00098576
C       16.47726046       7.05451539       7.64385440       0.00397817      -0.00628316      -0.00043479
H       15.96562118       6.30251329       8.23475259       0.00165758      -0.00166637       0.00285701
Cl       4.61174458      11.98347037      15.81522601      -0.01502798      -0.01338640      -0.01981133
Cl       1.81056892      11.46512647      15.22282768      -0.01897481      -0.02029894       0.00725096
Cl       3.10404096      10.09381971      17.44040256      -0.00261065       0.00690490       0.01543741
C        2.98243372      11.57285896      16.51529093      -0.00957838      -0.00520068      -0.00301900
H        2.70930101      12.42334708      17.13543649      -0.00514287       0.00365728      -0.01310384
Cl      10.49407444      10.26841225      10.08568264      -0.00302923       0.01298018       0.00308674
Cl       8.22713876      11.69572358       8.91162461      -0.00300955       0.01515462       0.00253686
Cl       7.78478292       9.53316531      10.84595577      -0.00203148      -0.00224820      -0.01916318
C        8.87029447      10.84279202      10.44019447      -0.00690120       0.00329542      -0.00686768
H        8.89264771      11.64318579      11.25719303      -0.01198084      -0.00193292      -0.00332588
Cl       1.29536710       2.51334058      13.58918461      -0.00546518      -0.00580084      -0.01158631
Cl      -0.83845322       0.65504775      14.31790893      -0.00328642      -0.00213754       0.00292608
Cl       1.14070389       1.39159450      16.29554209       0.00318632       0.00140941      -0.00690305
C        0.23758593       1.94154129      14.89233481       0.00004271      -0.00183167      -0.00519820
H       -0.37965870       2.77856546      15.19648180       0.00338523      -0.00025523      -0.00443317
Cl       3.87241303       0.18637664       9.64119342       0.00181431      -0.00152558       0.01167513
Cl       4.28182477       2.20488421       7.55449427      -0.00831871      -0.01109743       0.00060308
Cl       1.77445728       2.12921560       9.04569440      -0.00333056      -0.00916058       0.00901618
C        3.52130853       1.82437602       9.11948461      -0.00224621      -0.00493792       0.00472946
H        3.94052465       2.50837768       9.84725386      -0.00094345      -0.00065693      -0.00004610
Cl      11.47344350      14.58517339       5.72929778       0.00771292      -0.00710098       0.00893153
Cl      12.32674968      17.35303361       5.35913341       0.01716819      -0.01197067       0.00205450
Cl      11.57946930      16.37823014       8.01288089       0.00976632      -0.00160750       0.00369577
C       12.31935169      15.99551053       6.45403672       0.01167801      -0.00868905       0.00610223
H       13.34050713      15.67528708       6.63322200       0.01056454      -0.01028774       0.00888053
Cl       9.54913995       0.77744698      11.71762972       0.00595590       0.00043592      -0.00871974
Cl       7.15279027       0.31224570      10.10183739       0.00073290       0.00010890      -0.00125849
Cl       9.62978496       1.15196490       8.83086498      -0.00213997      -0.00185782      -0.00831839
C        8.91127605       0.21155909      10.17153453       0.00006261      -0.00009042      -0.00691530
H        9.16995745      -0.84358611      10.05107154      -0.00107539      -0.00258321      -0.00621351
Cl       3.07972699      14.89764606       5.31167042       0.00024161      -0.00578640      -0.02471828
Cl       0.99416038      13.15551949       6.35035626       0.00494584       0.00530687       0.00085876
Cl       1.60028855      15.66455399       7.70827402       0.01997592       0.01299402      -0.01964891
C        1.52525717      14.83605234       6.15566865       0.00640474       0.00294605      -0.01329904
H        0.79936260      15.34656427       5.53440668       0.00265148       0.00052400      -0.01060012
Cl       8.82235708       3.44978409      18.55835674       0.00133747      -0.00395077       0.01384631
Cl      11.51647275       4.57364556      18.56254685       0.00358674      -0.00993496      -0.00151390
Cl      11.14086317       1.71164615      18.17722069      -0.00590816      -0.00714326      -0.01069261
C       10.45373409       3.31860179      17.90214869      -0.00421245      -0.00464170       0.00089408
H       10.39654970       3.47086713      16.83210434      -0.01206622       0.00029217       0.00250915
Cl      14.19673118      12.53252458       4.62523152       0.00552285       0.01338422      -0.01040143
Cl      16.49442077      10.72657633       4.67568549      -0.00936699      -0.00456646       0.00262961
Cl      16.68787431      13.31657065       3.32901137       0.01443914      -0.01203898      -0.00685078
C       15.97659399      12.41508182       4.66065553       0.00435880      -0.00066234      -0.00516185
H       16.30271881      12.86457845       5.58993002       0.00544538       0.00003098      -0.00638112
Cl       3.48104646       9.35113471      12.92927203       0.00332764       0.00368169       0.00055313
Cl       1.64036590       7.22882565      12.14217861       0.00346602       0.00094277       0.01063204
Cl       0.85814337      10.02183006      11.84762451       0.00246793       0.00060353       0.00201816
C        2.20449205       8.87834990      11.81069841       0.00188778      -0.00012833       0.00413348
H        2.61952440       8.88614129      10.81084005      -0.00069320      -0.00345272       0.00293589
Cl       7.29215132       6.54636913      -1.05904932      -0.00725791      -0.00103530       0.00309166
Cl       6.01917977       5.96075645       1.50835679       0.00784272       0.00577369       0.01164746
Cl       6.66828625       8.71908256       0.79308656       0.01135306       0.00280973       0.00416557
C        6.18121548       7.13216695       0.18380751       0.00260259       0.00366183       0.00933990
H        5.20566719       7.23687251      -0.27385288       0.00022990       0.00603656       0.01560159
Cl      15.23323439      16.57664350      10.03645589       0.01093879       0.01758295       0.00842199
Cl      13.06274203      17.26976349      11.86291301      -0.00836182      -0.01858547      -0.00329129
Cl      15.45570330      15.98314693      12.90689879       0.00008057       0.00734711       0.00675899
C       14.80116251      17.08733305      11.69370718      -0.00519556       0.00341061       0.00709297
H       15.27804626      18.04850237      11.84018262      -0.01869178       0.00872681       0.01442313
Cl       8.50365720      16.52481777       4.68855773       0.00817102      -0.00436592       0.01511157
Cl       8.02327812      15.58150006       7.44109384       0.00598529      -0.00489755       0.01511168
Cl       6.25549068      17.53837739       6.23829555      -0.00722533      -0.02471504       0.00623643
C        7.27337254      16.15126744       5.91695058       0.00751151      -0.01839489       0.01057865
H        6.66186693      15.34605855       5.52693960       0.01586777      -0.02406579       0.00745963
