197
Lattice="13.408174036748491 0.0 0.0 0.0 13.408174036748491 0.0 0.0 0.0 13.408174036748491" Properties=species:S:1:pos:R:3:forces:R:3 energy=-2253094.5 stress="-0.0002008749288506806 0.0002074238218483515 -0.0003509764210321009 0.0002074238218483515 0.002301625907421112 -0.0005011416797060519 -0.0003509764210321009 -0.0005011416797060519 0.0008997885743156075" pbc="T T T"
Yb       8.18023977      13.06222117       7.83180521       0.00994100      -0.00515673      -0.00487813
Yb       5.27008044      13.71608599      -0.33675840       0.04556584      -0.00410855      -0.01564467
O        2.97243567      13.18832695      12.77772556       0.03627893       0.01838331      -0.00836617
O        4.84668053      13.09086043      10.83806927       0.03037184      -0.01539548      -0.01465279
O        2.01233021      13.53099223       9.97507475       0.02384174       0.00130323       0.00971854
O        2.88034954      10.92263282      10.91787359       0.00254016       0.00838202       0.02671148
W        3.09681047      12.65042085      11.05582013       0.00858182       0.00526473       0.02426022
O        7.11308262       6.34680256      10.58694545      -0.00308716       0.00136501       0.00326401
O        6.38450400       7.24449309       7.98031416       0.00209099      -0.00287676       0.00025642
O        9.10420661       7.00793115       8.64163828       0.00105590       0.00568163       0.00859234
O        7.54991411       9.23813194       9.86445914      -0.00881276       0.00130042       0.00153515
W        7.53258281       7.46423022       9.26790987      -0.00227287       0.00163370       0.00354564
O        8.32163356       9.94675436       5.52718015       0.01405232       0.00432539      -0.03464580
O        9.66651091      12.48001859       6.05377151       0.01958406      -0.00468519      -0.00986536
O        6.93787692      12.48712538       5.88349058       0.01950371       0.00468042      -0.02413280
O        8.44189401      11.88214820       3.37781146       0.03000695       0.02391504      -0.02187622
W        8.36298985      11.64726071       5.11789806       0.01920383       0.00835714      -0.02242890
O        3.44105314       5.77012435      10.80673804       0.00426826      -0.00311971      -0.00289559
C        3.85852368       5.33228312       9.51582970       0.00630382      -0.00500566      -0.00160533
C        4.29819035       3.89032741       9.59970854       0.00034827      -0.00694203      -0.00089010
H        3.03326822       5.42035948       8.79821256       0.00840402      -0.00247351      -0.00416264
H        4.68646448       5.95302964       9.15713819       0.00930244      -0.00771445       0.00010465
H        4.58107238       3.53376416       8.60842728       0.00354758      -0.00682108      -0.00022356
H        5.14489738       3.79721971      10.27905084      -0.00306723      -0.01242800       0.00300422
H        3.48583239       3.24908208       9.94672065      -0.00379014      -0.00438924      -0.00571067
H        3.30873571       6.72979158      10.71412478       0.00602075      -0.00285988      -0.00193263
O        2.06600895       3.33522743       7.46832304      -0.00355089       0.00660962      -0.00180116
C        1.32212856       4.31852860       6.77136217      -0.00680232       0.00139013      -0.00545174
C        0.38277687       3.70580360       5.74814531      -0.00872901      -0.00559431       0.00018543
H        0.76518785       4.94807993       7.47480956      -0.00619248       0.00487980      -0.00756186
H        2.04249853       4.96572481       6.26165596      -0.00904256      -0.00034326      -0.01088655
H       -0.15880867       4.48093745       5.20216237      -0.01214986      -0.00948343      -0.00196536
H        0.95245045       3.11917064       5.02630505      -0.00960575      -0.00805981       0.00155265
H       -0.33703285       3.04471569       6.23378912      -0.00577401      -0.00480060       0.00574392
H        1.53761831       3.02520042       8.22673397      -0.00379928       0.00334458      -0.00353029
O        8.84570072      11.41980326       9.15770018      -0.00198030      -0.00940585      -0.00244052
C       10.15955443      10.91719693       9.12631011      -0.00252759      -0.01200438       0.00464569
C       11.20730937      12.01094741       8.97998882      -0.00177377      -0.01348394       0.00716276
H       10.36006872      10.33345017      10.03668185      -0.01001263      -0.00986427       0.00658953
H       10.27363587      10.21649043       8.28763747      -0.00157944      -0.01413232       0.00647402
H       12.21768659      11.59983352       9.01537763      -0.00250465      -0.01398805       0.01118905
H       11.12047864      12.51480443       8.01308841       0.00251613      -0.01468813       0.00586750
H       11.12145430      12.76117690       9.77372897      -0.00482021      -0.01245562       0.00552110
H        8.02455519      10.06997752       9.55007387      -0.00614373       0.00097857       0.00003986
O        7.01067033       8.38533185       3.76877861       0.00429630      -0.01500086       0.00064820
C        5.89283764       8.12612567       4.60716499       0.00074410      -0.00757343      -0.00156435
C        5.10204705       9.37739061       4.95224051       0.00639328      -0.00287211      -0.00558144
H        5.25520125       7.43675776       4.05309688      -0.00193247      -0.00502822      -0.00223318
H        6.20679964       7.63718981       5.53680334      -0.00463954      -0.00816584      -0.00004739
H        4.21922372       9.11337023       5.53879347       0.00357710       0.00295180      -0.00702322
H        5.70020679      10.07098474       5.54289674       0.00903499      -0.00461176      -0.00562827
H        4.77148334       9.88867097       4.04504257       0.01104100      -0.00258048      -0.00733213
H        7.61762412       8.92872952       4.31295728       0.00239491      -0.00897324      -0.00319741
O        3.34642919       5.23874563       3.79554190       0.00087905      -0.00217307      -0.00332814
C        4.48264645       4.88267313       4.56166946      -0.00007278      -0.00360394      -0.00259802
C        4.35513578       3.42704538       4.94842206      -0.00264443      -0.00324535      -0.00166461
H        5.40398302       5.04086531       3.98263808       0.00060064      -0.00533315      -0.00231490
H        4.56951735       5.50443939       5.46317476       0.00054150      -0.00330815      -0.00283152
H        5.25326008       3.09473431       5.47458684      -0.00347944      -0.00448365      -0.00096281
H        3.51032694       3.26071799       5.61532209      -0.00335771      -0.00107846      -0.00195210
H        4.21674048       2.81795733       4.05282286      -0.00325645      -0.00374876      -0.00133093
H        3.50969019       6.08116466       3.33781427       0.00171900      -0.00221489      -0.00300045
O        0.68587540      13.27392565       7.40946449       0.00343078       0.00355458       0.01941234
C        1.39725470      12.54934399       6.42677055       0.00086588       0.00415213       0.01601332
C        2.86320951      12.93500613       6.34784302      -0.00029492       0.00704479       0.01013442
H        1.30558053      11.46609577       6.59367416       0.00356485       0.00410748       0.01726677
H        0.89946078      12.76361464       5.47663800      -0.00373295       0.00281486       0.01804650
H        3.36714059      12.39366669       5.54337290      -0.00204276       0.00581961       0.00942998
H        2.96190154      14.00806306       6.17868683      -0.00302231       0.00693846       0.00681301
H        3.37730086      12.68975505       7.27976511       0.00328948       0.01089878       0.00897351
H        1.18670023      13.26254775       8.24168196       0.00683567       0.00371158       0.01667374
O       10.29984757       5.87622360       4.06452018      -0.00669992       0.00616677      -0.00912750
C       10.95017940       6.47384031       5.19670637      -0.00354784      -0.00457102      -0.00537074
C       10.35871579       7.80696178       5.56758044       0.00057611      -0.00591201       0.00611015
H       10.89570959       5.79241957       6.05328479      -0.00363086      -0.01153702      -0.01091194
H       12.00734703       6.56337396       4.93112349      -0.00373048      -0.00476019      -0.00639589
H       10.94101253       8.26739385       6.36411652       0.00440882      -0.01292253       0.00731048
H       10.33411400       8.48527205       4.71664839      -0.00092194      -0.00017005       0.01088218
H        9.33710728       7.70257745       5.93235152       0.00133049      -0.00627141       0.00839243
H        9.41583289       6.25513045       4.01494636      -0.00596547       0.00883909      -0.00548063
O       11.79488517       7.59564753       8.53218702       0.00424381      -0.00474304       0.00746268
C       12.28961125       6.56148015       9.36077477       0.00055215      -0.01167613       0.00081143
C       11.75875464       5.20039589       8.94050273      -0.00791761      -0.00671518      -0.00515351
H       13.37975045       6.59382251       9.28526774       0.00062406      -0.01725367      -0.00151661
H       12.03407300       6.75778763      10.41021451       0.00426590      -0.01563279       0.00248015
H       12.17936829       4.39598947       9.54348697      -0.01318806      -0.01215920      -0.00853698
H       10.67150587       5.19262149       9.03447084      -0.00811121       0.00015008      -0.00529743
H       12.00995239       5.00355046       7.89753058      -0.00903761      -0.00355211      -0.00595850
H       10.82136880       7.51512058       8.55084546       0.00363398      -0.00013869       0.00876942
O        7.88104718       1.92669983       6.94798230       0.00087756      -0.00622903      -0.00079209
C        8.67070142       3.15174964       6.96106945       0.00007504      -0.00563147       0.00369870
C        7.83043927       4.37213248       6.69135193       0.00037670      -0.00481620       0.00564990
H        9.11662665       3.18533738       7.95349992      -0.00183908      -0.00803920       0.00457644
H        9.47724096       3.04274595       6.23322011       0.00176185      -0.00310415       0.00492653
H        8.43832429       5.27240223       6.79615450      -0.00003839      -0.00452587       0.01053977
H        7.42447697       4.35564569       5.67768361       0.00332651      -0.00100297       0.00405259
H        7.00497865       4.46104497       7.39751042      -0.00197308      -0.00774181       0.00354807
H        7.40931833       1.87992490       6.10746841       0.00010762      -0.00283451      -0.00071162
O        3.30767855       8.43289672       9.96925150       0.00485601       0.00588259       0.00916004
C        3.40455189       8.70130433       8.57050181       0.00268987       0.00321616       0.00778949
C        2.04974252       8.66105176       7.88806667       0.00163728       0.00115687       0.00962704
H        3.87408045       9.68083174       8.42314136       0.00239840       0.00285262       0.00489009
H        4.08255503       7.95909029       8.14711727       0.00208467       0.00221688       0.00861883
H        2.14825204       8.91913050       6.83084992       0.00076043      -0.00173135       0.00878510
H        1.60646675       7.66647543       7.95307290       0.00188625       0.00137699       0.01274630
H        1.35684875       9.36875643       8.34518316       0.00208010       0.00231050       0.00834341
H        3.05213519       9.27382968      10.39732062       0.00308838       0.00405830       0.00893556
O        5.72879583       1.07564231       1.88728095       0.00089437      -0.00234056      -0.01005797
C        6.25102251       0.71148030       3.19957074      -0.00066033       0.00199828      -0.00837669
C        7.62493918       1.29815004       3.37535393      -0.00945383       0.02052669       0.00030146
H        5.54131791       1.04801249       3.95342917      -0.00886509      -0.00964014      -0.01046187
H        6.29117958      -0.37388760       3.21593460       0.01356361       0.00234026      -0.01077028
H        8.01910215       1.06263857       4.36481270      -0.00925662       0.01637194      -0.00083749
H        8.30956520       0.82374652       2.67716499      -0.00027940       0.03949553      -0.00271954
H        7.63486475       2.38136559       3.23313568      -0.02545197       0.02169035       0.01035325
H        5.86831064       2.02490043       1.74332515      -0.01360613       0.00030589      -0.00554664
O       11.06038296      12.20210575      12.82575167      -0.02145523       0.02026889       0.00234950
C        9.69225613      11.80499850      12.82942796      -0.01824802       0.01100335       0.00936480
C        8.81571224      12.87066260      12.18712003      -0.02683212      -0.00013030       0.00073063
H        9.57155483      10.84532086      12.31861105      -0.01291580       0.00636733       0.01720393
H        9.42464747      11.65925275      13.87861092      -0.01521467       0.01793545       0.01125270
H        7.77145987      12.53250354      12.12003741      -0.02421256      -0.01041370      -0.00021694
H        8.88104895      13.81444486      12.73617654      -0.03457131       0.00524703      -0.00600143
H        9.13029608      13.03942273      11.15886384      -0.02826796      -0.00453927      -0.00076070
H       11.43687258      11.97098573      11.97161826      -0.01810503       0.00487436       0.00810376
O       12.07748197       7.48627580       1.28692462      -0.00722940       0.00466037       0.00962632
C       11.54159854       8.40452010       2.25239295      -0.00551225       0.01050919       0.00505251
C       11.82406296       9.81166970       1.79669868       0.00153732       0.00791103       0.00115637
H       10.46483821       8.24486495       2.35666947      -0.00664878       0.01540010       0.00328288
H       11.99857476       8.20703552       3.22555980      -0.00859928       0.01197122       0.00691295
H       11.38863462      10.51985681       2.50307521       0.00315680       0.01196278      -0.00193910
H       12.89662144       9.99712141       1.72983555       0.00254478       0.00288972       0.00298940
H       11.38466370      10.00039450       0.81907801       0.00384104       0.00689059      -0.00016093
H       11.83034394       6.60064711       1.57092966      -0.01146059       0.00677827       0.01270638
O        5.47003119       2.71556561      -0.30516490       0.00249222      -0.00502162      -0.01298699
C        4.28789527       3.54312861      -0.06985886       0.00234096      -0.00646143      -0.00425233
C        4.65737418       4.88826359       0.49870561       0.00685921      -0.00810748      -0.00297000
H        3.75603414       3.66612380      -1.01335333      -0.00243306      -0.00425018      -0.00102621
H        3.65354896       2.97393761       0.61550319       0.00622216      -0.00862645      -0.00266999
H        3.75516020       5.47275123       0.67595301       0.00897661      -0.00725038       0.00478914
H        5.18271194       4.79492939       1.45089090       0.01367592      -0.01111980      -0.00688668
H        5.27625979       5.44278139      -0.20670670       0.00338545      -0.00685169      -0.00535765
H        6.10658139       3.27194653      -0.87038389       0.00193919      -0.00058991      -0.00891232
O       10.25376088       2.07145956       1.18831855       0.00328952      -0.00852898      -0.00950147
C       11.56085197       1.80429150       1.70913468       0.00370049       0.00039416      -0.00511593
C       11.55067413       1.59269563       3.20953161       0.00043622       0.00292865      -0.00468683
H       11.99111640       0.93777293       1.19674191       0.01011577       0.00204664      -0.00245604
H       12.15684924       2.67881864       1.44627686      -0.00040014       0.00328892      -0.00501987
H       12.56506740       1.42538319       3.57676870       0.00028314       0.00846754      -0.00178847
H       11.14488961       2.46954625       3.71655629      -0.00519658       0.00196069      -0.00739668
H       10.95257097       0.71844739       3.48074436       0.00356208       0.00055984      -0.00518964
H        9.71595800       1.30788398       1.41257546       0.01235235      -0.01893848      -0.02327502
O       10.63396886       8.30934010      12.35394454       0.00088948       0.00732297       0.00467172
C        9.54003412       7.47476132      12.70809034      -0.00087577       0.00814342       0.00136547
C        9.81453134       6.00978764      12.43142864      -0.00133795       0.00795269       0.00137129
H        9.27680401       7.61437195      13.76548438      -0.00359469       0.00786389       0.00077635
H        8.68584319       7.80884988      12.11665236       0.00093240       0.00924973      -0.00077096
H        8.97770496       5.39699868      12.76562139      -0.00262237       0.00846169      -0.00077192
H        9.96020245       5.85141619      11.36269543       0.00096984       0.00806547       0.00171027
H       10.71380770       5.67516259      12.95454380      -0.00285713       0.00703906       0.00363320
H       11.34960426       8.07215378      12.96291960      -0.00066167       0.00533639       0.00595746
O        3.28855289       7.56175214       2.23944911       0.00100040      -0.00129439      -0.00155476
C        1.93454287       8.00242908       2.35573183       0.00082764      -0.00119883      -0.00235495
C        1.70216802       8.78829188       3.63069353       0.00005392      -0.00072324      -0.00258887
H        1.65830187       8.58551881       1.47335077       0.00153284      -0.00100842      -0.00263697
H        1.31794828       7.10258065       2.35138927       0.00053900      -0.00089908      -0.00267649
H        0.65284343       9.07104352       3.72768953      -0.00021124      -0.00118632      -0.00331368
H        1.97483572       8.18409909       4.49683309      -0.00032324      -0.00049965      -0.00213571
H        2.30084359       9.69988414       3.64880779      -0.00029163      -0.00051360      -0.00250776
H        3.81417862       8.26672463       1.83241396       0.00109829      -0.00245479      -0.00339529
O        7.11753992       4.03836555      11.67114282       0.00320476       0.00102001      -0.00212345
C        8.16508925       3.26519637      11.12003273       0.00620091       0.00455397      -0.00094175
C        7.60738672       2.10825063      10.30566627       0.01138583       0.00451303      -0.00507063
H        8.79088379       3.90370430      10.49088452       0.00643578       0.00699234       0.00156140
H        8.79663693       2.89255270      11.93373250       0.00558829       0.00440201       0.00010774
H        8.42950765       1.46459684       9.96202557       0.01321026       0.00818259      -0.00748193
H        6.93546937       1.47773115      10.89589258       0.01221465      -0.00014631      -0.00734383
H        7.03757595       2.46924387       9.45123972       0.00988390       0.00478122      -0.00450717
H        7.07752563       4.96310227      11.23902029       0.00088216       0.00147700      -0.00076558
O        4.43364014       9.50483816       0.47778844       0.00729410      -0.00540984       0.00007033
C        5.06664011      10.77411751       0.39235455      -0.00085923      -0.00044525      -0.00436718
C        6.53852347      10.73487238       0.75065964      -0.00304818       0.00780809       0.00771736
H        4.91259339      11.15071907      -0.63368776       0.00341568      -0.00867974      -0.00584719
H        4.51005168      11.42280836       1.08456824      -0.00939558       0.00059672      -0.01260185
H        6.96145360      11.74967264       0.81192614      -0.00597260       0.00937654       0.00817443
H        6.70295132      10.28099918       1.72801634      -0.00800189       0.01230946       0.01027030
H        7.10895231      10.19118604      -0.00341333       0.00585268       0.00728559       0.01472512
H        4.61482859       9.01535957      -0.33202857      -0.00386193      -0.00041834      -0.00608122
O        0.70864079       2.54269305       9.82844043       0.00311453      -0.00644857      -0.00331604
C        0.76383942       3.29678662      11.03984460       0.00137399      -0.00119709      -0.00451601
C        1.08038598       2.44207860      12.24590590      -0.01274399       0.00054717       0.00014621
H        1.49677562       4.10595681      10.93880173       0.00738680      -0.00638133      -0.00310496
H       -0.21530405       3.76512894      11.17652576       0.00351691       0.00588743      -0.01415787
H        1.08674069       3.05408622      13.15056191      -0.01542821       0.00383891      -0.00226003
H        0.34577639       1.64497313      12.37179085      -0.01996437       0.00680335      -0.00271121
H        2.05671236       1.96731346      12.15399092      -0.01557879      -0.00684108       0.00993760
H        1.15076392       1.67850731       9.95651231       0.01144755      -0.00036959      -0.00121528
