193
Lattice="13.638896173794263 0.0 0.0 0.0 13.638896173794263 0.0 0.0 0.0 13.638896173794263" Properties=species:S:1:pos:R:3:forces:R:3 energy=-115646.3515625 stress="0.0008034656057134271 -0.0005578901618719101 3.6718211049446836e-05 -0.0005578901618719101 0.0009955833666026592 -0.0002221974209533073 3.6718211049446836e-05 -0.0002221974209533073 0.0012620791094377637" pbc="T T T"
Be       7.53768631       0.88046481      11.90799831       0.01562074      -0.01667088       0.01157446
Be      12.43044210       8.13789846      -0.66977338       0.01859671      -0.01393917      -0.00013810
Be      13.75624695       4.06208392       1.53926526       0.01229897       0.00405157      -0.00213027
P       13.12298962       2.62262778      13.78163608       0.01002627       0.02296391      -0.01602115
O       12.93388753       1.18883689      14.11104927       0.01127574      -0.01385832       0.01126528
O       12.85290831       3.10639238      12.38930622       0.00917965      -0.00804913       0.01363373
O       12.37076542       3.60180066      14.89617060       0.01198387       0.00302237       0.00011754
O       14.59162840       3.20443005      14.29821717       0.01113272       0.00177306      -0.00064749
P        8.82380221       0.44350711      10.37678851       0.01695661       0.03904223      -0.01254565
O        7.15697284       0.58721900      10.53382313       0.01088440      -0.02228379       0.01406063
O        8.98238723       0.77469001      12.00097766       0.01939136      -0.02059460       0.00559485
O        9.23521682      -0.95452195      10.07393303       0.02033621      -0.04483497       0.00028920
O        9.32039663       1.56805348       9.52935199      -0.00657329      -0.04404247       0.02201569
O        0.94023455       2.19223895      10.18914968      -0.00236112       0.00166397       0.00726330
C        1.87585876       1.88048459      11.20583795       0.00156736      -0.00294286      -0.00028491
C        1.66384258       0.47311543      11.75388550      -0.00202648      -0.00169671       0.00303340
C        3.25872685       2.04653008      10.60232229      -0.00130284      -0.01118321      -0.00966311
H        1.75136902       2.58521384      12.03851465       0.01219738      -0.00227952       0.00121552
H        2.36294644       0.27247996      12.56968177       0.00126082      -0.00410851      -0.00035952
H        0.65776866       0.37094432      12.16185944      -0.00030658       0.00348746       0.00807902
H        1.82161193      -0.26030238      10.95829192      -0.00981633      -0.00336022       0.00274111
H        4.03222781       1.89302034      11.35776555       0.00306614      -0.01623657      -0.01506276
H        3.37455673       3.04574616      10.17923422       0.00179646      -0.01163760      -0.00990570
H        3.41636976       1.32539651       9.79665873      -0.01122095      -0.01175514      -0.01057599
H        0.07922992       2.35011093      10.61757179       0.00007713       0.00894262       0.01674596
O        4.02038772       2.99424528       4.55126090       0.00312972       0.00729805       0.01451135
C        3.04633683       2.02948029       4.99095557       0.00023431      -0.00730142       0.00184391
C        1.63853320       2.59277526       4.90884525       0.00099379      -0.00149086      -0.00468893
C        3.19249449       0.73516305       4.21186771       0.01043034      -0.00771511      -0.00073889
H        3.30135911       1.86739030       6.04016969      -0.00918844      -0.00932636       0.00432891
H        0.93288540       1.92026259       5.40000357      -0.00394914      -0.00166018      -0.01156662
H        1.59024372       3.56234441       5.40641986      -0.00473561      -0.00265384      -0.00033092
H        1.33177203       2.68734633       3.86324539       0.00440526       0.00224624      -0.00571582
H        2.52531836      -0.03093940       4.60833495      -0.01600723      -0.00765431      -0.00598231
H        4.21602267       0.36320096       4.26734885       0.00797947       0.00604155       0.00094155
H        2.92807083       0.88842161       3.16212840       0.00985326      -0.00098746       0.00839418
H        3.96750514       3.06052895       3.59151571       0.00385575       0.00411169       0.01363221
O        8.46438736       2.99603586       2.65304620       0.00248786       0.00090045      -0.01203740
C        8.79317526       3.85227380       3.74598464       0.00294421      -0.00362998      -0.00791135
C       10.13625605       4.52397537       3.52376542       0.00187367       0.00000930      -0.00637166
C        7.65398653       4.84494261       3.86624920       0.00228679      -0.00481701      -0.00317651
H        8.84014408       3.26040560       4.67245173       0.00482836      -0.00824249      -0.01142746
H       10.41128560       5.13838863       4.38260081       0.00715315      -0.01328443       0.00131121
H       10.92114421       3.78592029       3.35240762       0.00053191       0.00305785      -0.02292153
H       10.09924469       5.15961591       2.63807255      -0.00407652       0.01385693       0.00412965
H        7.82840524       5.52973149       4.69693921       0.00231718      -0.00769327      -0.00069739
H        6.70658280       4.33035404       4.02914699       0.00236958      -0.00548518      -0.00469168
H        7.57438318       5.42879405       2.94720154       0.00214401      -0.00116728      -0.00096720
H        9.20632414       2.39976500       2.50394829      -0.00598283      -0.01104076      -0.00267146
O       11.87657161       2.32905822       9.21122697      -0.00177216       0.02476585      -0.00342202
C       12.19196202       2.07548172       7.86224751      -0.00462150       0.01062873       0.00402856
C       12.22057583       0.58021467       7.55224403      -0.00261730       0.00711977       0.01676075
C       11.22581408       2.81594825       6.93988631      -0.00252175       0.00055358      -0.00745487
H       13.20357127       2.47444656       7.72114325      -0.00336403       0.00968760       0.00065253
H       12.47748595       0.40354339       6.50363737      -0.00051459      -0.00314274       0.01907072
H       12.96114580       0.08656695       8.18223429      -0.00281158       0.01409516       0.02279115
H       11.24110718       0.13760939       7.74795213      -0.00266629       0.00928909       0.01967793
H       11.51105209       2.71710528       5.88955072      -0.00023969      -0.00985383      -0.00570968
H       11.21170493       3.87473858       7.20487233      -0.00290186       0.00343627      -0.01834652
H       10.21640919       2.41949479       7.07204221      -0.00210090       0.00164787      -0.00481842
H       10.95600443       2.01927271       9.37576903      -0.00730357       0.00929558       0.00314480
O        8.83728677       6.36171683      12.39173090      -0.00064069      -0.00305027      -0.00833434
C        9.91886800       5.47405215      12.03450545       0.00450122      -0.00027183      -0.00397684
C       11.10371541       5.64325439      12.95948990      -0.00078899       0.00207895       0.00376213
C        9.49225923       4.01904950      12.02462060       0.00517857      -0.00107062      -0.01073732
H       10.17760851       5.77804801      11.01398511       0.00823143       0.00034362      -0.00343376
H       11.97503195       5.09611538      12.58488489       0.00737263       0.01479724       0.00354224
H       11.33713910       6.72219019      13.13054955      -0.00852606       0.00099829       0.02257383
H       10.90129719       5.23260317      13.94964983      -0.00081015      -0.01319429      -0.00303540
H       10.33996986       3.38096185      11.77216520       0.00616685      -0.00242420      -0.00672292
H        8.69372098       3.84249909      11.30574719       0.01118261       0.00342723      -0.01817030
H        9.15682552       3.72914863      13.02489473      -0.00493754      -0.00531054      -0.01483484
H        8.58493604       6.13707678      13.29325621      -0.00738619      -0.00836624      -0.01150995
O       10.75535241       9.02830027       6.38606974       0.00369591       0.00161570      -0.00412577
C       10.86589552       7.62428978       6.13360949       0.00314081       0.00043440      -0.00190656
C       12.23110245       7.10513303       6.55016648       0.00320727       0.00142594      -0.00043616
C        9.73071729       6.85869010       6.79476317       0.00311357       0.00207752      -0.00058550
H       10.77815627       7.54538384       5.04777850       0.00333364      -0.00138804      -0.00188404
H       12.35252039       6.05293490       6.28584809       0.00561669       0.00198346      -0.00206890
H       13.01543861       7.68089880       6.06047847       0.00322185       0.00340441       0.00196660
H       12.35921132       7.18543750       7.63456824       0.00125331      -0.00005738      -0.00004560
H        9.77480664       5.79591102       6.55242020       0.00427012       0.00147662       0.00298977
H        8.76478223       7.24957677       6.47500232       0.00283657       0.00019588      -0.00262743
H        9.79029811       6.94224567       7.88435191       0.00228375       0.00558778      -0.00058250
H       10.80115960       9.16590101       7.33694109      -0.01589974       0.00130090      -0.00404786
O       -0.41212072       7.52435453       3.07511889      -0.01037467       0.00044647      -0.02114406
C        0.87064938       6.94925457       3.21718316      -0.00711292       0.01103455      -0.00880650
C        0.92900872       5.55679404       2.57982523       0.00753625       0.00860664      -0.00213884
C        1.95995167       7.82785098       2.63282583      -0.00970513       0.01612106      -0.00610474
H        1.02464000       6.83182492       4.29369550      -0.01413409       0.01788902      -0.00703663
H        1.89171695       5.07109425       2.74519839       0.01084465       0.01715976       0.00277548
H        0.12144177       4.95488840       3.04279375       0.01196599       0.00324861      -0.00144491
H        0.80303638       5.70530217       1.49099861       0.00950599       0.00346776      -0.00328110
H        2.93882465       7.36058256       2.75607741      -0.00780870       0.02254378      -0.00061608
H        1.96999062       8.80367962       3.11524002      -0.01597383       0.01694842      -0.00769193
H        1.77794281       7.97825793       1.56414608      -0.00609298       0.01274197      -0.00729334
H       -0.52126004       7.81677986       2.14965953      -0.00446299      -0.00629834      -0.02455193
O        4.71607083      10.58151642      10.82210131      -0.00273305      -0.01022983       0.02292869
C        5.97952887      11.24388146      10.63564656      -0.00728339      -0.00535761       0.01544799
C        6.98651056      10.81714322      11.68905811       0.00254941      -0.00366625       0.00741649
C        6.52438318      11.02017714       9.23973770      -0.01592989      -0.00134103       0.01103967
H        5.75738821      12.30432118      10.75131772      -0.01004960      -0.00631160       0.01873205
H        7.92170706      11.36064566      11.53948880       0.00143543      -0.00459148      -0.00141269
H        6.61700853      11.00914337      12.69401593       0.01175684      -0.00244200       0.01070850
H        7.18789331       9.74498082      11.60460289       0.00183441      -0.00353996       0.00673611
H        7.47058361      11.55413065       9.12832904      -0.01895389       0.00185455       0.00416047
H        5.81883398      11.37143393       8.48853140      -0.02287671      -0.00317373       0.01633800
H        6.70556052       9.95333996       9.06956952      -0.01313238      -0.00028506       0.00803442
H        4.84220057       9.65657321      10.58811601      -0.00038390      -0.01029916       0.02420751
O        3.07299834      11.39776920       0.85057648      -0.00926423       0.00132537       0.00722271
C        4.31102893      11.20013964       1.52918710      -0.00521815       0.00150650       0.00017562
C        4.92173808       9.85876719       1.15945446      -0.00675666       0.00222814      -0.00468588
C        5.25996739      12.36554738       1.28749020      -0.00744766       0.00224930      -0.00524177
H        4.04767447      11.18267673       2.58850864       0.00081019       0.00084619       0.00173378
H        5.85879874       9.70188715       1.69390914      -0.00390150       0.00166770      -0.00961202
H        4.23277172       9.05452940       1.41591406      -0.00516258       0.00146629      -0.00255990
H        5.11225990       9.81143687       0.08528723      -0.01214453       0.00431836      -0.00583619
H        6.20107438      12.23571484       1.82479558      -0.00284816       0.00096616      -0.01340920
H        4.79618814      13.30218210       1.59815575      -0.00472842       0.00154077       0.00047579
H        5.49773413      12.44202500       0.22270309      -0.01666430       0.00422748      -0.00755279
H        3.25026742      11.39025455      -0.09692489      -0.01535024      -0.00166443       0.00649636
O        4.52315556       4.19728980      13.66628333       0.00034589      -0.00665861       0.01035868
C        5.43018927       5.08406358      13.01453077      -0.00273946      -0.00574917       0.00731951
C        5.76103011       4.63956274      11.60017665      -0.00632140      -0.00521803       0.00607193
C        4.92426577       6.51848848      13.03906235      -0.00425735      -0.00608516       0.00892405
H        6.33744324       5.01809314      13.62260714      -0.00088674      -0.00462486       0.00478548
H        6.54986363       5.26732558      11.18282112      -0.00908771      -0.00343484       0.00345971
H        6.10341779       3.60456784      11.58055060      -0.00395912      -0.00464167       0.00524286
H        4.88010333       4.71046229      10.95863302      -0.00876480      -0.00736846       0.00925660
H        5.67487724       7.19859590      12.63014394      -0.00594677      -0.00491446       0.00747657
H        4.69316507       6.82967389      14.05680720      -0.00205305      -0.00678789       0.00978753
H        4.01792951       6.61469137      12.43491486      -0.00588265      -0.00684733       0.01123555
H        3.69118445       4.16814291      13.17806176      -0.00228137      -0.00683250       0.01463231
O        6.08184808      10.59826073       4.10976127       0.01043456       0.00131470      -0.00433418
C        6.26356081       9.73109904       5.23438435       0.00317347       0.00053699      -0.00366700
C        7.52818910      10.09500057       5.98553799      -0.00042534      -0.00158678       0.00376907
C        5.02500463       9.73538860       6.11596876      -0.00109583       0.00184121      -0.00954470
H        6.37673642       8.73531693       4.79461484       0.00426786       0.00062019      -0.00358798
H        7.68956085       9.43045587       6.83424968      -0.00585247      -0.00377752       0.00330006
H        8.40072230      10.03289120       5.33789382       0.00330928      -0.00062765       0.00868565
H        7.45939081      11.11166031       6.38388717      -0.00249486      -0.00239660       0.00576567
H        5.15318520       9.06314961       6.96614785      -0.00673780      -0.00036773      -0.01052999
H        4.14808172       9.41988687       5.55055119       0.00090711       0.00496080      -0.01439559
H        4.83995557      10.73659193       6.50942040      -0.00041558       0.00160146      -0.00794202
H        6.28043889      11.49441022       4.39995688       0.00929029       0.00093357      -0.00310485
O       12.09215007       8.48451298      11.45994171       0.01769921       0.01860371       0.01239821
C       11.33834727       9.74591657      11.03295780      -0.00006431       0.01510787       0.01287621
C       12.20719522      10.54959686      10.11028799      -0.00443423       0.01890400       0.00843894
C       10.02359454       9.32133233      10.44617830       0.00241184       0.00714900       0.00882049
H       11.21121660      10.24439046      11.99610527      -0.00169070       0.00708662       0.01657769
H       11.69220387      11.49484111       9.92598452      -0.00890318       0.01049682      -0.01982222
H       13.18156043      10.75465743      10.55008195       0.00331193       0.02405655       0.01785648
H       12.34610146      10.04524113       9.15076284       0.01531789      -0.00258693       0.02231570
H        9.46169908      10.22551254      10.20446449       0.00904840       0.00705585      -0.00941655
H        9.44999128       8.70438836      11.13756658      -0.01015495       0.01823996       0.00897831
H       10.17548373       8.76013134       9.51828346       0.00866500      -0.00446237       0.01718469
H       12.00879107       7.77816607      10.80352553       0.04012434       0.02597797       0.00476736
O        9.26793256      13.08334892       1.61422935       0.00178725       0.00710899      -0.03393684
C       10.34226466      12.18203338       1.92375558       0.00373906       0.00627294      -0.00571543
C       11.54387504      12.92748338       2.47088035       0.00491220       0.00092596       0.00305352
C        9.80330700      11.15851534       2.90302620      -0.01224110       0.01155257      -0.01000088
H       10.63707786      11.66349251       1.00001136       0.01622126       0.00134814      -0.00018829
H       12.35866359      12.22738709       2.66681520       0.00472640      -0.01080959       0.01557121
H       11.92009440      13.67853392       1.76785424       0.01162630      -0.00627470       0.00971827
H       11.27693862      13.40991182       3.41440990      -0.00175730      -0.00218314      -0.00640262
H       10.54359205      10.37397898       3.06804228      -0.01388712       0.01521226       0.01045034
H        8.88148794      10.70504888       2.53711758      -0.00287017       0.00654156      -0.02330830
H        9.60042935      11.62972812       3.86642452      -0.02795324       0.01950830      -0.01896477
H        9.57068333      13.64402054       0.89006439       0.02406660      -0.00385386      -0.03537313
O        4.77033314       3.74890001       7.33836303      -0.00252181       0.00103182      -0.00583196
C        5.96837672       3.20375550       7.92127620      -0.00468755      -0.00056811      -0.00210457
C        6.42995930       1.96168582       7.18286414      -0.00548780      -0.00302923       0.00150350
C        7.06782573       4.25170480       7.98847002      -0.00281817      -0.00254202      -0.00136699
H        5.68594851       2.92307537       8.93851677      -0.00746739       0.00198354      -0.00178474
H        7.31745043       1.55605110       7.67137945      -0.00809991      -0.00475290       0.00543153
H        5.65022510       1.19916485       7.18147680      -0.00773346      -0.00099044      -0.00045811
H        6.67824835       2.20666094       6.14582775      -0.00101119      -0.00517967       0.00204889
H        7.93769529       3.84409540       8.50896894      -0.00514430      -0.00277711       0.00207432
H        6.71906584       5.14383396       8.51043849      -0.00292111      -0.00047493      -0.00473639
H        7.37335938       4.54222976       6.98025001       0.00061393      -0.00565387      -0.00139216
H        4.82474366       3.67895989       6.37483591      -0.00560443      -0.00900700      -0.00459511
O        2.35944697       5.41450122       7.30205253      -0.00343934      -0.00378114      -0.00630850
C        1.90475520       6.25005554       8.35940052       0.00161427      -0.00420147      -0.00375378
C        1.02391731       5.49189271       9.34266512       0.00182343      -0.00353849      -0.00333893
C        3.06720752       6.94839088       9.05162188       0.00717729      -0.01057583      -0.00693282
H        1.29607315       7.01233402       7.86034127       0.00231308      -0.00125033      -0.00093266
H        0.64148174       6.16845064      10.11395886       0.00679886      -0.00423364       0.00034193
H        0.18020196       5.02197141       8.83709058      -0.00216284       0.00172830      -0.00140211
H        1.56846189       4.69040998       9.84319294      -0.00016733      -0.00736178      -0.00717688
H        2.70353919       7.64779109       9.80740564      -0.00217209       0.00582562       0.00377844
H        3.66869029       7.49805207       8.32715735       0.00528998      -0.00802638      -0.00613408
H        3.70919910       6.21791541       9.54980121       0.00618926      -0.01279932      -0.00989515
H        3.10211122       4.86894952       7.60640320      -0.00045444      -0.00227891      -0.00972260
