200
Lattice="13.938290312923622 0.0 0.0 0.0 13.938290312923622 0.0 0.0 0.0 13.938290312923622" Properties=species:S:1:pos:R:3:forces:R:3 energy=-167900.78125 stress="-0.0005575691466219723 -0.00039024090801831335 0.00070969108492136 -0.00039024090801831335 -0.00038020306965336204 -1.2923072063131258e-05 0.00070969108492136 -1.2923072063131258e-05 -0.000613234587945044" pbc="T T T"
Li      10.16874075       6.39834487      12.29823270      -0.00043849      -0.00234111      -0.00821883
Li       9.35886380      11.02373264       3.38309816      -0.02189475       0.00462227       0.00540157
Li      12.60174184      12.20823992       4.70677660       0.03346395       0.02588980       0.00499666
P        0.40094115      11.50192507       3.23387477       0.01607753       0.00920209      -0.00580700
O        0.49989940      12.40411918       4.50159473       0.02857187       0.03000784      -0.02213275
O        1.60727040      10.59494916       3.03829805       0.01275623       0.00342226      -0.00726861
O       -0.91910308      10.70587961       3.51045869       0.01430666       0.02177179       0.01961026
O        0.21961180      12.39445105       1.99966759       0.01745896      -0.02049255      -0.02737451
O        8.25504384       4.03882601       7.53391189       0.00624774      -0.00424367      -0.00514475
O        6.06527020       4.35621261       7.11602390       0.00116658      -0.01479718      -0.00153885
C        7.61909692       6.14420426       6.69606806      -0.00602773      -0.00610268       0.00096744
C        7.19314204       4.77692496       7.12685934       0.00452727      -0.00732502      -0.00193077
H        8.31906742       6.56795603       7.41726077      -0.00836599      -0.00281138       0.00165690
H        8.13079027       6.06088212       5.73450723      -0.00531882      -0.00078531       0.00085670
H        6.75043673       6.78487653       6.58110806      -0.00934300      -0.01049711       0.00199834
H        7.94202819       3.18136149       7.88414924       0.01412681      -0.00737157      -0.00755050
O        7.02526756       5.24746376       9.92925308      -0.00276625      -0.01648750      -0.00011826
O        6.75827962       5.78848975      12.07573517       0.01590540       0.00002377      -0.00293284
C        4.81544248       5.64768561      10.65050032       0.00478137      -0.00095823       0.01355163
C        6.26424051       5.56810420      10.98300877       0.00754930      -0.00552360       0.00303876
H        4.49495936       6.68629679      10.75645976       0.00890666      -0.00031713       0.01857353
H        4.60717656       5.30247869       9.64090773      -0.00387231       0.00149880       0.01459137
H        4.25192708       5.06529250      11.37818158       0.00875802      -0.00083108       0.01677525
H        7.94528440       5.14846167      10.23188654       0.00045109      -0.01242529      -0.00703001
O        0.96320382       2.30496874       6.20190606       0.01741940      -0.01541138      -0.01569024
O       -0.06358317       3.11641169       4.39259317      -0.01175219      -0.00150754       0.00769159
C        1.56814803       4.48274478       5.50927557      -0.01123834      -0.00076026       0.00620827
C        0.74606653       3.25774085       5.29519844      -0.00286615      -0.00525451      -0.00005203
H        1.11003890       5.07982555       6.30121932      -0.01561484      -0.00810491       0.00909927
H        2.56836715       4.23621584       5.86085458      -0.00917509       0.00464880       0.00367799
H        1.60772085       5.06335713       4.59297086      -0.01629773       0.00352535       0.00887203
H        0.33610492       1.58343706       6.02953875       0.02640790      -0.02148432      -0.02296925
O       10.52026484      12.68404490       8.99203505       0.01721722       0.02791739       0.01143360
O       11.74857351      11.98990555       7.26262978      -0.00823521       0.01400932      -0.00138366
C       12.01594016      10.90171876       9.39896585       0.00222825       0.01131490      -0.00449497
C       11.44825255      11.89393052       8.44008196       0.00289500       0.01804422       0.00197062
H       12.19025792      11.34962338      10.37653027       0.00616251       0.00388873      -0.00196293
H       11.29346671      10.09342193       9.53942390       0.00092199       0.01160422      -0.00925980
H       12.93332117      10.48215072       8.99573802      -0.00039142       0.01161356      -0.01045768
H       10.16700344      13.26121597       8.29648980       0.01364750       0.03027976       0.01513875
O        7.75694942       7.70546179       3.56491274      -0.01647061      -0.00314713      -0.00480562
O        8.05776958       9.80905139       2.90962456      -0.01827797       0.00083112       0.00779197
C        7.66578924       9.37384044       5.23783436      -0.00759781      -0.01572666       0.00663197
C        7.84847190       9.00020687       3.81113335      -0.01442005      -0.00597700       0.00277779
H        6.60043600       9.29940637       5.47592046      -0.00559971      -0.02385435       0.01217219
H        8.19195822       8.68952457       5.90066173       0.00145578      -0.01635779      -0.00126076
H        8.00170080      10.39258531       5.41257642      -0.01346586      -0.01477972       0.01048070
H        7.70060749       7.59299833       2.59204090      -0.02035955       0.00255319      -0.00682402
O        2.27256188       2.34935968       2.68221376      -0.01688302      -0.00729103      -0.01068317
O        2.64274518       4.55726817       2.54168188      -0.01473534      -0.00543606       0.00980850
C        4.51984435       3.05767730       2.63118559      -0.01617122      -0.00945808      -0.00777790
C        3.06929282       3.42990958       2.60070284      -0.01513630      -0.00994712      -0.00158308
H        4.78005165       2.72599491       3.63908901      -0.01317100      -0.01092829      -0.00882700
H        4.72532744       2.22882870       1.95461989      -0.01862015      -0.00864966      -0.00946199
H        5.11660937       3.92581145       2.37542415      -0.01606865      -0.00955737      -0.00750925
H        1.35205551       2.64553215       2.77994436      -0.01615816      -0.00666860      -0.00659784
O       11.96000047       9.55456440       6.18063953      -0.02600980       0.00401217       0.00674733
O       10.50984351      10.53059682       4.79614090      -0.01462452       0.00171649      -0.00589141
C       11.02436112       8.19874420       4.50300661       0.00069667       0.00590813      -0.00941160
C       11.15155247       9.53524245       5.13992746      -0.01487425       0.00361356      -0.00248840
H       11.76348161       7.50352795       4.88151845       0.00446256       0.01107657      -0.00736615
H       10.03426101       7.79012431       4.71403454       0.00302371      -0.00397179      -0.01772157
H       11.12821035       8.28593854       3.42227512       0.00629737       0.01197731      -0.00824392
H       11.99156486      10.47280795       6.54848966      -0.02709305       0.00550523       0.00176475
O       11.69131598       7.08616782      13.08048772      -0.00288824       0.00540987      -0.00394285
O       13.07704266       8.85273563      12.92843482       0.02205518      -0.01845717      -0.00884542
C       12.65446156       7.56502986      10.95308182      -0.01820659       0.00356369      -0.01056135
C       12.50770462       7.94313099      12.39486352       0.00539184      -0.00106144      -0.00516182
H       13.19230784       6.61713017      10.91807026      -0.02036938       0.00281915      -0.02306657
H       11.69077449       7.41974667      10.46102753      -0.02661042       0.00906308       0.00556901
H       13.22987962       8.32206973      10.43128828      -0.02473886       0.00479099      -0.01575517
H       11.95331456       7.12598465      14.11414827      -0.00062844       0.00666691      -0.00660807
O        9.01193000       1.53795879       4.37604573       0.00657344      -0.00521195       0.01544574
O        7.98691719       3.53079006       4.27816803      -0.00485834      -0.01503938      -0.00874546
C        6.90598527       1.69426435       5.42403285      -0.00334740      -0.01001707      -0.00327295
C        7.97334112       2.38544835       4.65099160      -0.00095451      -0.00687766      -0.00120515
H        6.43589229       0.92374895       4.80528202       0.00075208      -0.01145691      -0.00445643
H        7.34219751       1.18371555       6.28522305      -0.00594762      -0.00806355      -0.00106454
H        6.16788998       2.41507976       5.76090461      -0.00577946      -0.01070990      -0.00737471
H        9.70329983       2.05000631       3.92914552       0.00458360      -0.00450158       0.01237157
O        4.27620158       8.77688096       9.24088534      -0.00220585       0.00238487       0.00570381
O        2.90044550       7.33516769       8.21225366      -0.00967180       0.00389713       0.01666689
C        1.96914500       9.26378526       9.31476224      -0.00162280       0.00316894       0.02241182
C        3.05594112       8.34528272       8.85501093      -0.00531932       0.00164109       0.01429188
H        1.95787865       9.34199422      10.40318454       0.00383339       0.00105147       0.02249211
H        2.15511391      10.26358204       8.92037165      -0.00243212       0.00406072       0.02432957
H        1.01764913       8.89181500       8.94512465      -0.00405201       0.00468782       0.02750670
H        4.90614596       8.28346593       8.69551707      -0.00723180       0.00549275      -0.00326002
O       11.80543185      12.61019652      12.49263101       0.01103905      -0.01250553       0.00047156
O       10.20623712      13.98580404      13.25538026       0.01977937       0.01003742      -0.02276364
C        9.57581594      11.86372840      12.30534280       0.00459498       0.00929961      -0.01028773
C       10.52372399      12.93859336      12.74525408       0.01257706       0.00304455      -0.01199764
H        9.39086569      11.99405458      11.23709899       0.00677300       0.00894523      -0.01054832
H       10.01181983      10.87660892      12.46189017      -0.00425331       0.00596903      -0.00742941
H        8.63357122      11.96537445      12.83754184       0.00442773       0.01900840      -0.01253158
H       12.36351015      13.31873693      12.84790120       0.01579815      -0.01540136      -0.00142273
O        5.01147160       8.64474954       3.53851405      -0.01967645       0.02229041       0.01078829
O        3.28005140       7.44956110       2.78571367       0.00943899       0.00704329      -0.03601611
C        4.64366496       6.53343850       4.55132864      -0.01524958       0.01017553      -0.01488888
C        4.21467529       7.54654648       3.54011629      -0.00500482       0.01456228      -0.01341981
H        5.69658444       6.28490209       4.41229534      -0.01446410       0.01065017      -0.01053131
H        4.54029217       6.94860144       5.55647414      -0.01975714       0.00573936      -0.01362905
H        4.03510947       5.64261733       4.45095081      -0.01471330       0.01107804      -0.02472667
H        4.65551201       9.23432625       2.84783030      -0.01081151       0.02421519       0.00753278
O        9.43192257       3.65454735      10.21025002       0.00469290       0.00357504      -0.00118542
O        8.28841333       1.92948650       9.34134511       0.01573668      -0.00368112      -0.00139828
C        8.24446600       2.25700812      11.72548699      -0.00063463       0.00739335      -0.00295562
C        8.62182125       2.55657573      10.32212852       0.00754213       0.00144541      -0.00164130
H        8.94223306       1.51110940      12.11855039       0.00472897       0.01827058       0.00834875
H        8.31290191       3.13974112      12.35972286      -0.01598183       0.01324351      -0.00963028
H        7.24363776       1.83190430      11.76089966       0.00397429      -0.00351204      -0.00750829
H        9.65845244       3.73887517       9.26660112       0.01050156       0.00107360      -0.00000858
O        4.36954843       9.34685478       0.93670093       0.00034159      -0.00148934       0.00114948
O        3.33673508      10.54931939      -0.66597015       0.00332272      -0.01963551      -0.02028501
C        5.33052667      11.42910603       0.37540234       0.00190544      -0.00765949      -0.01747112
C        4.22153225      10.45032154       0.13031513       0.00920761      -0.00932817      -0.00484568
H        5.48547409      11.59136231       1.44493530      -0.00500171      -0.00208471      -0.01774538
H        6.26482182      11.01260624      -0.00837706       0.00725159      -0.00560157      -0.00909534
H        5.12530482      12.36287176      -0.14093452       0.00167900      -0.01086590      -0.02294131
H        3.56187031       8.80222851       0.90271852       0.00155985      -0.00176334       0.00842524
O        2.07476568       4.09561158      13.76351786      -0.01237695      -0.00389838       0.00386760
O        0.00131894       4.79301520      13.24058345      -0.00599484       0.00439504      -0.00814797
C        0.48059625       2.44365662      13.20285437      -0.01167157       0.00434381      -0.02270097
C        0.80209792       3.88627479      13.39808383      -0.01074240       0.00223610      -0.00860041
H        0.55526741       2.21425728      12.13662505       0.00095054       0.01167021      -0.02344835
H        1.16415957       1.80378890      13.75728098      -0.02007195      -0.00168185      -0.01963887
H       -0.54602663       2.27057219      13.52068475      -0.01622662       0.00507299      -0.03736041
H        2.20280305       5.00502895      14.08575901      -0.01224024      -0.00527656       0.00667408
O        7.21565756       8.45064386      11.55393878       0.00904387      -0.00987399      -0.00317323
O        9.15051538       7.40820877      11.17179741       0.00728747      -0.00609219      -0.02133349
C        8.40940552       9.08847979       9.62916228      -0.00058821       0.00676601      -0.00292316
C        8.30687463       8.24058089      10.84936702       0.00466409      -0.00445239      -0.01036833
H        7.50527521       8.98312030       9.02824512      -0.00297323       0.01545247      -0.00069261
H        8.47304672      10.14099490       9.91026439       0.00191468       0.00292107       0.01051643
H        9.28297259       8.80178492       9.05022376      -0.00281057       0.01299068      -0.00914307
H        7.11766711       7.72726774      12.20947095       0.01320615      -0.01544899      -0.00757760
O        3.19201557       2.51989433      11.60946047       0.01227829      -0.01101261       0.01639229
O        4.99307157       1.26044331      12.05485163       0.00363362      -0.02073889       0.02211624
C        3.49304883       0.58578800      10.29406560       0.00864214      -0.01052532       0.01509923
C        4.00114810       1.46073237      11.39407245       0.00912082      -0.01512575       0.01911902
H        2.66065491      -0.00396126      10.68348609       0.01832449      -0.02207907       0.01847439
H        3.08764708       1.17412147       9.47424681      -0.00326797      -0.00760397       0.02325475
H        4.27878837      -0.08151459       9.95596818       0.01171067      -0.00183828       0.00483863
H        3.49017465       2.96532010      12.41857650       0.00993365      -0.01369502       0.01850104
O        4.05716078      11.12130119       5.29475331      -0.00498652       0.00322258       0.02313185
O        4.74620963       9.37435994       6.51462645      -0.00680065      -0.00848448       0.00732195
C        2.47353237       9.46049872       5.68301686      -0.00720608       0.00299507       0.00931069
C        3.86341505       9.94187439       5.89359745      -0.00598657      -0.00141010       0.01282886
H        1.77989368      10.15079323       6.16911274      -0.00574775       0.00153685       0.01316895
H        2.21716277       9.55470998       4.61550430      -0.00468942       0.00869462       0.00913075
H        2.34790730       8.45398765       6.06796150      -0.01051664       0.00120954       0.00355447
H        4.97339510      11.41523333       5.40164588      -0.00173247      -0.00440679       0.01631536
O        6.74433297       7.38220015       0.95548088      -0.02509630      -0.00323889      -0.00482548
O        5.06744962       5.90304282       0.70306367      -0.02710062      -0.01672988      -0.02510349
C        7.31358203       5.07649120       0.99005997      -0.01209855       0.00263065       0.00792557
C        6.23809999       6.10744188       0.85152438       0.01227635      -0.00790837      -0.00472698
H        8.24146152       5.41222694       0.52703306      -0.00605297       0.00477555       0.01511223
H        7.51463379       4.89429636       2.04977343      -0.01656712       0.00745064       0.01046482
H        6.98023087       4.14837468       0.53431257       0.00292619      -0.00445434       0.01052848
H        5.98696299       8.00209683       0.96182562      -0.02178395      -0.00600123      -0.01418324
O        2.40430339       3.67511190       8.44520730       0.00595576      -0.00236982       0.00102341
O        0.73182242       2.63998014       9.53483079       0.01791567      -0.02303600       0.00197136
C        0.78884346       5.04406810       9.46788346      -0.00178194      -0.02108932       0.01414660
C        1.26616770       3.65692447       9.17128156       0.00969353      -0.01261878       0.00412028
H        1.23046447       5.37182546      10.41269495      -0.01126806      -0.02781671       0.02089827
H        1.10173773       5.75277424       8.70344620      -0.00174302      -0.01149400       0.02279533
H       -0.29160297       5.01676098       9.58124277      -0.00240475      -0.02917220       0.00650990
H        2.59700023       2.75977984       8.19815084       0.01542574       0.00038850      -0.00052533
O        9.29517658      13.02004329       3.08498277       0.01474451      -0.00188535       0.02550018
O       11.35941752      13.53783040       3.79090070       0.01975923       0.00646189       0.00232457
C       11.10577146      12.07359660       1.89540629       0.00698820       0.00314711       0.00697035
C       10.66113818      12.96939440       2.97897443       0.01333356       0.00039214       0.01173273
H       11.61453471      11.21027939       2.38520538       0.00514776       0.00151883       0.00299321
H       10.29845462      11.79941303       1.21859812       0.00379060       0.00464504       0.01008930
H       11.96700340      12.51418968       1.38827621       0.00173327       0.00783423       0.00269745
H        9.06779992      13.71475990       3.73941028       0.02074625      -0.00293240       0.02888930
O        3.37246007      13.45770293       2.60513222       0.01461491       0.00606346      -0.00148523
O        5.18409713      13.20357394       3.89264692       0.01588058      -0.02541599      -0.00933165
C        3.10539930      13.96956040       4.86759814       0.03419247       0.01072630      -0.00007373
C        4.00562101      13.51153475       3.77892242       0.02127838      -0.00479689      -0.00445458
H        2.71881021      14.95528441       4.61403927       0.04260411       0.01385932      -0.00040232
H        2.23203514      13.30030923       4.89697694       0.02814394       0.01901579       0.00590452
H        3.62940681      13.99289495       5.81859049       0.04032616       0.00795302      -0.00333481
H        3.97704407      13.06743475       1.96108465       0.00404868      -0.00571059      -0.00452095
O       12.00843810       4.96161973       5.27007491      -0.00022808       0.00781465       0.00782412
O       12.05704257       3.53275533       7.01014647       0.00800207       0.01804507       0.01643825
C       11.40910368       5.81755622       7.37749020      -0.00468858       0.01687860       0.00304306
C       11.84484303       4.63431919       6.56343069       0.00145446       0.01558656       0.00922073
H       12.23024893       6.53578170       7.43083670      -0.00744861       0.02003191       0.00205813
H       10.56959423       6.32124111       6.90262934      -0.00525102       0.01219852      -0.00095838
H       11.14471423       5.49442413       8.38072102      -0.00601429       0.02055687       0.00387412
H       12.44630600       4.21087263       4.81520674       0.00341411       0.00742352       0.01164308
O        0.54177809       6.71629018       1.01116559       0.00131470      -0.00475258       0.00121331
O       -1.59899395       7.12269108       1.53120279       0.00400847       0.01164454      -0.00225186
C        0.09664006       7.59271065       3.15279018       0.00612701       0.00534704      -0.00206321
C       -0.39650986       7.13531821       1.83620255       0.00266865       0.00531293      -0.00164789
H       -0.34277794       6.94009262       3.91111757       0.01449517      -0.00145467      -0.00281325
H        1.17800218       7.54053664       3.19403115       0.00660151       0.01105267      -0.00743515
H       -0.24430834       8.61768558       3.33921143       0.00154585       0.00207335       0.00517396
H        0.16654497       6.20694472       0.25060340      -0.00191280      -0.00154094       0.00074774
