188
Lattice="14.190230439316036 0.0 0.0 0.0 14.190230439316036 0.0 0.0 0.0 14.190230439316036" Properties=species:S:1:pos:R:3:forces:R:3 energy=-119520.28125 stress="-0.00015388485917355865 -0.00014697659207740799 -0.000355822267010808 -0.00014697659207740799 -0.0007133662002161145 -0.00037305102159734815 -0.000355822267010808 -0.00037305102159734815 -0.0009656920447014272" pbc="T T T"
Na       3.64691058       0.08458196       3.05200473       0.04192831       0.00527572       0.02103670
Na      -0.34460604      12.94821016       3.06709831       0.02315161       0.01976204      -0.01710654
Na      10.13791206      13.43793901      11.40636680       0.00144574       0.00055511       0.00667372
P        1.90098084      12.71488382       4.63798538      -0.00204512       0.00297815      -0.04246634
O        1.64451685      13.92302705       3.70384516       0.03316104       0.01274514      -0.01163423
O        2.27843528      13.01822826       6.05322374       0.02978894       0.02388263       0.00964189
O        0.84478207      11.66399556       4.38357389       0.02065855       0.03616631      -0.00223081
O        3.38203966      12.20486268       3.92964555       0.01645599      -0.00257811      -0.00212771
C       12.16531780      11.63276037       6.92090997       0.00632632      -0.00265174      -0.00119511
C       13.14535508      10.64400938       6.82221372       0.00321418       0.00893888      -0.00874255
C       10.82321299      11.25468242       6.84097826       0.00363624       0.00972725       0.00411334
C       12.54772236      13.07520546       7.07713321       0.00516084       0.00092164       0.00490472
C       12.78626550       9.31410996       6.63707492       0.00094330      -0.00538672      -0.01548888
C       10.46343364       9.92593638       6.64823276       0.00388178      -0.00528460      -0.00183869
C       11.44786979       8.94989227       6.54186749      -0.00022661       0.01103818      -0.00815262
H       14.19063179      10.92734277       6.85621698       0.00284049      -0.00042954      -0.01395504
H       10.05200100      12.01497255       6.92705364       0.00619253       0.00133464       0.00950540
H       11.81010952      13.61536725       7.67444087       0.00371519      -0.00067475       0.00319165
H       13.53405178      13.18675671       7.52688449       0.00312671      -0.00203720       0.01082275
H       12.58905786      13.57776041       6.10339047       0.01117228       0.00278753       0.00668156
H       13.55854931       8.55716590       6.56105563      -0.00005001       0.00380262      -0.02174360
H        9.41695023       9.65145009       6.58486760       0.00199530       0.00533294       0.00294294
H       11.17512856       7.91091283       6.40325236      -0.00082286       0.00183769      -0.01230241
C        3.34202729       9.15268964       5.80843652       0.00194396      -0.01239687       0.01970935
C        3.48615957       9.91175114       4.69072933      -0.00493935       0.00785699      -0.01069003
C        3.79271066       9.67227269       7.04596143       0.00504805      -0.00618063      -0.00417531
C        2.68295575       7.80479366       5.78085418       0.00585991      -0.00298530      -0.00102014
C        4.11242546      11.25447784       4.72259676       0.00030574      -0.00155579       0.01234935
C        4.35552885      10.93354288       7.16829174      -0.00725958      -0.00598454       0.02248880
C        4.42288759      11.76491477       6.07815629      -0.01229583       0.01066285       0.00311625
H        3.13954080       9.56044210       3.72708644      -0.00862712       0.00916701       0.01120898
H        3.65678286       9.07248407       7.93741281       0.01852954      -0.01651338       0.00193998
H        1.85438862       7.77468071       6.49227292      -0.00112785      -0.00341103      -0.00538500
H        2.29425541       7.57415059       4.79041543       0.01468842      -0.01002552      -0.00048089
H        3.37974459       7.01287637       6.06645638       0.00441700      -0.00277570       0.01091560
H        5.10116312      11.16479441       4.22575355       0.00676662      -0.00643519       0.02648774
H        4.64529282      11.29483346       8.14526749      -0.01052866      -0.00499719       0.00664884
H        4.80593707      12.77435349       6.15601651      -0.02344568       0.00201534       0.01509014
C       13.30858907       3.06683839       2.81822533      -0.00606486       0.00479895      -0.00933691
C       13.29586505       3.87503472       3.95589425      -0.00750464      -0.00404793      -0.00310168
C       13.15194222       3.66883828       1.57094774      -0.00173455      -0.00023707      -0.00376408
C       13.44679585       1.58002988       2.95180171      -0.00529566       0.00238529      -0.00779554
C       13.05518574       5.23900125       3.85537288      -0.00808069       0.00710007      -0.00694826
C       12.92211582       5.03589326       1.46498829      -0.00174324       0.01089313      -0.00559653
C       12.84147012       5.81849971       2.60930601      -0.00098240      -0.00124557      -0.00054841
H       13.46903500       3.42561714       4.92780148      -0.01208598       0.00016176      -0.00685941
H       13.19475781       3.05635955       0.67617500      -0.00081625       0.00718746      -0.00687192
H       13.72123051       1.13267016       1.99155032      -0.01131528       0.00246970      -0.00981037
H       14.21227637       1.30531312       3.67890295       0.00035876       0.00366454      -0.01306254
H       12.48944693       1.14839220       3.27529904      -0.00280115       0.00308451      -0.00096229
H       13.03351855       5.85118846       4.74965738      -0.00831492      -0.00094161      -0.00274369
H       12.79158568       5.49148800       0.49169401       0.00333200       0.00686476      -0.00256640
H       12.62932180       6.87604989       2.52802506       0.00045265       0.00614995      -0.00229348
C        9.17719059       2.48241397       5.83235477      -0.00554352       0.00094053       0.01142900
C       10.02540247       3.54688155       5.53928121      -0.00592184      -0.00105036       0.00187048
C        7.80434463       2.72506169       5.88847813      -0.00403464       0.00122371       0.01854962
C        9.72740494       1.10550715       6.06450285      -0.00411857       0.00205675       0.01593733
C        9.51979632       4.81421731       5.28110944      -0.00811896      -0.00101962       0.00047056
C        7.29285758       3.99083770       5.63733543      -0.00599603       0.00139562       0.01684595
C        8.15047342       5.03808181       5.32130333      -0.00620319      -0.00079271       0.00823295
H       11.09436779       3.37909631       5.49607548      -0.00703186      -0.00110783      -0.00369286
H        7.12832939       1.90268165       6.09950153      -0.00353924       0.00324935       0.02706924
H        9.12158050       0.34911424       5.56132986      -0.00292416      -0.00006892       0.01775757
H       10.74760398       1.02428659       5.68919578      -0.00377636       0.00166243       0.01756123
H        9.75005159       0.85283208       7.12978476      -0.00553260       0.00537663       0.01679692
H       10.20046694       5.62133633       5.03569256      -0.00839774      -0.00264394      -0.00614147
H        6.22244395       4.15685640       5.65955862      -0.00486913       0.00181933       0.02405537
H        7.74968564       6.02012466       5.10180037      -0.00770253      -0.00074692       0.00826268
C        8.51502346       4.20885442       1.92690898      -0.00551148      -0.00470498       0.00091948
C        7.24459021       3.68592782       2.16654403      -0.00672352      -0.00589103       0.00411025
C        9.61019115       3.35145145       2.01633583      -0.00721502      -0.00986749       0.00025600
C        8.70703927       5.66377060       1.61843186      -0.00379977      -0.00636908       0.00155776
C        7.08069931       2.34773127       2.48912381      -0.00723711      -0.00038357       0.00482651
C        9.44447990       2.00769039       2.33269728      -0.00725697      -0.00422426       0.00116420
C        8.17513167       1.49727328       2.57333520      -0.00843095      -0.00628179       0.00539074
H        6.38052836       4.33726874       2.10051158      -0.00594849      -0.00164401       0.00403490
H       10.60433256       3.74896534       1.85273791      -0.00577730      -0.01020660      -0.00247600
H        9.59861706       5.83139942       1.01334432      -0.00313750      -0.00636771       0.00249898
H        7.84867934       6.07518382       1.08480182      -0.00322501      -0.00568800       0.00120473
H        8.82617429       6.24024584       2.54077740      -0.00485468      -0.00705869       0.00207606
H        6.08104618       1.96863856       2.67425563      -0.00806340      -0.00073790       0.00724387
H       10.31314005       1.36277089       2.40944513      -0.00952544      -0.00906105       0.00126874
H        8.03970725       0.45271262       2.83051777      -0.00582982      -0.00350203       0.00611392
C        7.90229602       2.27468875      13.09835353      -0.01220551      -0.00548200      -0.00729557
C        7.36726693       1.05074622      13.49112140       0.00222190      -0.00101295      -0.00399412
C        7.03815565       3.36919924      13.01046636      -0.00017029      -0.00343163      -0.01553826
C        9.36771728       2.42845123      12.80598924      -0.00837103      -0.00355139      -0.01154990
C        6.01782689       0.92467564      13.80215941      -0.01513041      -0.00239927       0.00077846
C        5.68719410       3.24437837      13.29898558      -0.01883882      -0.00843878      -0.00876272
C        5.16880355       2.01762337      13.70172755       0.00120033      -0.00349346      -0.00723211
H        8.02039002       0.18887552      13.59052748      -0.00621998      -0.00066568       0.00113133
H        7.43391806       4.33987760      12.73883756      -0.01204452      -0.00837938      -0.01989109
H        9.77896951       3.29888631      13.32192465      -0.00600206      -0.00848112      -0.00643216
H        9.92968983       1.56099580      13.16313520      -0.00872089      -0.00663264      -0.01889533
H        9.56903475       2.56430969      11.73898457      -0.01179769       0.00376679      -0.01086450
H        5.63480016      -0.03756472      14.11916747      -0.00364859      -0.00148619       0.00186240
H        5.04039096       4.11079839      13.22962574      -0.00908863      -0.00793558      -0.01605312
H        4.11056195       1.92176797      13.91963029      -0.00946514      -0.00534787      -0.00415491
C       10.01728550       5.80164651       8.76917966       0.00225943       0.00109483       0.00212064
C       11.09113570       6.64823507       9.04129665       0.00705267      -0.00375038       0.00020583
C       10.22638421       4.42435546       8.83184427      -0.00178367       0.00007632       0.00062250
C        8.68158728       6.37579227       8.40466918       0.00362891       0.00601055       0.00659842
C       12.34009505       6.13681161       9.35910404       0.00410759      -0.00776325      -0.00330686
C       11.47918417       3.90810650       9.14533138      -0.00425990      -0.00439570      -0.00372642
C       12.54255290       4.76276502       9.40900745       0.00119379      -0.00889468      -0.00494403
H       10.93930551       7.72065742       9.01899973       0.01042464      -0.00256340       0.00108672
H        9.40282624       3.75443045       8.61104480      -0.00517780       0.00329045       0.00168761
H        7.89728971       5.62044015       8.44217051       0.00181906       0.00784899       0.00397404
H        8.41534615       7.20069768       9.06588611       0.00666383       0.00317174       0.01122774
H        8.69646060       6.76951116       7.38641204       0.00372081       0.01130268       0.00866121
H       13.15100562       6.81343170       9.59448292       0.00817174      -0.01153334      -0.00406972
H       11.63460050       2.83532766       9.16636050      -0.00709812      -0.00474517      -0.00601805
H       13.51852279       4.36292546       9.65443830      -0.00056816      -0.01210821      -0.00841954
C        2.12847071      10.00210249       1.03829533       0.00519790      -0.00658351      -0.00916941
C        1.20965973       9.54689404       1.98368178       0.00986335      -0.00191197      -0.00450712
C        2.96245838       9.07217571       0.41881689      -0.00038366      -0.00734420      -0.01466137
C        2.26825935      11.46731091       0.74051177       0.00638758      -0.00665718      -0.01261844
C        1.12361882       8.19682768       2.29503959       0.00800025      -0.00463149      -0.00302592
C        2.87982130       7.72074159       0.73212448      -0.00284147      -0.00942137      -0.01240839
C        1.95433689       7.27551107       1.66896508       0.00267053      -0.00406733      -0.00831581
H        0.60631375      10.25474579       2.53844086       0.01364761      -0.00166775      -0.00211367
H        3.68167889       9.41191000      -0.31781761      -0.00481261      -0.01087387      -0.01855635
H        2.61557711      11.63580311      -0.27950826       0.00275128      -0.00951964      -0.01427795
H        1.32354484      11.99756082       0.87447973       0.00772467      -0.00510829      -0.01069219
H        2.98124212      11.91562901       1.43900382       0.00922954      -0.00508031      -0.01689334
H        0.42051710       7.86935801       3.04900091       0.01141907      -0.00123218       0.00014101
H        3.54060101       7.01477867       0.24357131      -0.00689644      -0.00977534      -0.01696222
H        1.88366553       6.22350042       1.91656367       0.00094559      -0.00550930      -0.00683904
C        6.07397736      12.36645555      11.53832962       0.00155450      -0.00383082      -0.00425158
C        4.84968787      13.02514708      11.64339478       0.00369592      -0.00570276      -0.00441888
C        6.75245217      12.43827747      10.32051236       0.00626351      -0.00274457      -0.00170673
C        6.63939309      11.59612677      12.69693096       0.00028276      -0.00595054      -0.00381640
C        4.31738553      13.73299203      10.57298645       0.00401366      -0.00088803      -0.00585220
C        6.22788761      13.15020069       9.24627290       0.00627465       0.00157688      -0.00277413
C        5.00543302      13.80006091       9.36792999       0.00952418      -0.00028275      -0.00244318
H        4.30455872      12.98375648      12.58018937       0.00049134      -0.00573358      -0.00684151
H        7.69240695      11.90789883      10.20149528       0.00528351      -0.00145239      -0.00170559
H        7.73268208      11.62157657      12.70563526      -0.00014041      -0.00144676       0.00097910
H        6.28646337      11.99443975      13.64977838      -0.00579207      -0.00981523      -0.00460525
H        6.35057995      10.54058511      12.66646007       0.00457434      -0.00692752      -0.00793179
H        3.36285573      14.23390757      10.67777878       0.00588252      -0.00178889      -0.00578945
H        6.77332477      13.18475014       8.31015005       0.00956254       0.00178891      -0.00089750
H        4.57639714      14.33377161       8.52919565       0.01011699       0.00408764      -0.00258330
C        2.20687711       7.72478374       9.80406906      -0.00284711      -0.00751770       0.00006510
C        3.44684575       8.02788675      10.37111376      -0.00201297      -0.00176250       0.00613555
C        1.24518320       8.73369693       9.73627487       0.00043115      -0.00437477      -0.00429688
C        1.92296947       6.34698501       9.28026304       0.00107604      -0.00803101       0.00453305
C        3.71776946       9.30398888      10.84901490      -0.00664495      -0.00629155       0.00014565
C        1.50713465      10.00611876      10.23002381      -0.00530326      -0.00801837      -0.01066009
C        2.74554457      10.29610564      10.78561010      -0.00284333      -0.00080299      -0.00374326
H        4.21243980       7.26030401      10.41560669      -0.00369296      -0.00492016       0.01014035
H        0.28541986       8.53232102       9.27436957      -0.00034073      -0.00849108      -0.00823427
H        1.12520287       6.35945935       8.53797662       0.00130384      -0.01120351       0.00386910
H        2.80944192       5.90845191       8.82025245       0.00164199      -0.00809474       0.00598983
H        1.60992176       5.67820173      10.08681784       0.00152920      -0.00655216       0.00584465
H        4.69541328       9.53175115      11.25802640      -0.00642107      -0.00174749       0.00521979
H        0.74669091      10.77499019      10.16618616      -0.00242630      -0.00535382      -0.01410272
H        2.96241430      11.29152959      11.14691340      -0.00664697      -0.00332984      -0.00809856
C        8.88089736       7.37635888      11.90753027      -0.00057283       0.00806532       0.00550090
C        9.61932669       6.22170570      12.16668274      -0.00246701       0.00795104       0.00575228
C        9.55433645       8.59824550      11.89532886      -0.00440172       0.00759149       0.00338658
C        7.40146987       7.29905718      11.65897893      -0.00165942       0.00599269       0.00625314
C       10.97732419       6.28232674      12.44334142       0.00197960       0.01049145       0.00409384
C       10.91880627       8.66366520      12.15615572      -0.00048565       0.00962779       0.00320699
C       11.63380155       7.50749624      12.44680167      -0.00287032       0.00971668       0.00192909
H        9.12871568       5.25808925      12.12372525       0.00008147       0.00850069       0.00921561
H        9.00217140       9.50489201      11.66833434      -0.00335153       0.00719910       0.00340713
H        7.05271287       8.14294088      11.06155613      -0.00259562       0.00549944       0.00609531
H        7.13714930       6.38069408      11.13243228      -0.00089180       0.00587451       0.00665586
H        6.84355365       7.30911962      12.60071182      -0.00104740       0.00580867       0.00651774
H       11.52841584       5.36585436      12.61890489       0.00059363       0.01043518       0.00366637
H       11.42869155       9.61882594      12.13387086      -0.00351391       0.00960474       0.00255674
H       12.69812348       7.55884416      12.64326870      -0.00051814       0.01130813       0.00118169
C       10.25099609      11.15550481       0.84215848       0.00550309       0.00724453       0.00705713
C       11.47224143      10.49307220       0.68908887       0.00398622       0.00780748       0.01113480
C       10.23149030      12.54584169       0.70249499      -0.00150274       0.00484183       0.00427990
C        9.00564579      10.37989065       1.14862530       0.00581887       0.00392187       0.00693925
C       12.63667355      11.18868187       0.38678101       0.00709463       0.01367137       0.00968716
C       11.39804945      13.25421692       0.41580196       0.00177718       0.00935473       0.00268265
C       12.60685126      12.57749371       0.25045051      -0.00111158       0.01038823       0.00729854
H       11.49983732       9.41291387       0.77577294       0.00931185       0.01042324       0.01323161
H        9.29564319      13.07887725       0.83043080      -0.00032337       0.00358028       0.00111981
H        8.11186387      10.98486758       1.00218786       0.00515786       0.00328033       0.01017299
H        8.93239748       9.49358974       0.51447909       0.00618320       0.00609833       0.00402206
H        9.00878875      10.03541498       2.18601516       0.00822233       0.00035419       0.00567979
H       13.55827183      10.64014342       0.22969794       0.00566415       0.01397583       0.01274346
H       11.36222545      14.33265058       0.30851374      -0.00392988       0.00784478       0.00118076
H       13.49778049      13.11926080      -0.04973896       0.00055970       0.01338193       0.00560620
