197
Lattice="13.62943796786842 0.0 0.0 0.0 13.62943796786842 0.0 0.0 0.0 13.62943796786842" Properties=species:S:1:pos:R:3:forces:R:3 energy=-120047.21875 stress="-0.0010489082196727395 -0.00027755826886277646 -1.1877536280735512e-05 -0.00027755826886277646 -0.0011171519290655851 -0.00032704514160286635 -1.1877536280735512e-05 -0.00032704514160286635 -0.0013809871161356568" pbc="T T T"
N        4.41607847       3.56884728      12.87827204       0.00303619       0.00405809      -0.00084467
C        5.52002627       4.32764239      13.07838438       0.00473163      -0.00068021       0.00370839
C        4.40525599       2.23002568      13.07440312      -0.00423950       0.00474751       0.00146759
C        6.68771544       3.72515898      13.48328926      -0.00021620      -0.00480109       0.01059964
C        5.56100508       1.59650337      13.47076752      -0.00962251       0.00056045       0.00898359
C        6.72175925       2.34336174      13.67346227      -0.00722399      -0.00466236       0.01387133
H        3.56745738       4.03025039      12.57883760       0.00615054       0.00761512      -0.00649083
H        5.40901890       5.38727302      12.90587397       0.01017576      -0.00007962       0.00208229
H        3.46906576       1.71917131      12.91367177      -0.00585566       0.00856362      -0.00241372
H        7.56565450       4.33330971      13.64959600       0.00177896      -0.00833488       0.01416169
H        5.54465811       0.52642852      13.62005187      -0.01544083       0.00067860       0.01131259
H        7.64054223       1.86023367      13.97739160      -0.01138316      -0.00789833       0.02070742
N        9.26279355       8.27917496       5.51063868       0.02018205      -0.00782971       0.01979843
C        9.31151561       9.52396667       6.02059461       0.01159827      -0.00464636       0.01177940
C        8.42996680       7.32483233       5.96092558       0.01543331      -0.00601721       0.01352264
C        8.47091520       9.85544752       7.05788160      -0.00497047       0.00147083      -0.00241958
C        7.57712163       7.61531170       7.00348031      -0.00088347       0.00036694      -0.00033207
C        7.59428853       8.89300043       7.55829479      -0.01138519       0.00415571      -0.00958934
H        9.86814797       8.07060337       4.71350416       0.02949268      -0.01151432       0.02760822
H       10.02915826      10.19814928       5.57429709       0.01636289      -0.00662936       0.01784424
H        8.48029602       6.36410438       5.46841923       0.02323549      -0.00907743       0.02151582
H        8.51158280      10.85083003       7.47502499      -0.01250055       0.00440086      -0.00932141
H        6.90943305       6.84688313       7.36914588      -0.00465033       0.00178310      -0.00544176
H        6.93740399       9.14457642       8.37955647      -0.02511490       0.00905363      -0.02157749
N        5.65520365       8.72429158       3.49045992      -0.00339480       0.00438842      -0.00083348
C        6.30155653       9.71261531       2.83551767       0.00165987      -0.01034865       0.01059148
C        4.41483935       8.87291954       4.00962700      -0.00161684      -0.01258984      -0.00313705
C        5.68597294      10.93573069       2.69763480      -0.00244290       0.00325307       0.00789833
C        3.76607523      10.07597731       3.87858151      -0.00779141      -0.00235719      -0.00371085
C        4.40747495      11.12107438       3.21801445      -0.00086851      -0.00623813       0.00244822
H        6.11225399       7.82672740       3.59278743      -0.00062329      -0.00708348       0.00161414
H        7.28092685       9.47951104       2.44313396       0.00200915       0.00089216       0.01268445
H        3.99568410       8.01153844       4.50923099      -0.00591746      -0.00678191      -0.00902194
H        6.20612028      11.72826502       2.17737185       0.00224151      -0.00119562       0.01411062
H        2.76122585      10.23199741       4.24380352      -0.00420722      -0.00890370      -0.00682883
H        3.85950622      12.05493372       3.14543674      -0.00313748      -0.00492725       0.00237070
P        0.78653671      12.25508989       3.41536861      -0.00735889      -0.01266968      -0.03475983
O        0.39782077      13.23624779       2.29963081      -0.00387555      -0.00536859      -0.02961636
O        2.02147550      12.79320053       4.16559696      -0.01404548      -0.01506555      -0.02215254
O       -0.39838725      12.05656296       4.37400044      -0.01089859      -0.02445269      -0.04195869
O        1.18082063      10.89211911       2.80311588       0.00058228      -0.00575125      -0.04441583
C       10.94028877       1.95174455       2.46210665       0.00124539       0.00359385       0.01527049
C       11.84101640       2.96525318       2.75914937       0.00211987       0.00346804       0.01263510
C       10.71680810       0.92769162       3.37435932       0.00400269       0.00336994       0.01549045
C       12.50046137       2.96863468       3.98358877       0.00598574       0.00323112       0.01042467
C       11.39977446       0.91174489       4.58187370       0.00687563       0.00384834       0.01378009
C       12.28209856       1.93932761       4.89046380       0.00764084       0.00386403       0.01136906
H       10.43493291       1.94969175       1.50230436      -0.00128451       0.00341300       0.01670560
H       12.04589196       3.73899295       2.02853250       0.00043363       0.00324944       0.01210406
H       10.04393559       0.11745762       3.12933216       0.00403775       0.00300078       0.01678689
H       13.20837563       3.75222556       4.21672079       0.00766982       0.00248398       0.00777860
H       11.28698607       0.07335153       5.25479121       0.00763642       0.00434878       0.01455702
H       12.83069166       1.91867628       5.82316782       0.00975723       0.00455040       0.01007968
C       11.15703897      12.78370537       0.53804083       0.01498134      -0.00101766       0.01855668
C       11.79669746      11.59546609       0.21303730       0.01409009      -0.00169282       0.01896978
C        9.77294985      12.80971298       0.67406206       0.01353365       0.00337617       0.00264616
C       11.05312803      10.43955231       0.01621363       0.01174796       0.00195622       0.00587565
C        9.03191061      11.64543467       0.51565479       0.01060265       0.00706259      -0.01072595
C        9.67410074      10.46064516       0.17652206       0.01009888       0.00581181      -0.00743249
H       11.75359740      13.66645610       0.71976481       0.01702662      -0.00423989       0.02750880
H       12.87643539      11.57763710       0.15193157       0.01464960      -0.00455217       0.03151847
H        9.26715384      13.73204356       0.93487503       0.01416088       0.00395437       0.00212510
H       11.54833603       9.50663258      -0.21419638       0.01131405       0.00090688       0.00825681
H        7.95441639      11.66062448       0.63209877       0.00933355       0.01044234      -0.02164717
H        9.10078577       9.54754632       0.06025971       0.00821971       0.00849344      -0.01846858
C        6.65017253       4.28795754       5.42627138      -0.01524546       0.00973948       0.00015718
C        6.28396416       4.93832280       4.25032355      -0.01052025       0.01046241      -0.00082421
C        7.93242999       3.76477850       5.56225126      -0.01757386       0.00501955       0.00272550
C        7.20428159       5.06287735       3.21275576      -0.00829214       0.00650999       0.00087643
C        8.85020934       3.88386801       4.52187919      -0.01508918       0.00152298       0.00459386
C        8.48559014       4.53340124       3.34654608      -0.01054549       0.00228171       0.00366991
H        5.93147401       4.17060094       6.22898581      -0.01744795       0.01240021      -0.00142391
H        5.26860501       5.29618376       4.12542032      -0.00910154       0.01320266      -0.00344848
H        8.21461421       3.24747290       6.47160063      -0.02118763       0.00424436       0.00339633
H        6.91065751       5.54320782       2.28435944      -0.00533333       0.00627779      -0.00011735
H        9.83997030       3.45474986       4.61547964      -0.01663314      -0.00166237       0.00672287
H        9.19930495       4.60886979       2.53444727      -0.00874281      -0.00035294       0.00497201
C       11.29658834       5.13692495       7.61624217      -0.00307616       0.00071020      -0.01661913
C       11.66500320       5.72799257       6.41108971      -0.00045887       0.00125080      -0.01535015
C       11.70409166       5.70100298       8.82077390      -0.00807085       0.00160255      -0.01542507
C       12.43307781       6.88784427       6.40887040      -0.00246251       0.00246479      -0.01299459
C       12.47338741       6.85867943       8.81595606      -0.01067305       0.00334733      -0.01316264
C       12.83267475       7.45468377       7.61392312      -0.00793971       0.00384074      -0.01194508
H       10.69252951       4.23768567       7.61435009      -0.00137787      -0.00041309      -0.01843035
H       11.35811110       5.28036885       5.47358752       0.00332832       0.00063264      -0.01637758
H       11.42872001       5.24660254       9.76479857      -0.00996732       0.00152339      -0.01608527
H       12.71755246       7.34897926       5.47141704      -0.00075843       0.00278764      -0.01214246
H       12.79272976       7.29364443       9.75319667      -0.01588796       0.00501574      -0.01216565
H       13.42735137       8.35922642       7.61558400      -0.01026284       0.00533916      -0.01001464
C        3.52290165       9.21981536       0.19383163       0.01351331       0.00142652      -0.01311210
C        2.14179724       9.36839030       0.13434701       0.01411662       0.00733575      -0.00767488
C        4.08122495       7.96929701       0.44001832       0.00896033       0.00053102      -0.00678135
C        1.32240827       8.25623530       0.27668516       0.00952671       0.01239231       0.00487459
C        3.25801347       6.86162636       0.62140620       0.00473105       0.00554442       0.00375842
C        1.87902701       7.00652833       0.51871617       0.00494251       0.01128918       0.01006907
H        4.16240419      10.08410731       0.06745662       0.01697997      -0.00238416      -0.02171300
H        1.70339877      10.35001836       0.02021804       0.01777177       0.00824018      -0.01222618
H        5.15923999       7.86833943       0.50904866       0.00863498      -0.00353512      -0.01009689
H        0.24639630       8.36626043       0.24198641       0.00997138       0.01761387       0.01122550
H        3.67574444       5.89424857       0.87803481       0.00164798       0.00501250       0.00726323
H        1.23370043       6.14851156       0.65333731       0.00125247       0.01576957       0.01934438
C        5.29477810      12.31880062      11.14434245      -0.01544148       0.00437734      -0.00496752
C        4.68878557      11.22491983      10.53779145      -0.01972015       0.00315106       0.00180854
C        6.60429815      12.22512557      11.60225048      -0.01386006       0.00405529      -0.00973284
C        5.39240898      10.03423391      10.39595079      -0.02199687       0.00192162       0.00275979
C        7.30062031      11.03045287      11.47120919      -0.01603031       0.00263886      -0.00825962
C        6.69238728       9.93248978      10.87675664      -0.01994609       0.00187635      -0.00301983
H        4.74886781      13.25029282      11.23635426      -0.01344500       0.00572874      -0.00641922
H        3.68165764      11.30266111      10.15259765      -0.02139522       0.00319164       0.00630304
H        7.09974951      13.08286735      12.04294260      -0.01139945       0.00514127      -0.01479279
H        4.92679251       9.19576266       9.89533027      -0.02578063       0.00047527       0.00849333
H        8.31940655      10.96387517      11.81823590      -0.01496567       0.00207847      -0.01086845
H        7.24599990       9.00425510      10.77685943      -0.02205602       0.00072185      -0.00302173
C        2.23456088       9.81535407       7.10344702       0.00213977      -0.00241518      -0.00170899
C        3.56417300      10.20619657       7.22573893       0.00143689      -0.00345021       0.00951951
C        1.23208482      10.77762612       7.04202548       0.00427336      -0.00137661      -0.02016059
C        3.88834340      11.55626928       7.29298560       0.00233310      -0.00366283       0.00578607
C        1.55658244      12.12505110       7.12467102       0.00531830      -0.00129466      -0.02672027
C        2.88263441      12.51400503       7.25553374       0.00426003      -0.00246854      -0.01271017
H        1.99019484       8.76096843       7.03276598       0.00139864      -0.00234564       0.00305048
H        4.34806430       9.45697596       7.24743913       0.00001416      -0.00448323       0.02239119
H        0.19827004      10.49550249       6.89258762       0.00552478      -0.00082198      -0.02944608
H        4.92581468      11.85898433       7.37006894       0.00176404      -0.00468758       0.01764751
H        0.77369610      12.86509380       7.03770656       0.00793962      -0.00062168      -0.04255546
H        3.13469334      13.56713588       7.28553231       0.00539257      -0.00270222      -0.01568853
C       11.84317822       4.79948428      12.59659980      -0.00762535      -0.00793236       0.00505239
C       12.49216755       6.00394057      12.34832841      -0.00409575      -0.00998319       0.00438133
C       10.45184133       4.74922881      12.60287680      -0.00772673      -0.00465771       0.00135045
C       11.75241554       7.15802291      12.11863257      -0.00070991      -0.00891985      -0.00044071
C        9.71452407       5.90449819      12.35899111      -0.00439025      -0.00351084      -0.00300349
C       10.36413468       7.11036819      12.12035389      -0.00084342      -0.00579934      -0.00418758
H       12.41899854       3.89828513      12.76953992      -0.01050160      -0.00874735       0.00935727
H       13.57368090       6.04674169      12.31456958      -0.00388682      -0.01240646       0.00879436
H        9.94974691       3.80449874      12.77823508      -0.01031645      -0.00295290       0.00228335
H       12.25761298       8.09457241      11.91565997       0.00190476      -0.01038283      -0.00032570
H        8.63156021       5.86805214      12.33625720      -0.00434049      -0.00122983      -0.00510812
H        9.79556471       8.01124161      11.92501865       0.00188460      -0.00494011      -0.00795043
C       12.74463126       8.67097425       3.03996723       0.00438182      -0.01022894       0.01532187
C       12.60309558       7.32893659       2.69901727      -0.00209470      -0.00814690       0.00944637
C       11.62388417       9.49084399       3.10738652       0.00888305      -0.00405613       0.01502772
C       11.34899232       6.80047767       2.41492796      -0.00442557       0.00076668       0.00373100
C       10.36989316       8.96451715       2.81057962       0.00685701       0.00435991       0.01009096
C       10.22684890       7.62197119       2.46299498       0.00022972       0.00667962       0.00436895
H       13.71453979       9.12822386       3.20601569       0.00669667      -0.01714030       0.01886958
H       13.47919395       6.69419791       2.63814192      -0.00591582      -0.01333840       0.01042771
H       11.76519317      10.53898484       3.35560171       0.01649353      -0.00590453       0.02023343
H       11.24661203       5.75977624       2.13864364      -0.00959910       0.00272045      -0.00161220
H        9.50609255       9.61975640       2.81857750       0.01072687       0.00962188       0.01008441
H        9.25202433       7.21634307       2.21344599      -0.00128818       0.01345848      -0.00000214
C        8.52887040       0.85040443       8.08654757       0.00371324      -0.00223961      -0.00411966
C        7.20512231       0.82226065       8.50965226       0.00472019      -0.00352417      -0.00163220
C        9.41290135       1.78306078       8.61953774       0.00330652      -0.00037546      -0.00685408
C        6.76310901       1.73322340       9.46342597       0.00510302      -0.00343324      -0.00172031
C        8.96927525       2.69978953       9.56623521       0.00396658      -0.00063084      -0.00647636
C        7.64235967       2.67614020       9.98467222       0.00497734      -0.00236871      -0.00361024
H        8.87936495       0.14650755       7.34206516       0.00343628      -0.00263371      -0.00366224
H        6.51638683       0.09167343       8.10426233       0.00508858      -0.00500932       0.00051603
H       10.44719801       1.78820803       8.29868550       0.00242098       0.00107120      -0.00919124
H        5.73295486       1.70334331       9.79882964       0.00580250      -0.00405863      -0.00028469
H        9.65249597       3.43194320       9.97977403       0.00370392       0.00020856      -0.00809228
H        7.29610612       3.39402492      10.71891465       0.00564560      -0.00305792      -0.00274223
C        3.58502110       6.77107261      10.08183417      -0.00707476      -0.01126604       0.01372769
C        4.58086301       5.80558097       9.97123583      -0.00028336      -0.00286654       0.00224796
C        2.37092213       6.59145328       9.42786573      -0.00643390      -0.01331716       0.01299158
C        4.34785794       4.64406453       9.23979554       0.00772522       0.00331354      -0.00992658
C        2.13621365       5.43433728       8.69351403       0.00150719      -0.00708165       0.00093833
C        3.12037675       4.45443723       8.61171743       0.00858874       0.00105181      -0.01073363
H        3.74776646       7.65914294      10.67861089      -0.01264818      -0.01610304       0.02269104
H        5.54281563       5.96030898      10.44759162      -0.00098014      -0.00100977       0.00301810
H        1.61072739       7.35969620       9.48595926      -0.01241940      -0.01985202       0.02193843
H        5.12235507       3.89226630       9.15613213       0.01303302       0.00947405      -0.01795849
H        1.18776478       5.29925798       8.18901967       0.00196193      -0.00866585       0.00037146
H        2.93115396       3.54644707       8.05178676       0.01468143       0.00568247      -0.02032085
C        2.13464744       4.49413164       3.41781448       0.01081804       0.01216887      -0.01147493
C        2.91915216       3.86410283       4.37898001       0.00482602       0.01276080      -0.00628541
C        1.69044152       3.77687781       2.31017118       0.00445139       0.00707019      -0.00551708
C        3.27687518       2.52948589       4.21704384      -0.00764868       0.00819129       0.00471932
C        2.02297885       2.43497222       2.16578554      -0.00863266       0.00262025       0.00591531
C        2.82936013       1.81612485       3.11240058      -0.01451122       0.00286677       0.01103731
H        1.83916474       5.52860015       3.55155060       0.02175472       0.01631157      -0.02092927
H        3.22857485       4.40571521       5.26653180       0.01065832       0.01739448      -0.01120015
H        1.02576233       4.24575770       1.59397676       0.00985081       0.00741991      -0.01030422
H        3.87455316       2.02841303       4.96882129      -0.01099816       0.00957488       0.00817984
H        1.59951459       1.83704838       1.36792023      -0.01334868      -0.00049201       0.01100107
H        3.02292513       0.75523980       3.04223046      -0.02488135       0.00015503       0.01955826
C       11.29265717      10.31470706       9.51623490       0.00685637      -0.00377165       0.00486720
C       12.59828301      10.72826140       9.75674633       0.00699921      -0.00317026       0.00253795
C       10.23445862      11.16198322       9.82383382       0.00718471      -0.00247976       0.00190800
C       12.84064327      11.98881454      10.29180396       0.00751352      -0.00154022      -0.00198416
C       10.47335836      12.41684456      10.37035003       0.00780971      -0.00042579      -0.00333967
C       11.77923622      12.83184086      10.59943714       0.00783926      -0.00005171      -0.00493102
H       11.10068175       9.33628543       9.09049544       0.00618887      -0.00512618       0.00869383
H       13.43114787      10.07996386       9.51408410       0.00680570      -0.00421850       0.00429653
H        9.21561239      10.84109043       9.65328785       0.00717476      -0.00306202       0.00269535
H       13.85866338      12.31143065      10.46953300       0.00752577      -0.00105979      -0.00347556
H        9.64327674      13.06676503      10.61785964       0.00818467       0.00141204      -0.00673552
H       11.96754142      13.80630178      11.03256698       0.00836498       0.00179647      -0.00972456
