147
Lattice="11.231698397766404 0.0 0.0 0.0 11.231698397766404 0.0 0.0 0.0 11.231698397766404" Properties=species:S:1:pos:R:3:forces:R:3 energy=-70603.4140625 stress="-0.003413960337638855 -0.0002922931162174791 0.0009320046228822321 -0.0002922931162174791 -0.0036933203227818012 -0.0010979488142766058 0.0009320046228822321 -0.0010979488142766058 -0.0029195682145655155" pbc="T T T"
N        7.08702854       5.63739014       2.25579394       0.00336224      -0.00058419       0.00329782
N        8.54399535       4.06411106       1.94722320       0.01237845       0.00296438       0.00637691
C        5.86846702       6.35081148       2.66760062       0.00417504      -0.00644699      -0.00022149
C        4.70600222       6.11374819       1.71553973       0.00745964      -0.00708392      -0.00216761
C        4.13843263       4.70212991       1.75723028       0.00404936      -0.00715423       0.00089264
C        7.42112615       4.38995830       2.59023733       0.00583768      -0.00360852       0.00789207
C        8.02526639       6.12281291       1.37444135       0.02137879      -0.00111747      -0.00365108
C        8.94370714       5.13542799       1.18643517       0.00272542       0.02843469       0.00199127
C        2.83816384       4.58759650       0.97715694       0.00568923      -0.00925964       0.00040655
C        9.21644181       2.78117392       2.02982883       0.02001402       0.01006454       0.00550139
H        5.61594331       6.01716610       3.67488170       0.00226615      -0.00499493      -0.00213403
H        6.14166014       7.40378762       2.71357328      -0.00086104      -0.00145888      -0.00058045
H        5.00478875       6.38040986       0.69761617       0.01127870      -0.01250485      -0.00547916
H        3.93459906       6.82755330       2.00505357       0.00494227      -0.00463843      -0.01121862
H        4.85820306       3.98112569       1.35537469       0.00620893      -0.00892301       0.00477363
H        3.96251962       4.40602883       2.79561291       0.00396261      -0.00211759       0.00212732
H        6.90121776       3.76445099       3.29334141       0.01401277       0.00126776      -0.00348087
H        7.95297887       7.12995030       0.99931943       0.00171054       0.00277250       0.00657008
H        9.83009511       5.10135546       0.57819188       0.01009302       0.01388666       0.00947277
H        2.97799892       4.88523227      -0.05956620       0.00537924      -0.00827683       0.00092587
H        2.06782009       5.23547848       1.39821695       0.00531290      -0.01084355       0.00111845
H        2.46240880       3.56671529       0.97999104       0.00873193      -0.00908315       0.00059411
H        8.67874252       2.15494651       2.73217344       0.02299637       0.00917877       0.00275493
H        9.22378972       2.30896110       1.04812368       0.02598516       0.01223759       0.00426504
H       10.22966066       2.91954951       2.40166881       0.01898038       0.01784194       0.00743911
O       11.01466997      11.09037264       8.64260191      -0.00670010      -0.00606012       0.00951815
O       11.57754889      11.16990358       6.45367625       0.00648665      -0.00387299       0.01349330
C       10.31265680       9.33383673       7.22232182      -0.00011736      -0.00276220       0.00310534
C       10.22732904       8.78121270       5.94756264       0.00632830      -0.00007612       0.00172305
C        9.77035293       8.63049172       8.29379658      -0.00794023      -0.00345283      -0.00180484
C        9.63165766       7.54005353       5.74812479       0.00402979       0.00241166      -0.00416744
C        9.18081616       7.38929230       8.10482234      -0.00956362      -0.00126854      -0.00751628
C        9.11225421       6.83594752       6.82928320      -0.00391524       0.00148068      -0.00890866
C       11.03915756      10.66923580       7.46433015      -0.00005424      -0.00437033       0.00924546
H       10.64155102       9.35602204       5.12800957       0.01262350       0.00032949       0.00566287
H        9.85868152       9.08686715       9.27153146      -0.01377769      -0.00537065      -0.00067830
H        9.55577073       7.12112690       4.74927255       0.00827056       0.00586036      -0.00567553
H        8.78743794       6.83972865       8.95205408      -0.01668059      -0.00132105      -0.01141483
H        8.65032113       5.86883082       6.67399805      -0.00781653       0.00415054      -0.01238036
O        2.98876783       2.81040226       5.34603903      -0.00240672      -0.00295115      -0.01154745
C        4.20177877       2.69757140       6.06834385      -0.00956118      -0.00223640      -0.00184871
C        4.96798789       1.43299501       5.70681036      -0.01190251      -0.00531614       0.00857472
C        5.04087156       3.94605717       5.83497055      -0.00517786      -0.00520086      -0.00081632
H        3.91435661       2.64477293       7.12329906      -0.01837686       0.00351966      -0.00427747
H        5.86626451       1.32570368       6.32178503      -0.01613208      -0.00457224       0.01397599
H        4.35260254       0.54259473       5.83774581      -0.01483916      -0.00288586       0.00886959
H        5.30245447       1.48161884       4.66447766      -0.00675715      -0.01102402       0.01033355
H        5.99149529       3.93049991       6.37692079      -0.00888383      -0.00660028       0.00478110
H        4.47589549       4.83204065       6.12134225      -0.00417642      -0.00317511      -0.00649742
H        5.26353008       4.02397184       4.76815753       0.00132181      -0.00983175       0.00040431
H        3.16239800       2.51743629       4.43496658       0.00098908      -0.01005011      -0.00810781
O        7.45021189       9.07707947       1.71391710      -0.00266075       0.00562304      -0.00093114
C        8.67039408       9.80003604       1.96969562      -0.00099380       0.00377652      -0.00666904
C        9.08973197      10.57431008       0.73723754      -0.00558995       0.00402138      -0.00752556
C        8.49957962      10.67224694       3.19260126       0.00670320       0.00338733      -0.00579548
H        9.40772389       9.02129677       2.18444428      -0.00091732       0.00301155      -0.01061016
H       10.00488908      11.13699398       0.92225516      -0.00223668      -0.00065713      -0.01215224
H        9.27508833       9.91846049      -0.11131677      -0.01282024       0.00500479      -0.00957862
H        8.31154197      11.28668878       0.44594261      -0.00381485       0.00778602      -0.00175828
H        9.40810323      11.23467968       3.40672335       0.00835770       0.00230890      -0.01109292
H        8.26151490      10.07695995       4.07024920       0.01088345       0.00400542      -0.00443852
H        7.68221755      11.38213943       3.03281191       0.00698788       0.00467373      -0.00122161
H        6.82317961       9.70620803       1.34000395      -0.00164244       0.00419250      -0.00420946
O        2.14158879       5.37905394       7.70385271       0.01347923       0.00685471       0.01526518
C        1.28975519       6.42534790       8.19500998       0.00735414       0.00301120       0.01121861
C        0.80659069       6.11236985       9.60113538      -0.00414166      -0.00287980       0.00564265
C        1.99269595       7.76541734       8.13578582       0.00502315       0.00447375       0.02219492
H        0.44073211       6.42687319       7.50990913       0.01342255       0.00400926       0.00384495
H        0.05577003       6.84004724       9.91298336      -0.00894864      -0.00627400       0.00072369
H        0.38520586       5.10654106       9.65332803      -0.00150114      -0.00400263      -0.00166713
H        1.63998010       6.17673575      10.30267072      -0.01081064      -0.00278224       0.01312432
H        1.37189977       8.56263074       8.54918962      -0.00142343       0.00209443       0.01634706
H        2.26392372       8.04216060       7.11916327       0.01563387       0.00749044       0.02591881
H        2.92044281       7.71100120       8.71533851      -0.00239537       0.00418288       0.03303357
H        2.90266669       5.32757093       8.29103492      -0.00008569      -0.00553226       0.03097411
O        3.42203657       9.17496037      11.33499951      -0.00773692      -0.00375563      -0.00429198
C        4.50987056       9.84484751      10.67434863      -0.00964910       0.00318624       0.00055930
C        5.57369933       8.82009727      10.31171955      -0.00590053       0.00945950      -0.00494707
C        4.02950022      10.65384929       9.48493451      -0.01077631       0.00834051       0.00493497
H        4.91539458      10.53596256      11.42715252      -0.01254621      -0.00001824       0.00481191
H        6.44932203       9.28606383       9.85304730      -0.00691995       0.01631229       0.00112636
H        5.89642889       8.27994960      11.20015842      -0.00646947       0.00359593      -0.00845388
H        5.16288958       8.09502509       9.60898504      -0.00173166       0.01461387      -0.01205367
H        4.85551037      11.22932799       9.06417066      -0.01327349       0.01597094       0.01159555
H        3.23911370      11.34631800       9.77356729      -0.01544692       0.00141658       0.00730214
H        3.63081983      10.00284526       8.70419693      -0.00424651       0.01144545      -0.00052401
H        2.75784529       8.98168466      10.66415731      -0.00996353       0.00413059      -0.00385156
O        9.40441691       3.94001210       5.04007982       0.02034310      -0.01698458      -0.00240529
C        9.25662876       3.09110017       6.20736282       0.01392381      -0.00651243       0.00175332
C        9.01536431       1.68435363       5.71746996      -0.00426805      -0.00519723       0.00832842
C       10.46069384       3.21084148       7.11547062       0.01666486      -0.01796053      -0.00132149
H        8.35947369       3.43430004       6.74456156       0.01961255       0.00797001       0.00104302
H        8.78562099       1.02425476       6.55557454      -0.01348703       0.00444857       0.01287906
H        8.17675980       1.66196203       5.01763735      -0.00411534       0.00136036       0.00823949
H        9.91566199       1.29168454       5.24624694      -0.00975817      -0.02088233       0.01207952
H       10.41269013       2.47603558       7.92116503       0.00620083      -0.00733237       0.00704336
H       10.51870466       4.21541026       7.54382700       0.03348765      -0.01524426      -0.01213849
H       11.37879363       3.01070454       6.56093352       0.01164956      -0.03755300      -0.00012572
H       10.09208665       4.57899605       5.25139129      -0.02535868       0.02176152       0.01609370
O        6.56568542       2.12314008       9.33372367       0.00952578      -0.00385949      -0.00067687
C        6.40915762       3.43588520       9.87172634       0.00500325      -0.00462627      -0.00102568
C        7.48793743       4.37662696       9.36879960       0.00262958      -0.00145152       0.00079028
C        5.02574104       3.99167396       9.58096605       0.00398427      -0.00905383      -0.00252867
H        6.52021754       3.29538947      10.95245169       0.00427173      -0.00427668      -0.00102955
H        7.41236070       5.34027594       9.87409828       0.00059156      -0.00297605       0.00292400
H        8.48415585       3.96264017       9.52896955       0.00345072       0.00062399      -0.00006033
H        7.35835092       4.55758011       8.29890257       0.00223745       0.00038837       0.00134437
H        4.90112576       4.96506339      10.06116293       0.00099596      -0.00915372      -0.00366765
H        4.24716588       3.31767329       9.93734346       0.00599240      -0.01087604      -0.00211403
H        4.90355799       4.13031894       8.50495885       0.00397550      -0.01051982      -0.00238857
H        6.55994543       2.19841464       8.37282009       0.01361155      -0.00362028      -0.00040276
O        4.26649286       8.92186560       6.10512303      -0.00714666       0.02745506      -0.02270067
C        5.50670528       8.68651678       6.76095920      -0.01177114       0.01893941      -0.01844218
C        5.70487622       7.22378148       7.12661906      -0.02430643       0.01631784      -0.02418227
C        6.66661490       9.22674453       5.94975970      -0.00617993       0.01129735      -0.01554462
H        5.43907476       9.26839740       7.68052175      -0.01033147       0.01815990      -0.01753831
H        6.54186328       7.11621736       7.81700407      -0.02248207       0.00566853      -0.02908237
H        4.80812355       6.81089032       7.59065204      -0.02586582       0.02346168      -0.02208936
H        5.93755521       6.62989817       6.24009405      -0.03339675       0.01847382      -0.02776115
H        7.58896091       9.22347123       6.53029015      -0.00691171      -0.00017993      -0.01505889
H        6.45125285      10.24734739       5.63641741       0.00468228       0.01399662      -0.01210308
H        6.82742043       8.61561119       5.05810742      -0.01203295       0.01370162      -0.01778645
H        4.11757832       8.28799178       5.38799243      -0.01838753       0.01166308      -0.00549149
O        3.02486827       7.89955506       3.80690880       0.00911424      -0.00386423       0.00553671
C        1.62750983       7.53472677       3.88837262       0.00886312      -0.00020307       0.00475276
C        0.93368078       7.86972510       2.57784415       0.00762430      -0.00644407       0.00437391
C        1.57749391       6.06338671       4.23517783       0.00572495       0.00218260       0.01249999
H        1.17086735       8.11026623       4.69879129       0.01173055       0.00679654       0.00108200
H       -0.09205521       7.49476425       2.58063593       0.00316623       0.00899432       0.01667357
H        0.89686595       8.94956102       2.41409701       0.02142607      -0.00925054      -0.00891527
H        1.46548483       7.42174097       1.73660220      -0.00762475      -0.02593729       0.00688952
H        0.54367334       5.71336194       4.19781062       0.00430804       0.00839096       0.02715166
H        1.97012432       5.86052573       5.23141054       0.01776727       0.00713397       0.00810620
H        2.15140139       5.48127081       3.51643323      -0.00775485      -0.00591072       0.00885609
H        3.06089200       8.80570805       3.48253630       0.01328990       0.00013080       0.02039950
O        3.28024771       1.79700430       2.76081416       0.00104856      -0.01602763      -0.00400836
C        1.91603891       1.36065132       2.52528157      -0.00155238      -0.00682744      -0.00268143
C        1.82908467       0.72665972       1.15411764      -0.00886248       0.00030541      -0.00507969
C        1.45445494       0.45590385       3.64640309      -0.00443098      -0.00935695      -0.00623626
H        1.34506520       2.29407741       2.55187429       0.00405258      -0.00383362       0.00366974
H        0.80852949       0.43000004       0.91040037      -0.01174372       0.01214395      -0.00567361
H        2.17149174       1.41224201       0.37860011      -0.00276874       0.00023437      -0.00192723
H        2.44464180      -0.17531389       1.11114188      -0.01800136      -0.00527425      -0.00968980
H        0.44016296       0.09643503       3.46493817      -0.00516786      -0.00536183      -0.00810589
H        1.46583527       0.94147870       4.61963229      -0.00280092      -0.01330310      -0.00459445
H        2.10099875      -0.42601373       3.71472444      -0.00746347      -0.01151314      -0.01047542
H        3.81390871       0.99703237       2.82167719      -0.00352043      -0.01901644      -0.00581358
