150
Lattice="11.879603045811528 0.0 0.0 0.0 11.879603045811528 0.0 0.0 0.0 11.879603045811528" Properties=species:S:1:pos:R:3:forces:R:3 energy=-184728.921875 stress="-0.0038765219505876303 2.477094494679477e-05 1.6943293303484097e-05 2.477094494679477e-05 -0.0006175905582495034 -0.0008306763484142721 1.6943293303484097e-05 -0.0008306763484142721 -0.0019903627689927816" pbc="T T T"
N        5.49633976       9.83985654       3.37116414       0.00471315      -0.00566509       0.00398248
N        6.92738148       8.25360840       3.05584808       0.00118482      -0.01010299       0.01031708
C        4.49424533      10.67272904       4.03075017       0.00498839      -0.00202921      -0.00033212
C        3.08571715      10.28927589       3.60614753       0.00510955      -0.00286320       0.00065878
C        2.80515245       8.80299421       3.80153877       0.00367641      -0.00164679       0.00589926
C        6.10308316       8.80585368       3.94255537       0.00406541      -0.00290999       0.00914991
C        5.95452683       9.96668027       2.08298615       0.00176948      -0.01447859       0.00241584
C        6.86182406       8.97225307       1.88569795      -0.00069897      -0.01710975       0.00604594
C        1.33306539       8.46355500       3.66220158       0.00348276       0.00023656       0.00483557
C        7.80853175       7.12549273       3.31642314      -0.00109625      -0.01035780       0.01388520
H        4.63630146      10.51679151       5.10037994       0.00424146       0.00287339       0.00033677
H        4.72572002      11.71345908       3.81877953       0.00537461      -0.00315863      -0.00467101
H        2.92352960      10.56849952       2.56052608       0.00517124      -0.00695137      -0.00027421
H        2.38470631      10.89529769       4.18765275       0.00552067      -0.00026232      -0.00198057
H        3.37979826       8.22735387       3.06933054       0.00367264      -0.00494574       0.00876987
H        3.15917089       8.50147029       4.79226211       0.00158224       0.00172719       0.00741342
H        6.00461531       8.51545857       4.97452580       0.00507535       0.00309444       0.01074244
H        5.60115550      10.74047821       1.42610382       0.00252602      -0.01768301      -0.00130729
H        7.46346871       8.71299682       1.03409929      -0.00403376      -0.02438497       0.00626516
H        0.98219773       8.69830465       2.65810388       0.00521986      -0.00048738       0.00429091
H        0.71661291       9.02227614       4.36926370       0.00373878       0.00217028       0.00320858
H        1.15751734       7.39717867       3.82268082       0.00165222       0.00092971       0.00624828
H        7.33452970       6.45917735       4.03259702      -0.00511159      -0.01149523       0.01029347
H        7.96676293       6.58644775       2.38791573       0.00370640      -0.00882000       0.01391327
H        8.74948701       7.49699643       3.71830298      -0.00287008      -0.01135843       0.01867771
Br       9.03007132      10.13431664       5.50340211       0.01217134       0.01236631      -0.00619081
O       10.13577676       9.31940335       4.63809553       0.00524592      -0.00214022      -0.00251138
O        8.16756194       9.03694953       6.38176811       0.01238483       0.02343935       0.00846672
O        9.71552556      11.19107200       6.50752438       0.02089179       0.01973301      -0.02238345
O        8.01368032      10.90201436       4.49894847       0.01052946       0.00366873      -0.00981575
O        9.94087965       7.63074649       7.84133763       0.01195771       0.00639090      -0.01258630
O       10.04147241       9.00240998       9.60008805      -0.00418815      -0.00643408      -0.00194317
C       11.59473705       7.17431153       9.45427571      -0.00493598      -0.00713223       0.00235748
C       10.46047860       8.03297268       8.98444039       0.00223416      -0.00314909      -0.00407030
H       11.26860566       6.62073262      10.33538866      -0.01861688      -0.01751607      -0.00926118
H       11.89625606       6.45020421       8.70255825       0.00661963       0.00118934      -0.00089093
H       12.43186784       7.79828270       9.76477812      -0.00969803      -0.01037070       0.02166056
H        9.24636136       8.25247207       7.50068934       0.01446846       0.00908101      -0.01209718
O        2.04245633       8.42203027       7.03939450      -0.00389946       0.01013374       0.00553293
O        0.27157182       9.71712580       7.41337316       0.00430906       0.01262364       0.02408301
C        2.43919945      10.74070002       7.33782253       0.00446004       0.00892752       0.00056493
C        1.47093657       9.61568882       7.26340284       0.00072622       0.01127617       0.01157631
H        2.67329557      10.91778282       8.39201907       0.00629429       0.01629751      -0.00126451
H        3.36670484      10.50427429       6.82779727       0.00239670       0.00306440       0.00004423
H        1.97189876      11.63563526       6.93313194       0.00554189       0.00701562      -0.00485355
H        1.33766588       7.75615512       7.04937754      -0.00546420       0.01216730       0.01345491
O       10.46927618       8.74738185       0.30555711       0.01603644      -0.00980061      -0.00898001
O        9.20436937       6.91961599       0.00294826      -0.00587034       0.00206256       0.01110691
C       10.79711369       6.96447044       1.79909394       0.00038314       0.00165337       0.00635892
C       10.06200585       7.52293915       0.62430340       0.00455016      -0.00066949       0.00345671
H       11.85122369       6.89520523       1.52739559       0.00129434       0.00104447       0.01177089
H       10.74035792       7.64764300       2.64633118      -0.00390812       0.00400226       0.00409706
H       10.40201235       5.98662308       2.06054957      -0.00073998       0.00266388       0.00827926
H       10.20188741       8.95008186      -0.63723422       0.01015671      -0.01053295      -0.00786725
O       11.44988062       2.80496995       3.64937520      -0.00713247      -0.00993252       0.00309455
O       12.48401472       0.93096675       4.32241301       0.01007509      -0.00351286      -0.00637698
C       10.99809825       0.83148778       2.43453579       0.00546545      -0.00994611      -0.00229532
C       11.72009474       1.48720542       3.56574667       0.00240892      -0.00761974      -0.00342894
H       10.05654076       1.33341965       2.23216540       0.00316718      -0.01397584      -0.00228540
H       11.62209997       0.91778061       1.54262234       0.00485198      -0.00798016      -0.00234440
H       10.83502199      -0.21944202       2.65956011       0.00942934      -0.01055986      -0.00248256
H       11.85318718       3.14523922       4.47421386      -0.00931972      -0.01077275       0.00218529
O        5.61158661       3.24945894       1.18203339       0.00543170       0.00724798       0.00844172
O        7.44992073       4.27099791       1.94239186       0.02278253      -0.00835586      -0.00196756
C        7.27721165       1.88376004       2.19132932      -0.00501978      -0.01022613      -0.00042781
C        6.83575788       3.24674830       1.79903855       0.00597024      -0.01137656       0.00080007
H        6.43560983       1.25275900       2.45578618      -0.01128203       0.00011957       0.00570695
H        7.79692780       1.45278643       1.33427225      -0.01574926      -0.01798614      -0.00301442
H        7.96505268       1.95843098       3.02588248       0.00138535      -0.01876801      -0.00508450
H        5.45266706       4.15664490       0.87924276       0.01215140       0.00829899       0.00913541
O        2.87860886       1.98643345       8.58175159       0.00069439       0.00566387       0.00540550
O        2.33237256       4.16309077       8.59760301      -0.00271368       0.00478029       0.00752242
C        4.60719763       3.50964728       9.04817764      -0.00107902       0.00839372       0.00397028
C        3.15713397       3.28809267       8.73736255      -0.00070727       0.00609839       0.00590927
H        5.03657869       2.64655004       9.55439757      -0.00107167       0.01180872       0.00947157
H        5.14745692       3.65268653       8.10664283      -0.00114709       0.00173240       0.00328642
H        4.72342360       4.41379408       9.63981130      -0.00151972       0.01214227      -0.00185177
H        1.94204638       1.89647962       8.28008366       0.00094417       0.00411715       0.00876264
O        3.39082626       3.44518750       3.08961770       0.00762579       0.00862286       0.00383002
O        4.76110650       1.94326227       4.02193091      -0.00700349      -0.00233305       0.00888233
C        3.01780820       2.88825302       5.35824115      -0.00346279       0.01430731       0.00232780
C        3.82432150       2.70405282       4.12477053      -0.00277120       0.00713184       0.00537047
H        2.71763124       3.92222392       5.50671972      -0.00538581       0.01465334      -0.00532650
H        2.11602396       2.27548416       5.25871789      -0.00199917       0.01182656       0.00495622
H        3.58403365       2.52407172       6.20845721      -0.00473285       0.02117122       0.00585631
H        3.98814314       3.25175128       2.34396448       0.00888193       0.00465995       0.00534824
O        6.69923475       1.46322555       6.60267496      -0.01104409       0.00384269      -0.01581840
O        6.61409952       3.55718409       5.78924744      -0.01197183       0.00979143       0.00202571
C        8.66752083       2.29652233       5.62001952      -0.01076168       0.01395237      -0.00426404
C        7.24313492       2.54627200       5.98107035      -0.01183861       0.00892854      -0.00540431
H        9.26282866       2.22940393       6.53217315      -0.01186915       0.01958426      -0.00349107
H        8.76147752       1.33226421       5.12201183      -0.00505448       0.01340750      -0.00141775
H        9.03804672       3.10356253       4.99630191      -0.01385937       0.01424225      -0.00579810
H        5.75089655       1.63384478       6.69660124      -0.01152664       0.00082588      -0.01655572
O       11.19382924      -0.15464624       8.82281539      -0.00945114       0.00662977       0.01538739
O       12.23163896       1.49842618       7.72493450       0.00153151       0.00028799       0.01142782
C       11.09901224       1.96162869       9.79028141      -0.00052878       0.01063025       0.01078814
C       11.54656489       1.08908764       8.67185578      -0.00725049       0.00381049       0.01908237
H       10.17220776       1.58421666      10.21442928       0.00508581       0.00876544       0.02275635
H       11.85670355       1.90269353      10.57590274       0.00684449       0.02241724       0.00416493
H       11.00840004       2.98943357       9.45082703      -0.00962192       0.00715703       0.00324070
H       11.49799697      -0.75782684       8.08818933      -0.00402814       0.00507753       0.02115396
O        7.86623547       2.77517404       8.78714035       0.00305408      -0.01416761      -0.00662108
O        7.58578888       1.96471906      10.84921641      -0.01677604       0.00395483      -0.00331326
C        8.42985623       4.19835291      10.57664433      -0.00701870      -0.00191110      -0.01284394
C        7.92675424       2.87667493      10.11133165      -0.00765869      -0.00450432      -0.00630480
H        9.12967121       4.62250093       9.86080213      -0.01063772      -0.00299376      -0.01663965
H        7.59023780       4.89314015      10.65643727      -0.00797495      -0.00384587      -0.00997274
H        8.86345513       4.11642788      11.56843884      -0.00296050       0.00080817      -0.01450282
H        7.48944974       1.91292306       8.53185382       0.00061882      -0.01404232      -0.00251582
O       11.89531346       3.79882558       6.20992352      -0.01399621      -0.01386333       0.00462949
O       10.40864486       4.50852660       7.72471248       0.00134182      -0.00170448       0.01268125
C       10.51374406       5.62823666       5.59729211      -0.00024664      -0.01837897       0.00186539
C       10.90145814       4.61447568       6.62943994       0.00306621      -0.00960606      -0.00635356
H       11.09694939       6.54041537       5.74078963       0.00361136      -0.01560922      -0.00780892
H       10.68696358       5.26190968       4.58754374      -0.00775075      -0.02164077       0.00017545
H        9.47290287       5.90153045       5.74385142      -0.00121301      -0.00968346       0.00286871
H       12.06663790       3.11514836       6.90298893      -0.00788662      -0.01860984       0.00683439
O        3.19444128       3.47613725       0.02185211       0.00531316       0.00977415       0.00493671
O        1.47383672       2.07857915       0.28705791       0.00676879       0.00669664       0.00501671
C        1.09302264       4.44712270       0.50046456       0.00418469       0.00764567      -0.00021960
C        1.88691745       3.21271179       0.25663393       0.00614831       0.00956422       0.00356892
H        1.16915898       4.66819752       1.56777342       0.00309491       0.01065815      -0.00098053
H        1.48033284       5.29872728      -0.05469967       0.00422567       0.00649011      -0.00186692
H        0.04743792       4.26218597       0.26760728       0.00470880       0.00643527      -0.00095914
H        3.64385587       2.62108518      -0.06826724       0.00675063       0.01096344       0.00631881
O        7.55221135      11.15648631      10.85308779      -0.01788725       0.00191379       0.00422669
O        6.14521606      10.87049707       9.13671934      -0.00253969      -0.00549710      -0.00780666
C        7.07911379       8.93985097      10.21028982      -0.00403208      -0.00026476       0.00432446
C        6.88193052      10.40251416       9.99748877      -0.00637943      -0.00233331       0.00181213
H        7.18644284       8.44893740       9.24482708       0.00227032      -0.00164512       0.00588867
H        7.95355513       8.72479129      10.80940985      -0.00535472       0.00436961       0.00812855
H        6.18447344       8.53404161      10.68502915      -0.00473213      -0.00229933       0.00143367
H        7.41870526      12.11924058      10.67291578      -0.01873760       0.00121373       0.00097713
O        3.06516955       9.88999478      -0.93295662      -0.01918423      -0.00043434      -0.04523206
O        1.90552824       8.29448934       0.14511652       0.02363118       0.00299156       0.00195718
C        1.16497323      10.58381553       0.26475329       0.00522888      -0.00131094      -0.00749487
C        2.06259054       9.45977545      -0.14845643       0.00441463       0.00271690      -0.01572030
H        0.75238338      10.39806120       1.25168435      -0.01035068      -0.01714451      -0.01757261
H        1.66875714      11.54485019       0.22046201       0.01317239      -0.00445095       0.01659952
H        0.32254099      10.60740167      -0.43170721       0.01762491       0.02053062      -0.02145876
H        3.53758407       9.12214354      -1.33042129      -0.01412264       0.00015625      -0.03957761
O        5.19587474       8.91618098       7.61167285       0.00622235      -0.00598902      -0.01201607
O        4.23404436       7.99902020       9.42609527       0.00323296      -0.00905862      -0.01573241
C        4.53923525       6.65670108       7.47774232      -0.00382470      -0.00234824      -0.02157304
C        4.61827763       7.92046746       8.27124406       0.00253382      -0.00647521      -0.01592392
H        4.39169131       6.86272158       6.42003645      -0.01342800       0.00399755      -0.01887435
H        5.49260271       6.13169059       7.58150260      -0.00340346      -0.00347207      -0.03347295
H        3.74668696       6.02268690       7.86724125      -0.00088391      -0.00375189      -0.01839416
H        5.44040426       9.67843891       8.22212131       0.00594582      -0.00800028      -0.01002657
