150
Lattice="11.577834515304922 0.0 0.0 0.0 11.577834515304922 0.0 0.0 0.0 11.577834515304922" Properties=species:S:1:pos:R:3:forces:R:3 energy=-104296.34375 stress="-0.0026335951406508684 0.00028882661717943847 0.0007287285407073796 0.00028882661717943847 -0.0010465161176398396 0.000630340859061107 0.0007287285407073796 0.000630340859061107 -0.005257223732769489" pbc="T T T"
N        6.40546006       7.37294629       2.83487634      -0.00836168       0.01730791      -0.00920308
N        7.39783215       5.79313440       1.74034751      -0.00540814       0.00365305      -0.01865579
C        5.97266255       8.23874071       3.92969092       0.00057094       0.00249946       0.00211099
C        4.60696244       7.85013323       4.46703242       0.00441450       0.00991899      -0.00105709
C        4.57973832       6.48284146       5.13139303       0.00129372       0.00897095      -0.00543384
C        7.19860950       6.30858793       2.95248102       0.00268432       0.00825351      -0.00480533
C        6.09781059       7.55288268       1.50924805       0.00544226      -0.01827458       0.00850683
C        6.71757428       6.55634754       0.82307775      -0.01399973       0.00840294       0.02478957
C        3.23120699       6.17269090       5.76593765       0.00215212       0.00816260      -0.00415874
C        8.27002119       4.67325017       1.41777409      -0.00465029       0.00956601      -0.00445409
H        6.73890046       8.18979518       4.70554644       0.00422698       0.00413552      -0.00016165
H        5.96954271       9.25451401       3.53466395       0.00663787       0.00795183       0.00023079
H        3.87224579       7.89668201       3.65880240       0.00395200       0.01268789      -0.00122124
H        4.31522020       8.62147260       5.18112667       0.00470036       0.00697608      -0.00069043
H        4.79553605       5.71622426       4.38299567      -0.00123622       0.00871363      -0.00783619
H        5.36816298       6.42689048       5.88872599       0.00212997       0.00367530      -0.00673005
H        7.60281691       5.92365234       3.87155117       0.01090427       0.01122784      -0.00389848
H        5.51908147       8.38668121       1.15663366      -0.01872978       0.00843807       0.00138662
H        6.76679332       6.36128168      -0.23019277      -0.01847325      -0.00322328      -0.00919474
H        2.42867628       6.25401365       5.03394026       0.00124185       0.01109441      -0.00302851
H        3.01007443       6.85744874       6.58852290       0.00443381       0.00767004      -0.00314386
H        3.19298793       5.15455489       6.16036781       0.00057385       0.00787710      -0.00556850
H        8.65800041       4.25222634       2.34146913      -0.00138248       0.00608409      -0.00899167
H        7.72719840       3.89841149       0.88486914      -0.00596359       0.00779599      -0.00622496
H        9.08832936       5.03490376       0.79763645      -0.00704986       0.00914536      -0.00798489
O        6.90771182      10.75242712       1.41335573      -0.01920652       0.00969387       0.00040263
O        9.46726059      11.34959824       1.34123583      -0.02419233       0.02830529       0.03060019
O        8.70233851       9.04628891       2.27279343      -0.01292673       0.01041090      -0.00913464
O        8.20918078      11.23311728       3.62390645      -0.04244725      -0.01442975       0.01656985
Mn       8.31753864      10.59875480       2.15502882      -0.02610594       0.00728554       0.01009043
O       -0.16411974       5.68295548       8.87492623       0.00370622       0.00003127      -0.01619500
C        1.00414791       5.87560255       9.67553690      -0.00224173      -0.00360641      -0.00715798
C        2.05286479       4.84159436       9.31101630      -0.00220427      -0.00634694       0.00177306
C        1.52069117       7.29745323       9.54205143       0.00288741      -0.00543445      -0.00326141
H        0.65996518       5.71513370      10.69734701      -0.01100640      -0.00238082      -0.01004404
H        2.95782333       4.95083559       9.91168467      -0.00707787      -0.00829366       0.00912432
H        1.66356544       3.83181785       9.44040865      -0.00586046      -0.00509477      -0.00103420
H        2.33846328       4.96533246       8.26439749       0.00673905      -0.00725972       0.00434218
H        2.42653983       7.44036505      10.13400705      -0.00371204      -0.00702399       0.00653613
H        0.77943749       8.01021877       9.89832175       0.00106977      -0.00295044      -0.01266454
H        1.74803495       7.52505105       8.49669691       0.01477059      -0.00773990      -0.00083265
H        0.08526765       5.85763252       7.96135596       0.01031090       0.00303032      -0.01368184
O        9.54464853       7.58528328      11.60800103      -0.00828063      -0.01370561       0.01418233
C        8.90552338       8.35169537      10.57895895      -0.00177317      -0.00951900       0.01377779
C        9.75809950       9.55092651      10.19102178       0.00439656      -0.01186395       0.02215636
C        8.65868061       7.40670007       9.42053414      -0.00195461      -0.00461322       0.01023126
H        7.94100459       8.71983660      10.95562165      -0.00182366      -0.00629255       0.01101354
H        9.28702032      10.12537633       9.39195845       0.00566354       0.00120185       0.03135115
H        9.90357070      10.21435258      11.04203811       0.01332102      -0.02266804       0.02910167
H       10.73616657       9.22714008       9.84040933       0.00015344      -0.01575015       0.01390078
H        8.21408253       7.93508949       8.57651238       0.00319017       0.00028235       0.01070489
H        7.98033895       6.60341232       9.70590788      -0.00733347      -0.00138421       0.00442754
H        9.59565745       6.94735981       9.10905629      -0.00354019      -0.00800036       0.01041697
H        9.44886424       8.09412523      12.43061010      -0.00677438      -0.01240965       0.01307577
O        9.25160978       2.49043653       6.38799072       0.00622571      -0.00584167      -0.01149482
C        9.89126754       3.75930593       6.51173968       0.00859499      -0.00732386      -0.01117966
C       11.37239472       3.64779229       6.18293502       0.00710607      -0.00861495      -0.01590277
C        9.19042609       4.80914167       5.66346833       0.00766149      -0.00414485      -0.00638339
H        9.78056994       4.02403016       7.56602996       0.01245270      -0.00948547      -0.01063657
H       11.86524871       4.62293668       6.21757371       0.00861301      -0.00978111      -0.01395879
H       11.87017543       2.98121465       6.88666223       0.00811478      -0.01161768      -0.01967032
H       11.50856659       3.25231356       5.17327219       0.00379770      -0.00551552      -0.01729907
H        9.58307299       5.80878123       5.86801764       0.00852720      -0.00559720      -0.00323223
H        8.11758475       4.78892247       5.86310191       0.00813439      -0.00408627      -0.00442708
H        9.35809821       4.59567157       4.60264799       0.00517182      -0.00030407      -0.00716676
H        9.22042708       2.25061522       5.45542437       0.00521661      -0.00551395      -0.01127210
O        5.87908491       3.68540565       6.16026580      -0.00041014       0.00006253      -0.01186967
C        5.73267891       3.49362358       7.57321750       0.00256723      -0.00407283      -0.01246986
C        5.71962277       4.83024068       8.30404684       0.00283877      -0.00597358      -0.00911066
C        4.49568360       2.66114371       7.86373014       0.00459576      -0.00637743      -0.01157562
H        6.62714270       2.93948690       7.86176154       0.00365269      -0.00369450      -0.01626490
H        5.69537037       4.68127388       9.38636623       0.00344336      -0.00970309      -0.00988859
H        6.60952894       5.41166063       8.06062337       0.00210135      -0.00433519      -0.00820809
H        4.83944110       5.41612333       8.02998715       0.00167392      -0.00673505      -0.00673874
H        4.35254244       2.52223768       8.93630372       0.00686032      -0.00712869      -0.01168185
H        4.57282336       1.68408141       7.38710351       0.00588849      -0.00551713      -0.01468373
H        3.60285407       3.15793130       7.47443293       0.00374095      -0.00680171      -0.00915107
H        5.02983008       3.98745321       5.82266895       0.00059907       0.00691647      -0.00801113
O       10.28477867       9.88289681       4.87510975      -0.01258975       0.00647411       0.00130761
C        9.70250417       9.33014066       6.04144859      -0.00829319      -0.00252283      -0.00076264
C       10.84961796       8.96680471       6.96249011      -0.00694102      -0.01459862      -0.00787887
C        8.71198371      10.31284595       6.64431925      -0.00086486      -0.00474077       0.01381177
H        9.16472482       8.39993450       5.78024731      -0.01253235       0.00185090      -0.00732641
H       10.50124540       8.40990166       7.82689158      -0.00733244      -0.01809806      -0.01030602
H       11.57746136       8.36168414       6.41909645      -0.01120112      -0.01438750      -0.01323135
H       11.35379444       9.87145060       7.30953611      -0.00193293      -0.01934198      -0.00340229
H        8.23279374       9.91313191       7.53764116       0.00563382      -0.00961240       0.01481864
H        7.93566636      10.55155936       5.91503804      -0.00588180       0.00332018       0.02212480
H        9.22204249      11.24253753       6.90048119       0.00437835      -0.00865412       0.01612568
H        9.58767424      10.36721195       4.40181808      -0.01764785       0.00215951       0.00528534
O        2.93535821       4.74431113       2.95344004      -0.00851130      -0.00656611       0.00097983
C        1.93314412       5.54277072       2.30566623      -0.00859049      -0.00463551       0.00401521
C        2.55171297       6.41429173       1.23224800      -0.01036897      -0.00111842       0.00607616
C        0.81125426       4.66973510       1.77251943      -0.00895333      -0.00239950       0.00240491
H        1.54004182       6.18497259       3.09804552      -0.00769101      -0.00730547       0.00633511
H        1.81458183       7.09908734       0.81440196      -0.01231834      -0.00269182       0.00736447
H        3.36108255       7.01533242       1.64000901      -0.01171388       0.00011201       0.00674240
H        2.95262277       5.79070234       0.42743390      -0.00947030       0.00152248       0.00493015
H        0.01617486       5.28556640       1.34807474      -0.00806186      -0.00051792       0.00422283
H        0.39526207       4.04947817       2.56720504      -0.00903418      -0.00385780       0.00096530
H        1.18277195       4.00880160       0.98351166      -0.00977562      -0.00062110       0.00080118
H        3.34725654       4.19818415       2.27559505      -0.01734306      -0.01334664       0.00144187
O        4.33928848       0.33625892       3.34416883       0.02271253      -0.02578694      -0.01982006
C        4.13068960       1.42816186       2.43186153       0.01360983      -0.00930989       0.00307035
C        5.31898086       2.37724803       2.47526956       0.01018357      -0.00558656       0.01128035
C        3.84343255       0.88313056       1.04199305       0.00432566       0.01532030      -0.00407642
H        3.24299785       1.94412726       2.81052259       0.01561743      -0.01934168       0.01985948
H        5.22323210       3.16543526       1.72167261       0.00184346       0.00611127       0.02539934
H        5.41442957       2.83524514       3.46074230       0.01486794      -0.02143442       0.01783189
H        6.24340550       1.83604581       2.25634918       0.01017982       0.00146410      -0.00335938
H        3.76059091       1.68397851       0.30323773      -0.00341927       0.02763999       0.01078088
H        2.91448558       0.31314506       1.03522951       0.00717036       0.01144899      -0.00688596
H        4.65898972       0.22423392       0.73938193       0.00395241       0.02364471      -0.02068880
H        5.24959343       0.04464936       3.20613406       0.02067907      -0.02388591      -0.03646500
O        2.24158180       9.66149224       2.12980303       0.02782172       0.01710310       0.01697028
C        1.22907830      10.01755276       3.09305757       0.01353896       0.00913036       0.00407904
C        1.75171104       9.76817104       4.49588422      -0.00057489       0.01671639       0.01072425
C        0.78330387      11.45984354       2.92020095       0.00199369       0.00454372      -0.00449344
H        0.38580890       9.35630978       2.88383971       0.02150947       0.00167117      -0.00491382
H        1.04792506      10.14524563       5.23120440      -0.01134306       0.01432972       0.00082813
H        1.90101876       8.70234457       4.67103606       0.00359142       0.01836486       0.01545882
H        2.70708868      10.28252457       4.61733927      -0.00485113       0.02344626       0.01932876
H       -0.04887518      11.66749672       3.59343992      -0.00412402       0.00069374      -0.01131755
H        0.45621608      11.65277655       1.89925171       0.00735483      -0.00218660      -0.00731196
H        1.60261750      12.13492183       3.17580161      -0.00573768       0.01271491      -0.00266210
H        3.00384503      10.21672647       2.34044216       0.02119462       0.02274415       0.02770970
O        5.26176866       8.32037989      10.10004625      -0.00626624      -0.01002425      -0.00187017
C        5.24974358       9.46069214       9.22340794      -0.00096920      -0.00556444       0.00359637
C        5.35487784       9.01458411       7.77626285      -0.00170269       0.00067717       0.00195408
C        4.01139177      10.30907670       9.45193047       0.00246072      -0.00220013       0.00723141
H        6.14238309      10.02502782       9.50909093       0.00068879      -0.01090217       0.00690942
H        5.39961336       9.87246227       7.10203802       0.00341555       0.00323580       0.00604302
H        6.23885596       8.39725946       7.61740857      -0.00481269      -0.00293612       0.00029529
H        4.47279431       8.42559416       7.51072763      -0.00418171       0.00653144      -0.00164128
H        4.04616407      11.21478683       8.84356749       0.00670242       0.00096403       0.01255403
H        3.91885228      10.59293997      10.49833416       0.00243649      -0.00819227       0.00846833
H        3.11515783       9.75253954       9.16527051       0.00065115       0.00314984       0.00283628
H        4.47289434       7.80641298       9.89490469      -0.01021308      -0.00321613      -0.00217456
O        8.82768346       2.01141709      11.57729356       0.00749671       0.00847870      -0.00759161
C        8.09252238       1.27773919      10.59116239       0.00637865       0.01053145      -0.00066793
C        6.64555798       1.72296523      10.63655334       0.00421143       0.00845149      -0.00737621
C        8.70849016       1.50262417       9.22913002       0.00774547       0.00729543      -0.00086534
H        8.12923050       0.21281576      10.84242876       0.00719211       0.00874311       0.00575422
H        6.04377815       1.17670917       9.90723673       0.00361303       0.00887913      -0.00506169
H        6.23643326       1.53927210      11.62429588      -0.00242127       0.01213376      -0.00892904
H        6.57071565       2.79053209      10.41460504      -0.00104541       0.00787656      -0.01526066
H        8.13042151       1.01178496       8.44570046       0.01048550       0.01350316      -0.00594153
H        9.73030785       1.12566210       9.18890548       0.00784343       0.00676830       0.00170038
H        8.73281090       2.56977197       9.00778658       0.01017185       0.00915006      -0.00130308
H        9.23542117       1.34576944      12.15618708      -0.01995945       0.00569032       0.01109144
