145
Lattice="11.463451923471286 0.0 0.0 0.0 11.463451923471286 0.0 0.0 0.0 11.463451923471286" Properties=species:S:1:pos:R:3:forces:R:3 energy=-85171.109375 stress="-0.0024027840700000525 -0.0008363398665096611 -0.0012533726403489709 -0.0008363398665096611 -0.005191935691982508 -0.000300226456602104 -0.0012533726403489709 -0.000300226456602104 -0.004270809702575207" pbc="T T T"
N        4.92455990       3.78406006       3.79328837      -0.00605708      -0.02915114      -0.00757131
N        5.32402050       1.91089812       2.78613353      -0.00851795      -0.00089943       0.00726813
C        4.34447999       4.75264311       4.72662902       0.00519486      -0.00449848      -0.01615983
C        3.12887590       5.46486972       4.16483628       0.00195371      -0.00759423      -0.01148698
C        1.90560528       4.58133871       3.97812141      -0.00241925      -0.00402141      -0.00352285
C        4.54847822       2.51287594       3.68767956       0.02090120       0.00101471      -0.02537662
C        5.97522958       4.00347433       2.92579119       0.01900667       0.02846852       0.00043276
C        6.23498419       2.82304671       2.29819803       0.03234082      -0.02356806      -0.02813196
C        0.71804756       5.36641743       3.43997814      -0.00368306      -0.00418335       0.00081748
C        5.28061257       0.48892073       2.48756996       0.02251569      -0.00548017      -0.01191583
H        4.10075484       4.21117132       5.64445534      -0.00025138      -0.00632685      -0.01259327
H        5.14404383       5.45382034       4.96414992      -0.00170317      -0.00474575      -0.01196659
H        3.39467305       5.93770869       3.21916889      -0.00361090      -0.00802934      -0.01528296
H        2.88003259       6.28712926       4.83779713       0.00434382      -0.00465924      -0.01332191
H        2.12901822       3.76677094       3.28355196      -0.00655426      -0.00781217      -0.00208831
H        1.64704324       4.11524242       4.93625451       0.00247848      -0.00057572      -0.00026476
H        3.77645173       2.04373024       4.26562202      -0.00089561      -0.00783288      -0.01728972
H        6.44617805       4.96733446       2.84497224       0.00826358      -0.02260313       0.00368239
H        7.00757505       2.52310023       1.60264249       0.00675764      -0.00154977       0.00606085
H        0.95053848       5.77205177       2.45401761      -0.00775696      -0.00572011      -0.00026391
H        0.48984533       6.21597368       4.08588470       0.00029769      -0.00403190       0.00093953
H       -0.16033503       4.73014282       3.34617688      -0.00381759      -0.00349617       0.00559662
H        4.60332474       0.01237137       3.19269629       0.00919946      -0.00789876      -0.01971212
H        4.93368954       0.32785579       1.46830873       0.02578190      -0.00212708      -0.00904229
H        6.27784124       0.06549489       2.59719667       0.01691043      -0.00484527       0.00011172
Cl       8.89822917      11.43893126       1.72882105      -0.01947773       0.01920423       0.00293994
O        8.49834524      12.45200963       0.63450488      -0.04010350       0.02131724       0.01126850
O       10.18363313      10.65248209       1.43909742      -0.02271616       0.02552730      -0.02219498
O        5.64136685       1.29437825       5.64666104       0.00088239       0.00511168       0.00240198
C        6.69881450       2.62448119       7.25358846      -0.00128406      -0.00361538       0.00948131
C        7.76580446       1.77924548       6.56198359      -0.00148493      -0.00399666       0.01100793
C        5.45267179       1.81041416       6.97113248      -0.00118023      -0.00095120       0.00452559
C        7.03471944       1.37343900       5.29699995       0.00209233      -0.00007774       0.00759652
H        6.87671609       2.76388506       8.31413931      -0.00358601      -0.00559850       0.00989836
H        6.63434602       3.61101483       6.78176302       0.00115425      -0.00315285       0.01072221
H        8.69061517       2.31247670       6.34373818       0.00040856      -0.00616609       0.01566895
H        8.00939394       0.91483059       7.18187589      -0.00604642      -0.00579256       0.00997509
H        5.35239844       0.98153918       7.68060606      -0.00233030      -0.00380352       0.00022721
H        4.52044219       2.38085339       6.99855812      -0.00053936      -0.00098103       0.00575797
H        7.17305961       2.14677658       4.53346051       0.00789772      -0.00122505       0.00816783
H        7.33747299       0.41518460       4.87965856       0.00018253      -0.00106180       0.00918913
O        8.74474226       9.45865978       4.38977766       0.00667036       0.01032887       0.00071496
C       10.83286549       9.96603575       5.39887284       0.00869113      -0.00038522       0.00006339
C       10.53016066       8.48047646       5.56029472       0.00548083      -0.00018942      -0.00804651
C        9.45407971      10.50822324       5.06718883       0.00989455       0.00468163       0.00510459
C        9.53256821       8.26210418       4.43358656       0.00351349       0.00858499      -0.00708905
H       11.25577343      10.43040354       6.28906399       0.01087818      -0.00673049       0.00175968
H       11.52483533      10.12084184       4.56939498       0.00826246       0.00256595       0.00058165
H       11.41399911       7.84732363       5.49497427       0.00372446      -0.00153826      -0.01345394
H       10.04435481       8.30821771       6.52545882       0.00688273      -0.00484282      -0.00861970
H        8.90837203      10.75058682       5.98550635       0.01191178       0.00126260       0.00687301
H        9.47912411      11.39407082       4.42819054       0.01095281       0.00767425       0.00971451
H       10.04445279       8.12527364       3.47398334       0.00135314       0.01243641      -0.00848901
H        8.86212197       7.41374810       4.59648965       0.00173146       0.00962722      -0.01064184
O        2.71259544       9.00306196       9.20797527       0.00433482       0.00838724      -0.00320545
C        0.85059465       7.67324950       8.70347201       0.00458968       0.00933048      -0.00416493
C        2.10402663       6.84498849       8.43486646       0.00416799       0.00908035      -0.00287765
C        1.40969338       9.08180211       8.62290150       0.00536370       0.00867817      -0.00437453
C        3.16270450       7.64603437       9.18103159       0.00398602       0.00856599      -0.00273174
H        0.05399416       7.48467371       7.98778619       0.00532211       0.00947575      -0.00454339
H        0.46371894       7.46913293       9.70489785       0.00371147       0.01041465      -0.00462067
H        2.01092683       5.81915791       8.77887322       0.00379064       0.00917667      -0.00345226
H        2.31215299       6.84058129       7.36301177       0.00520906       0.00997353      -0.00242266
H        1.50245819       9.39702288       7.57695515       0.00655864       0.00787593      -0.00417799
H        0.83570961       9.82536427       9.17881586       0.00524372       0.00919810      -0.00560778
H        3.25667033       7.28994032      10.21702365       0.00399265       0.00937434      -0.00283062
H        4.15111978       7.60926651       8.71664345       0.00356418       0.00800559      -0.00278622
O        6.90042187       9.66879223       9.53464654      -0.00063366      -0.00507107       0.01523778
C        9.26433943       9.40559171       9.77195789      -0.00302833      -0.00589201       0.01824858
C        8.52611396       8.55529506      10.80490904      -0.00351575      -0.00967158       0.01412117
C        8.15469399      10.30601887       9.22691343      -0.00109476      -0.00209844       0.02273557
C        7.16323323       8.41038459      10.15229537      -0.00235212      -0.00596224       0.01245892
H       10.07700485       9.98056584      10.21291833      -0.00379083      -0.00828458       0.02108699
H        9.67185057       8.77446142       8.97721949      -0.00459268      -0.00180174       0.01503935
H        9.00946965       7.59729264      10.99898778      -0.00451276      -0.01093543       0.00941863
H        8.44922886       9.09574274      11.74762148      -0.00451428      -0.01192603       0.01493791
H        8.15819582      11.28740504       9.70750443       0.00011039      -0.00157827       0.02329892
H        8.23477051      10.43273692       8.14090048      -0.00667362      -0.00165757       0.02341789
H        7.18048590       7.60910123       9.39412490      -0.00134314       0.00426605       0.00362518
H        6.34952333       8.20755571      10.85190486      -0.00394958      -0.01369928       0.00902888
O       11.32979139       4.65890810       8.24281230       0.00456604      -0.00338803       0.00812987
C        9.42645894       5.14454866       6.89680210       0.00376961      -0.00087643       0.01166099
C        9.00187294       4.61682516       8.26581585       0.00427276       0.00393486       0.01318516
C       10.91910589       4.80439241       6.87464617       0.00183225      -0.00659052       0.00901398
C       10.22146777       4.95036255       9.09680432       0.00733453       0.00029570       0.00983553
H        8.88800865       4.69515214       6.06138456       0.00021552       0.00037023       0.01375379
H        9.27124318       6.22488723       6.85074746       0.00841919      -0.00058505       0.00997591
H        8.07928970       5.06283435       8.63731661       0.00802773       0.01004693       0.01409560
H        8.88240867       3.53507825       8.23776665      -0.00207227       0.00486362       0.01591938
H       11.10923496       3.85670041       6.36025991      -0.00278567      -0.00879586       0.01187974
H       11.52201267       5.58013094       6.39252355       0.00323105      -0.01049429       0.00525853
H       10.22130891       6.01199319       9.37724296       0.01138083       0.00013059       0.00908946
H       10.32502783       4.34802120       9.99965061       0.00748526       0.00093397       0.00983176
O        3.88343127       2.28962743       9.86389611       0.00367978      -0.00286967      -0.01874319
C        4.72908592       4.43873233       9.49742895      -0.00840762       0.00226492       0.00391930
C        5.66213302       3.74770894      10.49377131      -0.00717747       0.00150064       0.00214735
C        3.45125906       3.64136263       9.70734764      -0.00443780      -0.00508490      -0.00382110
C        5.18862189       2.28866845      10.45894110      -0.00842094       0.00151259       0.00517498
H        4.61241332       5.50195318       9.69744799      -0.01371428       0.00020128       0.00944226
H        5.08520884       4.32050488       8.47194573      -0.00600379       0.00915446       0.00406933
H        6.72150856       3.84862255      10.25733792      -0.00815442       0.00114078      -0.00054243
H        5.50584618       4.17427783      11.48602920      -0.00365570       0.00215358       0.00181845
H        2.92969909       3.98783705      10.61364700      -0.00494379      -0.01753895       0.00023121
H        2.74524101       3.66806051       8.87691906      -0.00496674      -0.00092738      -0.00265369
H        5.83256139       1.64444452       9.85605228       0.00018108      -0.00524551       0.02348664
H        5.13752772       1.84904232      11.45743279      -0.02854437       0.01225032       0.00799641
O        3.65196716       8.80138428       6.23633043       0.01128662      -0.00660289      -0.00271313
C        5.74432529       9.89468005       6.29489313       0.00961977      -0.00447661      -0.00805300
C        5.95713286       8.41213646       6.56145069       0.01103896      -0.00350925      -0.00509790
C        4.26554553      10.05279890       6.60982112       0.01001656      -0.00501852      -0.00794426
C        4.67327931       7.83912386       5.99093704       0.01146615      -0.00557349      -0.00309208
H        6.37008557      10.52996017       6.91517592       0.00930378      -0.00258470      -0.01012339
H        5.94821957      10.11419564       5.24543272       0.00898721      -0.00655749      -0.00840291
H        6.85222402       8.01384192       6.08280791       0.01088949      -0.00368484      -0.00458263
H        6.01936861       8.23669971       7.63637293       0.01164152      -0.00151716      -0.00502655
H        4.09640649      10.21365934       7.67929351       0.01019213      -0.00166140      -0.00871491
H        3.78306058      10.85483386       6.04612791       0.00912347      -0.00781298      -0.01050079
H        4.76619369       7.68486841       4.90635477       0.01095944      -0.00629071      -0.00280362
H        4.37584172       6.89559828       6.45827889       0.01262495      -0.00516459      -0.00235647
O        2.44949643       8.12353743       2.73932730      -0.00192731       0.00994436      -0.00010064
C        3.22941628       9.25627663       0.84618015      -0.00425693       0.01042950      -0.00058821
C        1.71954490       9.09342033       0.69910312      -0.00289890       0.00326961      -0.00229377
C        3.53594352       8.13129938       1.81326788      -0.00030498       0.01449406       0.00232399
C        1.29950901       8.73013213       2.11602925      -0.00336997       0.00276321      -0.00293845
H        3.76738665       9.20266545      -0.09650574      -0.00317681       0.01008394       0.00036502
H        3.45508899      10.21390307       1.31561546      -0.00861161       0.01267581      -0.00382753
H        1.20832581       9.97759311       0.32720494      -0.00636065       0.00035402      -0.00381896
H        1.50678815       8.27045840       0.01568496       0.00201598       0.00184268      -0.00162539
H        3.58350785       7.16934167       1.27404225       0.00629361       0.01408529       0.00425115
H        4.46528292       8.25401176       2.37648366      -0.00259176       0.02076522       0.00398436
H        1.02204936       9.61447954       2.69480134      -0.00947794       0.00211605      -0.00520775
H        0.45854288       8.03398170       2.14815042       0.00055283      -0.00157410      -0.00374960
O       -0.12379916       2.51258526       2.33480580      -0.01382992      -0.00345343      -0.00153621
C        1.21856764       1.36352468       0.77329439      -0.01898266       0.00256407      -0.00933844
C        1.71625101       1.03876007       2.17956934      -0.01040345       0.00459588      -0.01228683
C        0.47395682       2.66072756       1.03835367      -0.02593714      -0.00267416      -0.00724077
C        0.52936441       1.45061741       3.04048760      -0.00961536      -0.00523266      -0.00798391
H        2.01862325       1.46872657       0.03923448      -0.02338584       0.00732740      -0.01228151
H        0.51341274       0.60028085       0.44444202      -0.01624921      -0.00048757      -0.00649334
H        1.99254569      -0.00283028       2.33174174      -0.00506417       0.00644666      -0.01485634
H        2.58552397       1.66232769       2.39705738      -0.01200800       0.00785419      -0.01475063
H        1.16959647       3.51444057       1.05215293      -0.03232890       0.00169781      -0.01373860
H       -0.32002187       2.86612224       0.32063625      -0.03339016      -0.01037282      -0.00194001
H       -0.16786684       0.61636152       3.14883049      -0.00836068      -0.00713360      -0.01148234
H        0.81440330       1.80686411       4.03738864      -0.00902839      -0.00955580      -0.00647247
