146
Lattice="11.453943694811352 0.0 0.0 0.0 11.453943694811352 0.0 0.0 0.0 11.453943694811352" Properties=species:S:1:pos:R:3:forces:R:3 energy=-76129.0546875 stress="-0.0037423693574965 -1.572377470893116e-06 -0.00037094160506967455 -1.572377470893116e-06 -0.003251695306971669 -0.0013725048629567027 -0.00037094160506967455 -0.0013725048629567027 -0.004764490760862827" pbc="T T T"
N        6.35857089       5.24942339       2.48948663       0.01008239       0.00603157       0.00135675
N        7.04708398       3.24257994       2.04669723       0.00527203       0.00618339       0.00149518
C        5.51814734       6.32271717       3.02918278       0.00656877       0.00546235       0.00185841
C        4.19952088       6.49598277       2.28140901       0.00643334       0.00381550       0.00201592
C        3.26608459       5.29178702       2.37405045       0.00723558       0.00414270       0.00775136
C        6.17213686       3.95305169       2.75565166      -0.00041658       0.00529206      -0.00053394
C        7.38824769       5.36836299       1.58602166       0.01669896      -0.00820538       0.01235539
C        7.82394908       4.10609649       1.30997883       0.00646317       0.01286879       0.01713121
C        1.86549461       5.55613851       1.83561554       0.00451079       0.00332392       0.01636174
C        7.16416036       1.78893532       2.05053056      -0.00524336       0.00450587       0.00210949
H        5.32435465       6.06172612       4.07033011       0.00704350       0.00947262       0.00243941
H        6.11780702       7.23403368       3.01118354       0.00670852       0.00602978      -0.00066387
H        4.38718031       6.75380776       1.23608570       0.00509840      -0.00029444       0.00117713
H        3.71452589       7.36741115       2.72846137       0.00671977       0.00513141      -0.00107543
H        3.69149101       4.45411019       1.81419960       0.00340334       0.00433177       0.00521979
H        3.20580707       4.97639786       3.42248231       0.01346075       0.00451269       0.00778869
H        5.46614040       3.56990807       3.47523915      -0.00642917       0.00618581      -0.00580484
H        7.71103520       6.32704478       1.21903546       0.01927568       0.00067410       0.02034843
H        8.61117696       3.74496894       0.67170225       0.01289453       0.00152839       0.02128723
H        1.91336304       5.84260345       0.78487173      -0.00253846      -0.00116549       0.01520976
H        1.36116953       6.35094934       2.38893877       0.00900618       0.00580323       0.01615289
H        1.25762831       4.65341947       1.90008701       0.00405774       0.00464372       0.02446279
H        6.42231600       1.37909714       2.72924580      -0.01170796       0.00673265      -0.00474510
H        6.99027277       1.39923148       1.04913172       0.00065956       0.00752953      -0.00063205
H        8.16628364       1.50451479       2.37094904      -0.00771615      -0.00057839       0.00644504
O       10.00044798      12.18465630       2.19094807      -0.00064814       0.04938781      -0.00404263
O       10.34516100      11.57182786       0.13507187       0.01188004       0.00755230       0.01098871
O        8.59613881      10.84987030       1.21074595       0.03057456      -0.00724638       0.03225072
N        9.64981928      11.52749006       1.17210830       0.01421405       0.01653949       0.01253686
O        4.98946630       3.90446645       5.86197966       0.00004856      -0.01984710      -0.02902427
C        6.64512125       2.28393711       6.06138889       0.00328994      -0.00773287       0.00976081
C        5.47521979       1.80776012       6.92583007      -0.00548249      -0.00653160      -0.00178540
C        6.39846717       3.78131265       6.04759350      -0.00271027      -0.01001206      -0.00963020
C        4.36489549       2.81041744       6.58474151      -0.00090718      -0.00329810      -0.00776866
H        7.61762091       1.99793149       6.45999618      -0.00101769       0.00287099       0.02575563
H        6.56758068       1.87658491       5.04933040       0.01998749      -0.01835404       0.01362169
H        5.19655543       0.77595468       6.72184304      -0.00523169      -0.00489759      -0.00808891
H        5.75357572       1.87557609       7.97806476      -0.01540535      -0.01210096       0.00053200
H        6.70561305       4.23245835       7.00082861      -0.01855423       0.00231099      -0.01109436
H        6.89505451       4.33177110       5.24712036       0.00487751      -0.01594408      -0.00824991
H        3.60473281       2.39198242       5.93123911      -0.01093140      -0.00503325       0.00616390
H        3.86260908       3.20594109       7.46951661       0.01122282       0.01491956      -0.00975057
O        8.16898614       9.30254183       4.57867721      -0.00434887      -0.01848647       0.00304221
C       10.23651219      10.38397839       4.97222887      -0.01084840      -0.00238863      -0.00467643
C       10.33892905       8.93016603       5.42941888      -0.00179213      -0.00015052      -0.00137490
C        8.72944657      10.58588929       4.90647176      -0.01177818      -0.01204202      -0.01041442
C        9.18911959       8.30332683       4.65731629       0.00587952      -0.00735684      -0.00518030
H       10.72327800      11.09025579       5.64666506      -0.01813143       0.00318086      -0.00591636
H       10.65694497      10.50195467       3.97408303      -0.00766882      -0.00348149      -0.00315920
H       11.29293840       8.45805259       5.20000144       0.00210875       0.00681625       0.00215947
H       10.16548215       8.85473267       6.50622363      -0.00500366      -0.00060439      -0.00219092
H        8.32369499      10.90692987       5.87562818      -0.01712389      -0.00444186      -0.01590288
H        8.44001365      11.30250370       4.13864670      -0.01312853      -0.02244064      -0.01889050
H        9.51811109       8.02815163       3.64826012       0.00989160       0.00420127      -0.00654358
H        8.76493284       7.42174564       5.15002885       0.01463421      -0.01486254      -0.01254389
O        3.07644490       9.42484086       9.01905645      -0.00189748       0.00713909      -0.00661382
C        0.95766259       8.35264009       8.97786439       0.00115097       0.00315687      -0.01468912
C        2.04753899       7.31127066       8.74299504       0.00380009       0.00344491      -0.00152773
C        1.69505931       9.65952346       8.71064034       0.00080180       0.00184855      -0.01926824
C        3.29287740       8.02502982       9.23976065       0.00108775       0.00858366      -0.00251928
H        0.10375843       8.22022256       8.31874782       0.00607242      -0.00245004      -0.01950729
H        0.59700043       8.31130457      10.00633304      -0.00547321       0.00922259      -0.01718590
H        1.87720215       6.37551946       9.26514747       0.00385927       0.00741377       0.00513285
H        2.11584338       7.08079992       7.67963258       0.00792032      -0.00491614       0.00096372
H        1.60983086       9.94740643       7.65401164       0.00823327      -0.00719218      -0.02203804
H        1.33835163      10.49363367       9.32138599      -0.00452310       0.00640726      -0.02964506
H        3.45273209       7.84245024      10.30611985       0.00100484       0.01283562      -0.00221658
H        4.20297722       7.72882454       8.71277018       0.00206840       0.00894505      -0.00023916
O        6.83495745      10.02672176       9.79083259      -0.00789553       0.00182456       0.01679823
C        9.12293767       9.50655684       9.39464557      -0.01054668       0.00403474       0.00403744
C        8.54896694       8.56048181      10.44996583      -0.00380075       0.00247131       0.00565624
C        8.07439613      10.61268744       9.35273580      -0.01009756       0.00407892       0.01492082
C        7.06137304       8.67166646      10.15154608      -0.00493026       0.00168225       0.01344775
H       10.09900495       9.90336654       9.66227390      -0.00884241       0.00304763      -0.00216796
H        9.19243158       8.99953712       8.42745187      -0.01800240       0.00633430       0.00265402
H        8.92224912       7.53831723      10.36174392      -0.00394755       0.00299846       0.00236186
H        8.76280013       8.95384804      11.44329344       0.00190517       0.00134695       0.00460893
H        8.34359037      11.41350311      10.04314669      -0.00629997      -0.00017521       0.01801372
H        7.93580743      11.02779288       8.34783836      -0.01509983       0.01034828       0.01864922
H        6.78684281       8.00626038       9.31425909      -0.00836933       0.00326204       0.01387101
H        6.41366148       8.43605530      11.00078299      -0.00021482      -0.00016227       0.01606855
O       11.37622997       5.60660390       7.57383139       0.00282386      -0.00409462      -0.00604028
C        9.48544238       4.53937879       6.66502076       0.00613582      -0.00822125      -0.00624421
C        9.37369427       4.52434482       8.18977333       0.00569257      -0.00959736      -0.00669178
C       10.97336881       4.78208870       6.47622773       0.00522792      -0.00460829      -0.00607590
C       10.33179830       5.64983445       8.54998974       0.00306773      -0.00783625      -0.00599021
H        9.14834086       3.62572856       6.18054455       0.00840685      -0.00810289      -0.00758152
H        8.91114994       5.37745838       6.26135942       0.00461245      -0.00899121      -0.00482123
H        8.36416704       4.70430550       8.56159991       0.00535415      -0.01126879      -0.00753292
H        9.72432721       3.56973993       8.59053749       0.00646707      -0.00896949      -0.00679453
H       11.53040639       3.83728483       6.51321316       0.00768512      -0.00287598      -0.00693398
H       11.22026528       5.29281032       5.54271568       0.00407813      -0.00406480      -0.00569811
H        9.82053012       6.61949910       8.48781594       0.00064072      -0.00936720      -0.00488209
H       10.77625498       5.55902147       9.54432894       0.00360511      -0.00700798      -0.00654295
O        3.61216053       5.21483172      10.55612521       0.00152569      -0.00673304       0.00774671
C        5.38997460       3.86836587       9.77294532       0.00048506      -0.00338930       0.00081757
C        4.23388658       2.97139683      10.21091339       0.00232323      -0.00524467       0.00004862
C        5.03685354       5.17822556      10.45772249       0.00091779      -0.00648490       0.00608698
C        3.06637372       3.94103824      10.16807046       0.00128469      -0.00686038       0.00909008
H        6.37299678       3.49324181      10.06084350       0.00044288      -0.00391222      -0.00104904
H        5.38240117       4.00663579       8.69244206       0.00017033      -0.00019584       0.00153413
H        4.08267976       2.09276405       9.58541467       0.00015982      -0.00241232      -0.00273818
H        4.39076723       2.62786082      11.23396370       0.00659959      -0.00941073      -0.00235951
H        5.45702957       5.21215098      11.46646184       0.00283469      -0.01088215       0.00526050
H        5.38281346       6.06168053       9.91361189      -0.00012945      -0.00415176       0.00989988
H        2.65341177       4.02742167       9.15409066      -0.00679818      -0.00533605       0.01289994
H        2.26271003       3.68015124      10.85752177       0.00762296      -0.01048397       0.01430094
O        5.40198145      10.14840132       5.92949276       0.00414291      -0.00095659      -0.00503580
C        5.67483450       7.84331712       6.26008145      -0.00527567       0.00168192       0.01281269
C        4.24562738       8.09063151       5.78735061      -0.00065774       0.00199330       0.00090237
C        6.02247346       9.20860504       6.82384441      -0.00499094       0.00412059       0.00559518
C        4.35532797       9.49721426       5.21128912       0.00632012      -0.00206047      -0.00628031
H        5.75931362       7.03441160       6.98722603      -0.01320489       0.00695072       0.01885296
H        6.33421875       7.63130223       5.41599626       0.00023946      -0.00567883       0.01949412
H        3.86881762       7.35957039       5.07328291       0.00336073      -0.00146654       0.00282009
H        3.57242975       8.09545670       6.64205297      -0.00710835       0.00875432      -0.00465810
H        5.62315093       9.35458024       7.83058007      -0.01078105       0.01225703       0.00183797
H        7.09298780       9.40805635       6.82612425      -0.00483513       0.00114964       0.01075661
H        4.62457879       9.47762822       4.14728931       0.01130380      -0.00793425      -0.00450450
H        3.42951526      10.06876689       5.32726013       0.00755632       0.00058457      -0.01340374
O        0.43506459       8.71733914       2.63050644      -0.00212944      -0.00235376      -0.00212270
C        2.43252836       9.81121290       1.97230019      -0.00642028       0.00027156      -0.00737591
C        1.92303426       8.95819673       0.82108481      -0.00817543       0.00127850      -0.00710166
C        1.63068430       9.29123368       3.16167985      -0.00081944      -0.00321893      -0.00583714
C        0.45981834       8.80383971       1.19426005      -0.00579494      -0.00636955      -0.00218400
H        3.51022714       9.74007864       2.12249401      -0.00604418       0.00311421      -0.01099772
H        2.18316253      10.85116301       1.76876261      -0.00983845      -0.00032738      -0.00447004
H        2.07846736       9.44496719      -0.13768823      -0.01544333       0.00503808      -0.00607815
H        2.41759493       7.98826368       0.80127755      -0.00361733       0.00396150      -0.01316503
H        2.17005185       8.51182924       3.71416679       0.00193284      -0.00363907      -0.00965258
H        1.36966135      10.08259092       3.87272518       0.00154741      -0.00548807      -0.00293347
H       -0.11782906       9.67072462       0.86057830      -0.01250210      -0.01151073      -0.00259739
H       -0.00170675       7.89258160       0.80747033      -0.00084567      -0.01008767       0.00150737
O        2.37866505       1.84613872       1.54352982       0.00078748       0.01253807      -0.00276577
C        3.46891712       1.17429571       3.54677268      -0.00170511       0.00804770      -0.00294107
C        2.19785145       1.95426137       3.88807243      -0.00386336       0.00478154      -0.00471747
C        3.65963536       1.50313790       2.06843208      -0.00111030       0.00676295      -0.00310624
C        1.40382670       1.80615832       2.60236926      -0.00088581       0.00372511      -0.00580686
H        4.33489282       1.44061829       4.15367613      -0.00311543       0.01104134      -0.00265466
H        3.30042309       0.10815315       3.68149824       0.00139509       0.00789949      -0.00172852
H        1.66461433       1.55560403       4.75215836      -0.00444499       0.00294167      -0.00636171
H        2.42953142       3.00427706       4.08264098      -0.00631587       0.00487530      -0.00381418
H        4.31945568       2.36756676       1.94013604       0.00211726       0.00354651      -0.00480441
H        4.08540835       0.67339532       1.49586604      -0.00449502       0.00489843      -0.00240597
H        0.85521147       0.86300091       2.56918984       0.00471377       0.00078583      -0.00833767
H        0.67608011       2.59647499       2.42632182      -0.00563654      -0.00142083      -0.00610703
