148
Lattice="11.073782660481758 0.0 0.0 0.0 11.073782660481758 0.0 0.0 0.0 11.073782660481758" Properties=species:S:1:pos:R:3:forces:R:3 energy=-101434.53125 stress="-0.0013519184431061149 -0.0007717747939750552 -0.00029847210680600256 -0.0007717747939750552 -0.001409778487868607 0.00041752342076506466 -0.00029847210680600256 0.00041752342076506466 0.00019037708989344537" pbc="T T T"
N        6.09025486       6.32482763       2.00828825      -0.00078967      -0.00552173      -0.00357094
N        7.46305341       6.35700881       3.67744418       0.00106472      -0.00890620      -0.00535274
C        4.96930830       6.70534759       1.14410468      -0.00016111      -0.00167548      -0.00245753
C        6.39172934       6.94109412       3.14901176       0.00119096      -0.00700080      -0.00330117
C        7.00580389       5.32148318       1.79393573      -0.00265205      -0.00673008      -0.00575662
C        7.86966777       5.33870955       2.84662182      -0.00146964      -0.00869620      -0.00681171
C        5.29839140       7.90026833       0.26747117       0.00023806       0.00424880       0.00562078
C        8.02933980       6.67456302       4.98202862       0.00185284      -0.01173361      -0.00508994
H        4.70315273       5.82014811       0.57016456       0.00198004       0.00182974      -0.00859594
H        4.12870114       6.91673754       1.80249564      -0.00135556      -0.00649540      -0.00248826
H        5.88555641       7.79329214       3.56501044       0.00302558      -0.00687645      -0.00164714
H        6.93253121       4.65765696       0.94818127      -0.00597723      -0.00758402      -0.00504672
H        8.72178145       4.72292966       3.09853246      -0.00167291      -0.00970741      -0.00862039
H        5.74970551       8.69936516       0.85462853       0.00285943      -0.00104603       0.01053832
H        4.37317641       8.30009072      -0.14760346       0.00039451       0.00947428       0.01043108
H        5.96486694       7.64150013      -0.55224074      -0.00137769       0.00901321       0.00291666
H        7.56426543       7.58514809       5.34843725       0.00768082      -0.00830647      -0.00636628
H        7.83951304       5.84979937       5.66871154      -0.00460026      -0.00978941      -0.00473116
H        9.10138183       6.82928912       4.88493252       0.00289646      -0.01907256      -0.00389823
O       11.18024830      10.05242943      -0.15358717       0.01607540      -0.01552474      -0.01405817
N       10.36323342      11.19977159       1.78550359       0.02201727      -0.02659112      -0.02974749
C       10.75196594      10.62642801       0.82201260      -0.00583345       0.01491546       0.03909821
O        0.32066034       3.22237828      10.18890180      -0.01076177      -0.01053199      -0.00286131
H        0.75888391       2.81436864      10.94682123      -0.00888178      -0.00248541       0.00071441
H       -0.46198165       2.65494054       9.96706376      -0.01505244      -0.00796052       0.00858336
O        7.58414903      11.60835424       1.22168086       0.01019734      -0.00164194       0.00167697
H        8.45947396      11.61967007       1.65228961       0.01339655      -0.00523254      -0.00120093
H        7.75704906      11.03849794       0.43664248       0.00646056       0.00143320      -0.00059447
O        1.96734950      11.84343099       2.57298292       0.00956500       0.00731643      -0.00538951
H        2.20981461      10.87798470       2.52533014       0.00910482       0.00788054      -0.00359544
H        1.03740129      11.87037888       2.28185956       0.00781903       0.00498018      -0.00620492
O        7.41210594       1.24075938       4.74448025       0.00086322      -0.00471967      -0.00454071
H        8.38425417       1.32059356       4.66926711       0.00150670      -0.00615272      -0.00439880
H        7.02659999       1.95973119       4.22559944       0.00292591      -0.00530502      -0.00636879
O        2.04892084       6.88155124       2.83189656       0.00273846       0.00829367       0.00944504
H        1.35426693       6.82509425       3.52959895       0.00354400       0.00940614       0.01041078
H        1.62517265       6.94076761       1.95250975       0.00287271       0.00457658       0.00956873
O        1.33159193       3.66480210       1.97926831       0.00113110       0.00067274      -0.01575921
H        2.29692526       3.78108693       2.12259044       0.00045756      -0.00142690      -0.00881269
H        0.99990000       4.48115433       1.57937819       0.00449605       0.00282727      -0.01364649
O       12.20665544       7.40348059       0.24663736       0.01412511      -0.00137511       0.00391952
H       11.82956205       8.29815444       0.22690149       0.01552583      -0.00271207      -0.00009965
H       11.45350051       6.76824056       0.22071379       0.01329261      -0.00077271      -0.00360014
O        3.28506250       5.27228543       7.10625681      -0.00614928       0.00287445       0.00160810
H        3.04744340       5.94491248       7.76512627       0.00310898       0.00369808       0.00387785
H        2.81129257       4.47015159       7.40936809      -0.01079623       0.00612397       0.00228292
O        4.81608540      10.65368131       4.99642807      -0.00225738       0.00710963       0.00182439
H        4.36036033      11.25771743       5.60596115      -0.00727198       0.00333083       0.00135804
H        4.53454820       9.73225445       5.21999037       0.00088863       0.00555544      -0.00200340
O        8.68826939       4.34487894       7.81580150      -0.00425207      -0.01155126      -0.00231610
H        8.65086019       5.09780087       8.43484983      -0.00751900      -0.00637030      -0.00898528
H        9.50393236       4.46739076       7.27643932      -0.00697160      -0.01034099      -0.00610711
O        5.84842541       0.11916975       9.02079781       0.00064371       0.00813311       0.00397454
H        6.21497955       1.00258568       9.17619148      -0.00155681       0.00981799      -0.00215938
H        6.20589990      -0.18187021       8.13844937      -0.00278316       0.00758015       0.00298269
O       -0.68616170       8.64717770       8.51531820       0.00208516      -0.00933374      -0.00023840
H       -0.38090585       9.09733214       9.31277944      -0.00339486      -0.00993881       0.00083212
H       -1.31646257       7.96708649       8.81988446      -0.00494128      -0.00544833      -0.00536502
O        3.90825308       5.71935889       4.57827948       0.00070092       0.00212500       0.00391059
H        3.48047856       5.54266948       5.45445954       0.00014323       0.00294270       0.00371853
H        3.22077113       5.87490255       3.90872959       0.00097100       0.00317626       0.00396394
O        3.81548614       1.32227547       0.68217080       0.01675785       0.00326469      -0.00191345
H        3.02068533       1.25628310       1.26261034       0.01291314       0.00742337      -0.00665565
H        4.41835343       0.70223501       1.15065112       0.01251741       0.00367687       0.00497667
O        9.16682167       2.06437153       9.31205570      -0.02887410       0.00099489       0.01991308
H        9.05622908       2.79609659       8.66905987      -0.02287596      -0.00179620       0.01524127
H        8.36519246       2.15440930       9.84594199      -0.02814173       0.00773813       0.02061563
O        5.22873451      10.72365494       2.32777588       0.00787354       0.00705221       0.00296476
H        5.12330885      10.84553814       3.29843286       0.00615540       0.00846377       0.00238483
H        6.16628891      10.88843582       2.10734505       0.00933306       0.00224176       0.00434665
O        4.07084374       1.42426311       7.19774253      -0.01251221       0.00512912       0.00709724
H        4.85238914       2.00819685       7.13991271      -0.00940541       0.00067566       0.00529148
H        4.31082748       0.83077978       7.92984847      -0.01514383       0.00446351       0.00692227
O        7.98725962      10.02570712      10.12697767       0.00441709       0.00548905      -0.00484109
H        7.12592163      10.30674242       9.72683355       0.00309706       0.00846488      -0.00032485
H        8.66713446      10.33588698       9.51524649       0.00151604       0.01962455      -0.00000301
O        6.31758278       7.65096981       8.04512443      -0.01531315       0.00685211      -0.00351354
H        5.68954161       7.18722746       7.48047121      -0.01222247       0.01376534      -0.01275662
H        6.46190281       8.50521150       7.57662851      -0.00811531       0.00840750       0.00171047
O       10.59952918       5.35421681       0.53298414       0.00143909       0.00414392      -0.01303815
H        9.67689136       5.42103056       0.79386810       0.00301072       0.00989861      -0.00891138
H       10.70931650       4.59402515      -0.08879443      -0.00503229       0.00094329      -0.00945115
O        6.65332411       2.50969808      10.70203118      -0.02406362       0.00779726       0.03009771
H        5.69524882       2.58767516      10.75520771      -0.02621403      -0.03173367       0.02610625
H        6.90306415       1.88279730      11.41686012      -0.00620937       0.00365225       0.01961161
O        8.47847979       6.72050117       9.37152971      -0.01250577      -0.00447986      -0.01605594
H        7.66297328       7.06339185       8.93087181      -0.01308241      -0.00267608      -0.01390850
H        8.39520480       6.93758559      10.30989392      -0.01168956      -0.00757314      -0.01536730
O       10.08024819       1.12845573       4.36530682      -0.00034714       0.00154656      -0.00758107
H       10.96776354       1.22840084       4.76957330      -0.00352954      -0.00301252      -0.00201531
H       10.21219940       0.67755007       3.50400999       0.00350952      -0.00271856      -0.00611937
O       10.42689581       3.76489930       3.84804601       0.00415561      -0.00149294      -0.01272167
H       10.17728890       2.82145166       3.93621065       0.00531390      -0.00209484      -0.01054384
H       11.20963826       3.74303443       3.25203725       0.00253924      -0.00142985      -0.01456452
O        2.61000117       7.21751079       9.05186503       0.01734467       0.00643554       0.00431755
H        3.40267490       7.73486226       9.22209688       0.02304087      -0.00283825       0.00610803
H        2.07239611       7.25337445       9.87923630       0.01948466       0.00392230       0.00518803
O        4.37662472       8.13577140       5.76602286       0.00366560       0.00345156      -0.00535914
H        3.46312467       8.21157812       6.14467785       0.00575705       0.00600085      -0.00100844
H        4.30808734       7.33353239       5.21052411      -0.00001948       0.00244476      -0.00371498
O       11.55945632       6.86259176       4.99408161       0.00530879       0.00912558       0.01230277
H       12.07152735       7.40984027       5.65314823       0.00654582       0.00691095       0.01288713
H       11.34103289       6.03989062       5.47687085       0.00215293       0.00821743       0.00950835
O        2.13344585       0.56911987       9.62908665       0.01723541      -0.01371200       0.00048715
H        2.87167657       0.72232466      10.24630046       0.01748802      -0.00601546      -0.00071023
H        1.50526618       0.01158723      10.11122339       0.02068026      -0.01230450       0.00267599
O        1.36769566      -0.27060111       7.10346292      -0.00626120       0.00531426       0.00379410
H        1.74399885       0.06493281       7.93715879       0.00016660       0.00389411       0.00087382
H        1.57881171       0.38408736       6.41455986      -0.00447892       0.00254253       0.00126925
O        7.77973948       9.54548724       3.67104028      -0.00228354      -0.00776126      -0.00322737
H        8.70938430       9.45573596       3.96643923      -0.00181659      -0.00858086      -0.00412200
H        7.51875909      10.43912445       3.94113241       0.00015096      -0.00698303      -0.00373073
O       -0.61610810       9.21167729       4.09783142      -0.00435516      -0.00174071       0.00739841
H       -0.36574532       9.39975066       3.18565841       0.00461864      -0.00052663       0.00919544
H       -0.29689391       8.31607782       4.31786738       0.00057044       0.00205970       0.01336621
O        8.65707773       8.18005536       1.06682089      -0.00024797      -0.00689513      -0.01130427
H        8.44624138       8.82743426       0.37287437       0.00370483      -0.00386856      -0.00930913
H        8.34213620       8.60772265       1.87965360       0.00053061      -0.00766373      -0.01037134
O       -0.12239619       4.49122105       6.32948516      -0.00800000       0.00352830      -0.01107559
H       -0.27577566       4.11240485       5.42433684      -0.00245916       0.00503831      -0.01293038
H        0.57962260       3.96254766       6.75007625      -0.00837840       0.00479583      -0.00909844
O        4.08697994       3.67395171       2.07174827      -0.00398405       0.00407656       0.00695284
H        4.11074033       2.85421972       1.53709541       0.00676372       0.00736914       0.00364640
H        4.58379644       3.45909626       2.87738396      -0.00378439       0.00524771       0.00736168
O        9.33018710      10.41431837       6.72398127       0.00127053      -0.00824721       0.00141281
H        9.85713684      10.58616039       5.93584186       0.00086919      -0.02128845      -0.00200172
H        9.84367391       9.79016728       7.27810979      -0.00244511      -0.00851768       0.00414007
O        2.81874762       9.41549198       2.10164547       0.00852329       0.00449786       0.00183107
H        2.63794648       8.56627279       2.55028282       0.00677392       0.00629130       0.00413569
H        3.77383275       9.59071057       2.14141642       0.00852136       0.00403323       0.00424372
O        1.62407832       1.53671886       5.05792861       0.00056568      -0.00102565      -0.00122453
H        2.02552530       2.37017417       5.31513544       0.00174323      -0.00306590       0.00252007
H        1.92244841       1.31695470       4.13778349       0.00247468       0.00207795      -0.00139707
O        6.55353838       2.68002067       6.97130848      -0.00528696      -0.00968684      -0.00349079
H        7.22340574       3.30845343       7.30153425      -0.00468570      -0.00919391      -0.00595016
H        7.02785481       2.05444669       6.38972078      -0.00643845      -0.00906918      -0.00537509
O        5.65165487       3.63156671       4.47746356      -0.00209929       0.00074311      -0.00081067
H        5.08918860       4.43338140       4.51379424      -0.00024168       0.00170486       0.00334956
H        5.82561598       3.40330370       5.40846441      -0.00441951      -0.00592612      -0.00211641
O        1.88838170       3.03198859       7.74258562      -0.01567852       0.00899526       0.00459044
H        1.48483059       2.91675126       8.62208473      -0.02080577       0.01259731       0.00261812
H        2.59178236       2.35387470       7.65714449      -0.01609607       0.00851567       0.01041266
O        6.78091060      10.05186482       6.86193938      -0.00216930       0.00839103       0.00293165
H        6.28246826      10.30167530       6.06011797      -0.00068276       0.00887799       0.00213410
H        7.75393998      10.20435580       6.69259463      -0.00147466       0.00234563       0.00298481
O        1.88277552       8.30945667       6.66557775       0.01027901       0.00926130       0.00859587
H        1.63203356       9.27062176       6.79502312       0.00527739       0.00823316       0.00765222
H        1.88072489       7.92849050       7.56454225       0.01645324       0.01048928       0.00897855
