146
Lattice="12.0159297096066 0.0 0.0 0.0 12.0159297096066 0.0 0.0 0.0 12.0159297096066" Properties=species:S:1:pos:R:3:forces:R:3 energy=-66508.5625 stress="-0.001784089021384716 0.00013672540080733597 -0.00037063396302983165 0.00013672540080733597 -0.0021063247695565224 0.000502305687405169 -0.00037063396302983165 0.000502305687405169 -0.0009957457659766078" pbc="T T T"
N        7.77321132       7.04570275       2.41060683      -0.00430194       0.00469542      -0.00539312
N        7.25749804       8.81797128       3.53680219       0.00345777      -0.00112951      -0.00448748
C        7.74998682       5.67504432       1.90765976       0.00241929       0.00727856      -0.01126339
C        6.99267178       7.51848110       3.38792417       0.01809585       0.00580883      -0.00232095
C        8.54424117       8.06810111       1.91315643      -0.00328660      -0.00059307      -0.04189581
C        8.21639556       9.18124351       2.62369794      -0.00855941       0.03187144      -0.01893198
C        7.04131055       5.59303284       0.56919501       0.00076634       0.00699631      -0.01040810
C        6.68204050       9.68355666       4.55082767       0.01983413       0.00337404       0.00056934
H        8.78453515       5.33334422       1.84290622      -0.00144216       0.00335082      -0.00930427
H        7.24990890       5.06757592       2.66256723      -0.00264944       0.00811891      -0.01001590
H        6.26932880       6.95519564       3.95145933       0.02788356      -0.00050658       0.01324774
H        9.24571755       7.97168806       1.09820733      -0.03151309       0.01655936      -0.03328004
H        8.57302008      10.19000330       2.52764319      -0.01956792       0.00373387      -0.03178678
H        6.04114440       6.01779735       0.64376412       0.00207087       0.01010039      -0.01175360
H        6.94320481       4.55455759       0.25511853      -0.00152685       0.00742260      -0.01060836
H        7.58867334       6.13633104      -0.20057991       0.00313038       0.00499277      -0.01077676
H        5.73669176       9.26358414       4.88398576       0.00754821       0.01534264      -0.01130233
H        7.36975057       9.76044078       5.39098966       0.01312280      -0.02431229       0.00725371
H        6.50327808      10.66961443       4.12914142       0.04069049       0.00986290       0.01562952
O        9.38056470       9.90830251      -0.01230995       0.00630379      -0.00378591      -0.03602386
O       11.51497950       9.38868681       0.45874782       0.00708032       0.00078034      -0.02737724
C       10.71841816      11.55671451       1.07541535      -0.00776428      -0.00684869      -0.01351315
C       10.52297619      10.15993571       0.44891387      -0.00211880       0.00009942      -0.02688330
H       11.33283165      11.50386151       1.97723637      -0.01575560      -0.01222969      -0.00875863
H        9.76662440      12.04436002       1.29113111      -0.01025584      -0.00972955      -0.01728364
H       11.25647891      12.19369755       0.36873804      -0.00245345       0.00056526      -0.00228885
O        2.71808779       4.95535476       4.56538592      -0.00621773      -0.00254956      -0.00015612
C        1.43729509       4.64460467       5.08693166      -0.00486587      -0.00365797       0.00196385
C        2.98545107       4.31883739       3.33309497      -0.00809443      -0.00350124      -0.00001749
C        1.22627125       5.47022201       6.33152080       0.00138702      -0.01400235       0.00957465
C        4.32601544       4.81303137       2.84313460      -0.00866178      -0.00468394      -0.00233305
H        0.67271999       4.87339699       4.32950815      -0.00691268       0.00393762       0.00661117
H        1.37298240       3.56766055       5.30379790      -0.00649627      -0.00512010      -0.00695111
H        2.99339028       3.22805932       3.46762466      -0.00854497      -0.00340545       0.00093898
H        2.19559394       4.55240568       2.60440643      -0.00895792      -0.00394879       0.00093549
H        0.22317735       5.31854968       6.73020538       0.00226828      -0.01453559       0.01099860
H        1.94586133       5.21723816       7.10966856       0.00258775      -0.02364447       0.00507116
H        1.34431673       6.52843307       6.09850822       0.00402054      -0.01223367       0.01968103
H        4.66947205       4.23224476       1.98693071      -0.01153803      -0.00435291      -0.00362401
H        4.26526745       5.86072179       2.54760298      -0.00824944      -0.00450006      -0.00113044
H        5.06075922       4.71516015       3.64409980      -0.00694228      -0.00600230      -0.00432260
O        3.20240723      11.04146018       6.27464972       0.00036746       0.00875294       0.00292969
C        1.78449110      11.15194045       6.27578980       0.00101590       0.01231223       0.00322187
C        3.71885134      10.90222246       7.58873887      -0.00071520      -0.00374328       0.00179023
C        1.28635965      11.38392858       4.87121756       0.00284669       0.02405498       0.00471956
C        5.22666132      10.87180927       7.52680787      -0.00114691      -0.01137632       0.00145626
H        1.35545400      10.23558012       6.69882880      -0.00180005       0.01037264      -0.00371966
H        1.48877324      11.98100763       6.93648931       0.00262555       0.00789091       0.00912172
H        3.37049952      11.74475461       8.20046724       0.00361757      -0.00658739       0.00791234
H        3.32799631       9.98427658       8.05005690      -0.00566468      -0.00487220      -0.00511318
H        0.19988850      11.46953824       4.87638673       0.00317235       0.02801887       0.00455970
H        1.69674280      12.30720234       4.46441915       0.00656532       0.02542838       0.01192439
H        1.56361148      10.57219532       4.19993534       0.00087375       0.02768058      -0.00053562
H        5.64904587      10.90615009       8.53150699      -0.00071310      -0.01677050       0.00136188
H        5.57352153       9.95432250       7.05534499      -0.00605393      -0.01170057      -0.00149953
H        5.60732938      11.72397562       6.95959150       0.00297028      -0.01186278       0.00396291
O        6.57098712       1.35732962       4.74168318       0.00878937      -0.00760892      -0.00450972
C        7.36278735       2.46735772       5.12943363       0.00783968      -0.00784551      -0.00249411
C        5.32170775       1.78739611       4.21930114       0.00971225      -0.00876597      -0.00733547
C        8.71761011       1.98635787       5.57989268       0.00631374      -0.00834696       0.00102589
C        4.56543383       0.61034288       3.66254680       0.01395112      -0.00963652      -0.01101206
H        7.46558840       3.15475245       4.27409919       0.01019579      -0.00794196      -0.00205296
H        6.85582741       3.02559387       5.93007044       0.00610739      -0.00793247      -0.00365612
H        4.74589831       2.29703993       5.00842919       0.00654355      -0.01128550      -0.00823835
H        5.50904249       2.52303593       3.42723475       0.01066609      -0.00721401      -0.00556219
H        9.33217045       2.83608044       5.88084440       0.00751256      -0.00857906      -0.00139231
H        8.62185157       1.31296510       6.43135168       0.00435589      -0.00514764       0.00308836
H        9.22396792       1.45575804       4.77210806       0.00634722      -0.01221669       0.00362873
H        3.62236485       0.94555136       3.22891210       0.01642555      -0.01137882      -0.01725232
H        5.13901540       0.13228918       2.86820794       0.01963764      -0.00980064      -0.00660834
H        4.32855001      -0.11715366       4.43691867       0.01014623      -0.00918247      -0.01187336
O        9.65426180       8.46691030       5.89757954       0.00388458      -0.00220687       0.00754070
C       10.38973482       7.59058549       5.05293684      -0.00396818      -0.00187194       0.00138113
C       10.29013629       9.73110350       6.00447819       0.00192721      -0.00066346      -0.00082704
C        9.74562490       6.22374833       5.08115049       0.00314245      -0.00418153       0.01549883
C        9.66502836      10.53726850       7.11762927       0.00478703       0.00152454      -0.00092384
H       10.42488098       7.99722749       4.03335224      -0.01905837      -0.00580929      -0.00052226
H       11.42589378       7.53125893       5.41231925       0.00101292       0.00376272      -0.01249471
H       11.35710213       9.57565241       6.20718859       0.00310332       0.00250634      -0.00527231
H       10.21982680      10.26164909       5.04230066      -0.00362713      -0.00431788      -0.00230080
H       10.18915144       5.58294110       4.31706410       0.00969946      -0.01100526       0.02554239
H        9.86525030       5.74541003       6.05272895       0.00244007       0.00922249       0.02177411
H        8.67571727       6.30215936       4.89466077       0.00347210      -0.01307311       0.01033109
H       10.17576899      11.49801843       7.20042177       0.00562755       0.00122875      -0.00310484
H        8.60920116      10.73854686       6.92780202       0.00486192       0.00213517       0.00064094
H        9.75001471      10.02179981       8.07403728       0.00596483       0.00260815      -0.00063598
O        2.21675473       6.99378106       9.93398120      -0.00255761       0.00870776       0.00606143
C        2.96533728       6.79804357      11.11410831      -0.00427532       0.00665760       0.00643878
C        1.53268041       8.24199492       9.93361555      -0.00620505       0.00676903       0.00878662
C        3.47043719       5.37865086      11.11578132      -0.00571918       0.00626922       0.00621815
C        0.76168855       8.33061973       8.64197615      -0.00682899       0.00766001       0.00948769
H        3.80136489       7.51599405      11.15097525      -0.00344622       0.00547391       0.00857442
H        2.33163483       6.99329470      11.99176949      -0.00489172       0.00648910       0.00592726
H        0.86538202       8.32334163      10.80104337      -0.00674319       0.00320558       0.00848645
H        2.26680252       9.06054667      10.00662312      -0.00890550       0.00879189       0.01091548
H        4.03511640       5.16594740      12.02227619      -0.00753347       0.00546084       0.00699173
H        2.62756082       4.69047243      11.06829448      -0.00617307       0.00704712       0.00444109
H        4.12030207       5.18507633      10.26135633      -0.00460048       0.00626704       0.00725779
H        0.19247130       9.26010531       8.60388724      -0.00944795       0.00598308       0.01242952
H        1.43951078       8.28738977       7.78696282      -0.00755328       0.01197304       0.00890306
H        0.06393347       7.49791494       8.56402129      -0.00456101       0.00606357       0.00813826
O        5.73542572       2.85068453       9.58257616       0.00221901      -0.00804555       0.00166413
C        4.79711855       1.83409637       9.27895775      -0.00133222      -0.00484850       0.00291307
C        7.03127397       2.48382571       9.13182643       0.00037843      -0.01105994      -0.00050435
C        3.42557308       2.23976110       9.75364331       0.00045431       0.00186147       0.00170957
C        7.99840192       3.60299979       9.41557689       0.00322342      -0.01320380      -0.00202860
H        4.79443497       1.65714456       8.19269448      -0.00175562      -0.00638281       0.00322598
H        5.11021161       0.89448277       9.75880885      -0.00555210      -0.00543571       0.00425196
H        7.34128430       1.55211667       9.62922952      -0.00074040      -0.01158941      -0.00113314
H        6.98829555       2.27556721       8.05301376      -0.00196184      -0.01096537      -0.00026250
H        2.70680621       1.44618689       9.54469053      -0.00341452       0.00571384       0.00113960
H        3.42865122       2.42228510      10.82776712       0.00040227       0.00208496       0.00152227
H        3.09218311       3.14618101       9.25023480       0.00565916       0.00347672       0.00145230
H        8.98259250       3.35911714       9.01256110       0.00144468      -0.01469581      -0.00511146
H        7.65853935       4.53010184       8.95476649       0.00362770      -0.01198003       0.00027700
H        8.10472964       3.76170628      10.48830861       0.00675757      -0.01472228      -0.00233746
O        7.23385070       6.50682397       7.83889248      -0.00382635       0.00269988       0.01671017
C        7.85858009       7.57944461       8.53786199      -0.01154369       0.00424807       0.02123678
C        5.91176583       6.81924250       7.45421682      -0.00217354      -0.00149983       0.00787801
C        9.25296981       7.16793220       8.93385000      -0.01193666       0.00923990       0.02688959
C        5.29162530       5.60889062       6.80343224       0.00500999      -0.00402516       0.00574277
H        7.89093163       8.45963580       7.88406416      -0.01182486       0.00564668       0.02277067
H        7.26086608       7.83853827       9.42303848      -0.01688677       0.00048606       0.01826751
H        5.32303338       7.13178922       8.33002470      -0.00851333      -0.00182401       0.00347584
H        5.92324346       7.67313275       6.75663196      -0.00027465      -0.00276685       0.00664666
H        9.72625811       7.95879851       9.51783162      -0.02019943       0.00673039       0.03711034
H        9.23338262       6.26327329       9.54293994      -0.01172112       0.00372565       0.01853526
H        9.85005628       6.97656552       8.04307657      -0.00537778       0.01965213       0.02952026
H        4.27912587       5.82285888       6.46335929       0.00670397      -0.00694825      -0.00082115
H        5.88267414       5.29746040       5.93879034       0.01107763      -0.00404648       0.01024608
H        5.25556984       4.77344187       7.50559526       0.00250200      -0.00295724       0.00662401
O        2.82387083       9.73243993       2.31404405       0.00502753       0.01176578      -0.00169842
C        3.71363025       8.72487776       2.72105445      -0.00095677       0.00572568      -0.00295448
C        3.21759903      10.33621570       1.09123560       0.00173643       0.00111213      -0.00791091
C        3.24292700       8.17031443       4.04528327       0.00154722       0.01225664       0.00052238
C        2.15592849      11.32491336       0.69512997       0.00240815      -0.00085196      -0.01446246
H        3.75829507       7.93281784       1.95481351      -0.01120748       0.00359011      -0.00082919
H        4.72762631       9.14448099       2.79981349       0.00282618      -0.00266731      -0.00893160
H        4.20105276      10.81405318       1.22114319       0.00261045       0.00072667      -0.01544282
H        3.33113742       9.56106344       0.32092754      -0.00220525      -0.00554892      -0.00128677
H        3.88053747       7.35601469       4.39097977      -0.00205369       0.00866678      -0.00169806
H        3.22398893       8.95357958       4.80515252       0.01065543       0.01388466      -0.00111437
H        2.23836797       7.75813684       3.93956241      -0.00182864       0.01930807       0.00694921
H        2.44491423      11.84710716      -0.21825397       0.00241578      -0.00970763      -0.01936977
H        1.21397115      10.79467396       0.53834567       0.00169203      -0.00043470      -0.00985432
H        2.01394755      12.06620052       1.48406038       0.00458377       0.00659356      -0.02134590
