148
Lattice="11.611973788197986 0.0 0.0 0.0 11.611973788197986 0.0 0.0 0.0 11.611973788197986" Properties=species:S:1:pos:R:3:forces:R:3 energy=-73077.34375 stress="-0.0019314609235152602 0.00030281461658887565 -0.00032052540336735547 0.00030281461658887565 -0.0016482864739373326 -0.00042914479854516685 -0.00032052540336735547 -0.00042914479854516685 0.0002665684442035854" pbc="T T T"
N        6.38880949       5.59161051       1.83327167      -0.00324708       0.00176400      -0.01043884
N        5.73951946       3.54306247       1.58165816      -0.01278362       0.00391239      -0.00168664
C        7.25968707       6.76878658       1.88396021       0.00193930      -0.00209400      -0.00922009
C        6.80808278       4.32546354       1.73846245      -0.00926077      -0.00067529      -0.00282463
C        5.01820992       5.61294423       1.72179627      -0.00291705       0.00855489      -0.01451162
C        4.61024604       4.32331579       1.56939339      -0.00859040       0.00954932      -0.00918992
C        7.47348008       7.36238328       0.50466396       0.00307525       0.00020248      -0.00786251
C        5.75775286       2.08989656       1.49578325      -0.01976971       0.00311124       0.00866668
H        6.77202180       7.48372025       2.55314752       0.00610559      -0.00137293      -0.00704776
H        8.19217874       6.45154352       2.35346488       0.00107664      -0.00736260      -0.01122043
H        7.83509694       4.00390975       1.80671086      -0.01094578      -0.00493309      -0.00039315
H        4.46162874       6.53198740       1.75432358       0.00338095       0.01342622      -0.02449013
H        3.63434477       3.89544642       1.42004248      -0.01022838       0.01389668      -0.01175632
H        7.91780898       6.63693432      -0.17832126       0.00213492       0.00118057      -0.00936513
H        8.13668296       8.22343005       0.57817856       0.00459993      -0.00109963      -0.00566613
H        6.54203710       7.71461494       0.05984608       0.00392994       0.00280032      -0.00734279
H        6.74478256       1.76509116       1.16738569      -0.02268401      -0.00236705       0.00569180
H        5.47251243       1.65897077       2.45403873      -0.01635236       0.01073466       0.01286200
H        5.04154593       1.77688664       0.74201846      -0.02484472       0.00133000       0.01436199
O       10.06886257      11.82806344      -0.08031219      -0.03835666      -0.01215041      -0.02148458
N        7.98949688      12.91860389      -0.56372389       0.00757372       0.01869881       0.00869823
C        9.02229163      12.36699169      -0.32830627      -0.03629917       0.01676652      -0.01051908
O        5.57743393       9.28716511       9.99666554      -0.01715946      -0.01403013       0.00287569
C        5.78416065       8.64978043       8.74549436      -0.00400092      -0.00902832       0.00066769
C        5.26763995       9.47289837       7.57900848      -0.00729918      -0.01278424      -0.00089306
H        6.84911235       8.42200567       8.59344014      -0.00081116       0.00337715       0.00537577
H        5.26599772       7.68731438       8.80176823       0.00731379      -0.01515597      -0.00477023
H        5.37633458       8.91887587       6.64642630       0.00186064      -0.01081776      -0.00114968
H        4.21578238       9.73028874       7.71835903      -0.01016438      -0.02403523      -0.00490324
H        5.82967297      10.40119257       7.48471109      -0.01627389      -0.00724697       0.00206206
H        5.82592259      10.23048116       9.88554519      -0.01518296      -0.01434867       0.00732379
O       10.23537810      10.42808949       7.99991176       0.00174507       0.01220077       0.00275537
C       10.77573055       9.18792451       8.47211510       0.00188413       0.00855079      -0.00683153
C       11.20142170       9.24852461       9.91937392       0.01198040       0.00091316      -0.00957161
H       10.03487445       8.39138111       8.34143142      -0.00147477       0.01134315      -0.00508810
H       11.61716819       8.97324806       7.81134394      -0.00366369       0.00939319      -0.01375678
H       11.58523095       8.27679032      10.23711016       0.01311088      -0.00103801      -0.01707032
H       11.96474605      10.00725330      10.09026755       0.01463129      -0.00119387      -0.01210435
H       10.35268363       9.50154225      10.55553719       0.01730262      -0.00051269      -0.00245756
H        9.65745967      10.77330705       8.69019110       0.01306372       0.01354020       0.01121238
O        9.20044135       6.08409148       6.76579258       0.00793374      -0.00266434      -0.00388829
C       10.22537826       6.76527778       6.04412034       0.00529931       0.00030708      -0.00440437
C        9.74324978       8.09107473       5.48647693       0.00016865      -0.00357556      -0.00841255
H       11.05633115       6.91341132       6.73795135       0.00395390       0.00599553      -0.00409895
H       10.58150533       6.12019605       5.23158448       0.00925265       0.00001320      -0.00232080
H       10.57716099       8.70233341       5.14270551      -0.00220890      -0.00404391      -0.01495133
H        9.06503599       7.92812906       4.64546091      -0.00261796      -0.00923054      -0.00493278
H        9.21697006       8.66457828       6.24993235       0.00196375      -0.00110718      -0.00920199
H        8.35047807       6.37941930       6.38539376       0.00635213      -0.00800342      -0.00412764
O        1.02979102       9.84274209       5.08553065       0.00100794      -0.00244325      -0.00862339
C        2.07715889       8.89523732       5.22992290       0.00065926      -0.00211596      -0.00432768
C        1.75508472       7.68810793       4.37550655       0.00630754      -0.00086257      -0.00784916
H        3.03571171       9.33978655       4.93688168       0.00195211      -0.00119568       0.00178178
H        2.16931578       8.60381777       6.28522906      -0.00521374      -0.00393218      -0.00442928
H        2.45197867       6.87332052       4.54630310       0.00669298       0.00011836      -0.00516666
H        0.75883109       7.32122279       4.61785528       0.00561619      -0.00253243      -0.01360670
H        1.76396772       7.95554336       3.31869328       0.01151631       0.00042699      -0.00740212
H        1.40428043      10.75015931       4.99922925       0.00036986      -0.00121238       0.00088412
O        6.12318613       0.29462831       9.44223713      -0.00230533      -0.01276287       0.01623179
C        4.97657654       1.04158653       9.07534886       0.00708097      -0.00317807       0.01111850
C        3.73007611       0.59767353       9.82904462      -0.00078815      -0.00343704      -0.00369880
H        5.15714714       2.11128273       9.23083706       0.01270675      -0.00620335       0.02426615
H        4.81703641       0.89327688       8.00146690       0.01507154       0.00964701       0.00848019
H        2.82586754       0.98218286       9.34759582       0.00542684       0.01642790       0.00100698
H        3.66731369      -0.49089490       9.83276984      -0.01368556      -0.00236008      -0.02553627
H        3.73781086       0.92974118      10.86768159       0.00044034      -0.02534265       0.00275241
H        6.74166837       0.77940798      10.06565336       0.00186919      -0.00557809       0.00975422
O       11.59551100       9.92426958       2.52060350       0.01329583       0.00710881      -0.01100630
C       10.55683662       9.12332858       1.99582351       0.00666052       0.01136547      -0.00477529
C       11.00210752       7.70010629       1.68040027       0.00005302       0.00982940      -0.00538772
H        9.69969501       9.09759614       2.68279370       0.01064262       0.01592325       0.00017279
H       10.22571925       9.63384388       1.09143366       0.00343327       0.01176053      -0.00325459
H       10.25361355       7.18312029       1.07356551      -0.00346735       0.01166835      -0.00214678
H       11.93345350       7.72282381       1.11192585      -0.00187448       0.00680108      -0.00851011
H       11.16777533       7.11992482       2.59007463       0.00130221       0.00977859      -0.00580320
H       11.78429687       9.71078885       3.45162271       0.01416230       0.00836110      -0.01071136
O        9.84486976       4.60467125       2.98544756      -0.00151493      -0.00100133      -0.01324087
C       10.43736075       3.40493007       3.52272953      -0.01587389       0.00080183       0.00495784
C        9.89969093       2.15512235       2.86191892      -0.00693858      -0.00156051       0.00296837
H       11.52666433       3.46529519       3.41885092      -0.01401114      -0.00338369       0.02594933
H       10.21013033       3.41553893       4.58976584      -0.03605208       0.00875873       0.00021189
H       10.38535311       1.26305737       3.26180820      -0.01601760       0.00019206       0.01708630
H        8.82723862       2.06063888       3.04348673      -0.01020056       0.00156028      -0.01651993
H       10.07223751       2.16105046       1.78419458       0.01144306      -0.00810877       0.00613704
H       10.30664642       4.81222627       2.16811278       0.00345728      -0.01659074      -0.01413649
O        5.55373647       0.54108748       4.99698526      -0.00338470       0.00540918       0.00290480
C        6.64180824       1.42522085       5.26668203       0.00084195      -0.00038568       0.00417291
C        7.88480595       0.70485180       5.73168287      -0.00376326      -0.00697017       0.00538817
H        6.86745821       2.02576753       4.37222950       0.00495380      -0.00158083       0.00451034
H        6.27883661       2.11049170       6.03421820       0.00368851       0.00137335       0.00373998
H        8.70335507       1.40428399       5.90335635      -0.00003386      -0.01164457       0.00624992
H        7.69717381       0.16090283       6.65795755      -0.00741407      -0.00639334       0.00484496
H        8.23101944      -0.00528619       4.97442320      -0.00749668      -0.00860380       0.00545128
H        5.91231002      -0.22603382       4.54043488      -0.00712648       0.00341912       0.00353865
O        4.41783564      11.00103357       1.69981278      -0.00658214      -0.00659829       0.00705352
C        5.25990758       9.93359113       2.10759384       0.00121963      -0.00529637      -0.00546827
C        6.69046079      10.42061642       2.05576656      -0.00197408       0.00306877      -0.00658261
H        4.99472325       9.61111376       3.12922457       0.00694177      -0.01533824      -0.00735101
H        5.13417650       9.07688653       1.43432453       0.00356498      -0.00003803      -0.01227766
H        7.37538640       9.66848175       2.44738105       0.00359172       0.00441903      -0.01416836
H        6.98236755      10.66057063       1.03316128      -0.00655232       0.01150904      -0.00576091
H        6.81427682      11.32344972       2.65582972      -0.00553570      -0.00037771      -0.00079587
H        3.51472017      10.67914657       1.62400608      -0.00399601      -0.01269168       0.00222872
O        2.05215063       3.54399372      10.60534942       0.01249123       0.01528794       0.02607450
C        1.67672110       4.82955912      10.11554631       0.00624400       0.00664160       0.00812974
C        2.87468342       5.70146242       9.79725188       0.00104398       0.00608957      -0.00830086
H        1.02458906       4.73320057       9.23804812       0.00450566      -0.00904226       0.01173058
H        1.07746859       5.27457724      10.91241501       0.00706600       0.01613399       0.00321928
H        2.56380477       6.71637266       9.54122846      -0.00362937       0.00081253      -0.02342393
H        3.54416577       5.75575434      10.65599624       0.00337308       0.02376354      -0.01144762
H        3.44012277       5.29872271       8.95341706       0.00092351      -0.00377242      -0.00341065
H        2.46922595       3.05440211       9.88929435       0.01373480       0.00686674       0.03266624
O        1.80849253       0.76124709       4.82924880      -0.00186861      -0.00056731       0.01320687
C        2.46206555       1.42981889       3.74685444      -0.00381774      -0.00020498       0.01220804
C        1.81780591       1.19807737       2.39232905      -0.00636786      -0.00023805       0.01390207
H        2.52552201       2.50359733       3.96941100      -0.00382696      -0.00033376       0.01225955
H        3.47897636       1.03971154       3.75324658      -0.00390041       0.00005776       0.01025144
H        2.49078163       1.53161902       1.59792771      -0.01013817       0.00396695       0.01264825
H        1.59420447       0.14186467       2.23764625      -0.00258490      -0.00066069       0.01244952
H        0.87865328       1.73488531       2.27160569      -0.00867848      -0.00337882       0.01819829
H        0.96781986       1.16942370       5.09799934      -0.00368322      -0.00278758       0.01145148
O        6.79803079       6.93504814       5.85256070       0.00101915      -0.01646739      -0.00226462
C        5.95857966       5.77835927       5.98577985       0.00016943      -0.01477793       0.00692732
C        4.53438759       6.10132158       5.62156385       0.00073141      -0.01742217       0.00257081
H        6.35301239       4.96260336       5.36833660       0.00025621      -0.02010509       0.01437831
H        6.05484300       5.48671104       7.02988607      -0.00089654      -0.00591004       0.00929517
H        3.90073550       5.21459727       5.67956135       0.00038865      -0.01665546       0.00928539
H        4.12990409       6.86825570       6.28347508       0.00023006      -0.01193091      -0.00416826
H        4.48689253       6.47469395       4.59557392       0.00179800      -0.02641820      -0.00059484
H        6.74537818       7.25037924       4.94477347      -0.00043669      -0.02310481      -0.00444740
O       11.16489246       1.19001240       6.39793825      -0.00454788       0.00974172       0.00157824
C       11.35424345       2.22007218       7.37645805       0.01567370       0.00664563       0.00060099
C       11.05109973       1.75884580       8.78063782       0.01560269       0.01031098       0.00159091
H       12.39143391       2.57320923       7.30372481       0.02029175      -0.00842091      -0.00404104
H       10.70297250       3.05756151       7.10034190       0.02649558       0.01548374       0.00329633
H       11.25551999       2.54871130       9.50354664       0.02425557       0.00898281       0.00045837
H       10.00178136       1.48080296       8.88427769       0.01345119       0.01954360       0.00430453
H       11.65750990       0.89625348       9.05649821       0.00837803       0.00500649      -0.00004630
H       10.99536816       0.35026328       6.85705617      -0.00303052       0.00986691       0.00259434
O        8.10839388       5.57923769       9.29939169       0.00720215       0.00849622      -0.00499299
C        8.33763427       4.17328030       9.33830084       0.00199728       0.00828719       0.00808921
C        7.62438440       3.43395856       8.22252067       0.00536233       0.00079370       0.01110917
H        9.41218319       3.96326790       9.29367139       0.00157404       0.00385327       0.01578643
H        7.98268846       3.80943833      10.30326565      -0.00431135       0.01760727       0.00891328
H        7.76215020       2.35630949       8.32670176       0.00433241       0.00167489       0.02004813
H        6.55299862       3.64028907       8.26341904       0.00549334       0.00162623       0.00609649
H        8.00230943       3.75017988       7.24791558       0.00868116      -0.00692117       0.01008868
H        8.56870050       5.91115372       8.51072298       0.01028969       0.00088078      -0.00617350
