144
Lattice="12.00302579495039 0.0 0.0 0.0 12.00302579495039 0.0 0.0 0.0 12.00302579495039" Properties=species:S:1:pos:R:3:forces:R:3 energy=-100128.2421875 stress="-0.0015709181316196918 -0.0003976464067818597 0.00040078142774291337 -0.0003976464067818597 -0.0002906645240727812 4.74097796541173e-05 0.00040078142774291337 4.74097796541173e-05 -0.0013017115416005254" pbc="T T T"
N        8.47217971       6.46471846       1.11347404       0.00325756      -0.01974422      -0.02068499
N        8.95771098       4.46443140       1.79927340       0.00623173      -0.01391882      -0.02492554
C        7.70647518       7.62103985       0.63432743       0.00855365      -0.01504010      -0.01751897
C        8.01609863       5.21458501       1.21948132       0.01799297      -0.01398295      -0.01709443
C        9.73160103       6.52772279       1.65308250       0.00859398      -0.00110781      -0.02521524
C       10.03729294       5.27093509       2.08203056       0.01756692      -0.02491260      -0.01796138
C        6.90128548       8.23011461       1.75794907      -0.00055861      -0.02073741      -0.01907843
C        8.86559439       3.02904842       2.05000863       0.01293854      -0.01467717      -0.01835568
H        8.43592423       8.33478389       0.24747760       0.00563923      -0.01259133      -0.01117052
H        7.07445076       7.27520629      -0.18473260       0.01008987      -0.01189764      -0.02368777
H        7.05037244       4.86782282       0.89468023       0.00843787      -0.02188676      -0.02325858
H       10.27394767       7.46292781       1.65049554       0.00302397      -0.01545991      -0.02290372
H       10.92016724       4.88075349       2.55578063       0.00826950      -0.01174757      -0.02737951
H        6.18037234       7.52139294       2.17093906      -0.00148349      -0.02224745      -0.02386384
H        6.37333171       9.10228322       1.38413354      -0.00085232      -0.01984504      -0.01846944
H        7.55807701       8.58173535       2.55223512      -0.00385194      -0.02289612      -0.01513870
H        7.87961356       2.68283883       1.75500116       0.00529802      -0.01572537      -0.00457198
H        9.62589723       2.49358470       1.48156078       0.00023550      -0.02050719      -0.02816483
H        8.98550137       2.83727070       3.11422553       0.02394662      -0.01240819      -0.02036563
O        8.28191241      10.81100229       1.34947955      -0.01422310       0.01585052       0.02950217
O       10.35477163      12.03167581       0.35163526      -0.02495182       0.01915383       0.01549232
O       10.33997499       9.40739577       0.55837163      -0.01212317       0.01804483       0.03957140
O       10.51570685      10.88863582       2.69368017      -0.01029044       0.04246731       0.02415156
Mn       9.87367730      10.79836788       1.23455100      -0.01670852       0.02271594       0.02687036
O        2.05793177       5.17113248       3.95615133      -0.01824170      -0.01353908       0.00397161
C        1.37274677       4.01549514       4.39977729      -0.01540314      -0.01556225       0.00267541
C        2.42085260       5.09712795       2.58992610      -0.01683521      -0.01122385       0.00440279
C        1.00158811       4.19803675       5.84987905      -0.01421173      -0.01732653       0.00283432
C        3.18654426       6.34494905       2.24052868      -0.01233874      -0.01243871       0.01004295
H        0.47330330       3.85735353       3.78429805      -0.01586512      -0.01618191       0.00382969
H        2.00595884       3.12721428       4.26137063      -0.01310769      -0.01362938       0.00180070
H        3.02519217       4.19807855       2.40922813      -0.01961431      -0.01284054       0.00311101
H        1.51980089       5.00701509       1.96317622      -0.01628178      -0.00625727       0.00303978
H        0.43847895       3.33554749       6.20697981      -0.01501574      -0.01675762       0.00266184
H        1.89446013       4.30737660       6.46390630      -0.01300482      -0.01912803       0.00143136
H        0.39085530       5.09267795       5.97669969      -0.01333875      -0.01692244       0.00325863
H        3.54518753       6.29697326       1.21387293      -0.00936629      -0.00884840       0.01093608
H        2.55499440       7.22601537       2.34425029      -0.01084365      -0.01154476       0.01220263
H        4.04335827       6.46338583       2.90575127      -0.01358081      -0.01882336       0.01265720
O        3.52567209      11.04483958       6.24648387       0.00320612       0.00143965       0.00969249
C        2.12927821      11.05712697       6.50790906       0.00213706       0.00952979       0.00294283
C        4.30486173      10.88196817       7.41214178      -0.00439823      -0.00297946       0.01417779
C        1.39064967      11.15950263       5.19923817       0.00920245       0.01714363      -0.00025547
C        5.76619804      10.92710126       7.02877984      -0.00248760       0.00072742       0.02385263
H        1.84866721      10.13831423       7.03743693      -0.00678766       0.01029712      -0.00007343
H        1.88804010      11.90207506       7.17205678       0.00467891       0.01022857       0.00260431
H        4.06917021      11.67871952       8.13127373      -0.00938071      -0.00629637       0.01607478
H        4.06095643       9.92477898       7.89823090      -0.00684746      -0.00555271       0.00750871
H        0.31527830      11.12356408       5.36076739       0.00813082       0.02061719      -0.00656716
H        1.65443632      12.07274459       4.66673753       0.01413712       0.01894973       0.00545385
H        1.65069060      10.31948279       4.55767334       0.01122452       0.01907282      -0.00176974
H        6.39728849      10.92996544       7.91862198      -0.00733591      -0.00261947       0.02731392
H        6.03505312      10.06588041       6.41833912       0.00106879       0.00408316       0.02097932
H        5.97433854      11.82433025       6.44382087      -0.00066266       0.00482939       0.03094053
O        6.21653837       2.21372802       3.95138354       0.00786856       0.00287175      -0.00102902
C        6.41381030       3.12428342       5.01821784       0.00820565       0.00026206       0.00111216
C        5.14715517       2.62757768       3.11895767       0.00822385       0.00627086       0.00040662
C        7.55112742       2.64911295       5.88557826       0.01271126       0.00145704      -0.00478816
C        4.91874991       1.61571567       2.02504216       0.00646246       0.00932792      -0.00166851
H        6.62575161       4.12941980       4.61872040       0.00431161       0.00131536       0.00261988
H        5.49023259       3.20846840       5.60927581       0.01000851      -0.00556792       0.00464001
H        4.23926172       2.74927447       3.72842195       0.00862479       0.00540045       0.00108996
H        5.37950484       3.62282468       2.69953779       0.01004581       0.00634581       0.00207207
H        7.71301018       3.36343819       6.69228111       0.01295753      -0.00318392      -0.00072153
H        7.32514391       1.67478114       6.31882643       0.01757442      -0.00201362      -0.01047651
H        8.47366765       2.55195798       5.31302106       0.01033071       0.01033972      -0.00974761
H        4.16414748       1.98776975       1.32869679       0.01199915       0.01459731      -0.00476385
H        5.83615925       1.42378374       1.46629863       0.00791596       0.00544720       0.00236673
H        4.55835553       0.67140650       2.42670937       0.00041111       0.01088694      -0.00401171
O       10.56846748       9.51594870       5.97656224      -0.00227678       0.00952119       0.00239202
C       10.19338209       8.57038172       4.98562235       0.00249296       0.01388934      -0.00387585
C        9.48626670      10.31245374       6.42139445      -0.00472277       0.01206779      -0.00753459
C       11.43714192       7.83797986       4.54179799       0.00291842       0.01224686       0.00142974
C       10.02705469      11.39657928       7.32507510      -0.01318857       0.00765583       0.00215307
H        9.45941985       7.86863360       5.40447433      -0.00251111       0.01468533      -0.01122975
H        9.72715272       9.09427912       4.14227344       0.01026219       0.01798096      -0.00533772
H        8.96400289      10.74484310       5.55644176       0.00782216       0.01661631      -0.01235360
H        8.76398475       9.68782319       6.96737668      -0.01291877       0.01250094      -0.01810521
H       11.17719622       6.96036662       3.95260811       0.00487021       0.01777529      -0.00783629
H       12.06992244       8.48683989       3.93735741       0.00973845       0.01424214       0.01095549
H       12.00909665       7.49903508       5.40476873      -0.00596566       0.00480428       0.00425658
H        9.20881859      11.99305452       7.73008399      -0.01656558       0.01070411      -0.00899458
H       10.57971416      10.96943982       8.16319374      -0.02739969       0.00373214       0.00917132
H       10.69367185      12.05758818       6.77086884      -0.00368668       0.00624079       0.01233220
O        2.46805051       7.23070470       9.47512410       0.00788934      -0.00078133       0.01004648
C        3.40302353       7.42665125      10.51580871       0.00934014       0.00650650       0.00716074
C        1.57448008       8.32718121       9.34572047      -0.00075623      -0.00779852       0.01176542
C        4.24046461       6.17888162      10.65218861       0.01339847       0.01003861       0.01010784
C        0.63873669       8.04069872       8.20187470       0.00309762      -0.01481430       0.01046944
H        4.03159704       8.30398359      10.29305497       0.00597015       0.00739214       0.00143263
H        2.87133679       7.64460334      11.45327212       0.01110885       0.00733787       0.00774816
H        1.02035921       8.47545610      10.28274537      -0.00286573      -0.01534415       0.01204675
H        2.14852569       9.24782453       9.16063104      -0.00854015      -0.00286356       0.01315038
H        4.97806914       6.30248506      11.44692705       0.01295625       0.01424777       0.00969265
H        3.61691920       5.32021078      10.89456358       0.01558578       0.00927573       0.01325659
H        4.77059613       5.94705301       9.72973824       0.01288120       0.01076278       0.00959176
H       -0.03807538       8.87467321       8.02199525      -0.00582135      -0.02208766       0.01044359
H        1.20359974       7.87208765       7.28411823       0.00684732      -0.00808650       0.01183537
H        0.04438271       7.14954032       8.40679942       0.01341578      -0.02174330       0.00978744
O        5.05768160       3.01867127       9.85933219      -0.00758629      -0.00408608       0.00720927
C        3.97497595       2.11986715       9.69048599      -0.00764769      -0.00311542       0.00503692
C        6.27384990       2.45251108       9.40225139      -0.00821608      -0.00464982       0.00690239
C        2.70159641       2.76715188      10.17193510      -0.00754434      -0.00308400       0.00414968
C        7.36733333       3.48258374       9.52561690      -0.00902078      -0.00437230       0.00688066
H        3.89139303       1.85194803       8.62625495      -0.00596893      -0.00115550       0.00451851
H        4.17720269       1.19185123      10.24674684      -0.00867925      -0.00384414       0.00405714
H        6.50775018       1.55093348       9.98798501      -0.00894311      -0.00452784       0.00729173
H        6.15782065       2.14097547       8.35412892      -0.00838085      -0.00454175       0.00689483
H        1.86829152       2.07112996      10.07249217      -0.00862233      -0.00068316      -0.00242483
H        2.78610010       3.04628738      11.22295169      -0.01054434      -0.00899477       0.00584166
H        2.47832142       3.66333324       9.59236397      -0.00309857       0.00005729       0.00755478
H        8.31092223       3.08042089       9.15358940      -0.00867060      -0.00218053       0.00605895
H        7.11157188       4.37055321       8.94705652      -0.01101360      -0.00438394       0.00771984
H        7.51021844       3.77059512      10.56820507      -0.00956165      -0.00598075       0.00709267
O        6.51652213       6.18211541       7.25260664      -0.00113915      -0.00172833       0.00150044
C        7.54803883       7.12950551       7.46151951      -0.00148791      -0.00118756       0.00025010
C        5.25712193       6.82153599       7.09250954      -0.00005540      -0.00064513      -0.00256608
C        8.87712079       6.42436304       7.57524756      -0.00150031       0.00009403       0.00283068
C        4.19664251       5.78253881       6.84461654      -0.00060847       0.00037473      -0.00374019
H        7.55853843       7.83978403       6.62256895      -0.00037627      -0.00371030      -0.00170824
H        7.33919272       7.71349361       8.37177164      -0.00289694       0.00024106      -0.00119856
H        5.02493885       7.40683129       7.99402707      -0.00163918       0.00057256      -0.00386393
H        5.31043672       7.53210477       6.25351416       0.00381581      -0.00229949      -0.00349399
H        9.67718205       7.15761780       7.68664825      -0.00135399       0.00079358      -0.00340407
H        8.89742720       5.75992412       8.43879754      -0.00063492       0.00596845       0.00727047
H        9.07657555       5.83283208       6.68007027      -0.00338447      -0.00481062       0.00588945
H        3.21600611       6.25542563       6.83124129      -0.00076202      -0.00004958      -0.00403799
H        4.35028687       5.28589169       5.88721278       0.00005099       0.00138214      -0.00407968
H        4.20386319       5.03440394       7.63961685      -0.00090273       0.00051012      -0.00388467
O        3.22617100      10.70421665       2.44491262       0.00898354       0.01390564      -0.01126222
C        2.11441835      10.25421867       1.68949472       0.01146701       0.01256773      -0.01328394
C        3.99078244       9.64748236       2.98509378       0.00000966       0.01235837      -0.00068685
C        1.41908225      11.45454520       1.10752352       0.01077521       0.00949764      -0.01957060
C        5.22163388      10.22881992       3.63238802       0.00497484       0.00756288      -0.00647429
H        2.46593104       9.57557574       0.89611719       0.01654166       0.01215091      -0.00994825
H        1.42433906       9.68010753       2.32712563       0.00939226       0.01487601      -0.01353750
H        3.39549423       9.08716279       3.72344423      -0.00612676       0.02554023       0.00381327
H        4.25107777       8.94491966       2.18170133      -0.00532967       0.00171414       0.00690782
H        0.63290173      11.14755659       0.42091697       0.00920755       0.00765233      -0.01742225
H        0.95321172      12.04693237       1.89534309       0.01044048       0.01259050      -0.02233185
H        2.13918367      12.07580046       0.57170187       0.01224312       0.00458869      -0.02290065
H        5.79755286       9.44017734       4.11967356      -0.00055231       0.00712308      -0.00091965
H        5.86760355      10.71970977       2.90484573       0.00696722      -0.00383195      -0.01221418
H        4.91830255      10.94951166       4.38663117       0.01248212       0.01593414      -0.01128580
