140
Lattice="12.117627192792128 0.0 0.0 0.0 12.117627192792128 0.0 0.0 0.0 12.117627192792128" Properties=species:S:1:pos:R:3:forces:R:3 energy=-75335.75 stress="0.0009238618076778948 7.47515878174454e-05 -0.0004199932445771992 7.47515878174454e-05 -0.0003360272676218301 -6.175335693114903e-05 -0.0004199932445771992 -6.175335693114903e-05 0.00013860456238035113" pbc="T T T"
N        8.86909384      10.10728947       1.41918243       0.01142931       0.00235608      -0.00848785
N        7.13899625       8.98444295       2.09603026      -0.00605285      -0.01535913      -0.00229104
C        9.85457736      11.19037210       1.26963859      -0.00830823       0.01108342       0.00848885
C        7.75403012      10.17015620       2.14698454      -0.00972182       0.01877141       0.01540947
C        8.97847369       8.84475179       0.89463921      -0.03394845       0.00133431       0.01480669
C        7.89373816       8.13634947       1.31882645       0.02336168       0.03591168      -0.00800422
C       10.87882279      11.16560439       2.38719986      -0.00097597       0.00089399       0.00065026
C        5.88838101       8.64592485       2.75724160       0.00132620       0.00284156       0.00162014
H       10.34737802      11.12942489       0.28957510      -0.01234898       0.01614901       0.00058883
H        9.29354588      12.12483298       1.26618965      -0.00587729       0.00836506       0.01690705
H        7.41360772      11.03268579       2.69355070       0.00012526      -0.00646938       0.00469777
H        9.79065515       8.57603911       0.24157871       0.00657830       0.01097796      -0.01250829
H        7.58768135       7.12342998       1.12660801      -0.00459159      -0.00527701      -0.00967292
H       10.43954438      11.43010034       3.35111478       0.00146036      -0.00940253       0.00470039
H       11.65763383      11.88469315       2.14090671      -0.00227000       0.00618312       0.00745097
H       11.35071462      10.18553131       2.46979976       0.00245155       0.00168172      -0.01023721
H        5.43754758       9.55482393       3.14634945      -0.00132648      -0.00520974       0.00223985
H        5.20376309       8.19396480       2.04177974       0.00110500      -0.00260359      -0.00118867
H        6.07872249       7.95874149       3.58014583       0.00251836      -0.00375660      -0.00067395
F       11.44531701      12.25350049      -0.79260769      -0.03573573       0.01523609      -0.03005388
C        8.41271223       8.32887673       9.67462361       0.00230847      -0.00308735      -0.00590156
C        9.42818186       7.38003658       9.70596914      -0.00399273      -0.00788762      -0.00358855
C        8.72485560       9.68592124       9.67837972       0.00285456      -0.00704736       0.00245970
C       10.75879946       7.79218741       9.72528603       0.00060962      -0.01085530       0.00762779
C       10.05192416      10.10152103       9.72156421       0.00712596      -0.00706896       0.01366379
C       11.06681401       9.14855681       9.73643572       0.00141650      -0.01384790       0.01654262
H        7.37749485       8.00867909       9.64967698      -0.00028828      -0.00076522      -0.01447838
H        9.18661228       6.32376778       9.71457059      -0.00522811      -0.00649557      -0.01083839
H        7.92952258      10.42264083       9.65581747       0.00606528      -0.00335317       0.00083175
H       11.55395060       7.05537368       9.73435726      -0.00375326      -0.01412446       0.00932219
H       10.32736783      11.14831637       9.80629386       0.00951533      -0.01136759       0.02405906
H       12.09686462       9.48235289       9.76589670       0.00333770      -0.01578204       0.02536313
C        2.94388894       4.18249777       8.14438826      -0.00106976       0.00262550       0.00336824
C        3.88341583       5.18921297       8.33979220      -0.00305627       0.00142650       0.00630832
C        1.65748135       4.50509316       7.72622868      -0.00183420       0.00205553       0.00110167
C        3.53688148       6.51689721       8.11210464      -0.00177965       0.00267544       0.00798924
C        1.31083788       5.83328819       7.50200510      -0.00044218       0.00363448       0.00264332
C        2.25078737       6.84147519       7.69294388      -0.00217449       0.00224826       0.00565885
H        3.20401411       3.14706343       8.32870354      -0.00202460       0.00181788       0.00206389
H        4.87845240       4.94393012       8.69095150      -0.00292806       0.00167698       0.00815394
H        0.92769301       3.71910907       7.57645366      -0.00063686       0.00288807      -0.00122962
H        4.26515214       7.30131143       8.27833586      -0.00278787       0.00213242       0.01054913
H        0.30528387       6.08472454       7.18608430      -0.00059120       0.00326189       0.00111327
H        1.97998911       7.87814129       7.52987538      -0.00139661       0.00310689       0.00676075
C        3.31779145      11.36895843       7.32878738      -0.00170220       0.00284244       0.00530587
C        3.85198836      10.98738461       8.55525575      -0.00521562       0.00276566       0.00755699
C        2.03071689      11.89602412       7.26770581      -0.00001349       0.00369018       0.00153179
C        3.09775660      11.13395382       9.71815363      -0.00940143       0.00431201       0.00534007
C        1.28412768      12.03880381       8.43242352      -0.00455359       0.00497431      -0.00138129
C        1.80975507      11.66064456       9.66494503      -0.00789149       0.00473348      -0.00015567
H        3.90182326      11.25863758       6.42161528       0.00148182       0.00120819       0.00774682
H        4.85532335      10.57847093       8.60364266      -0.00615984       0.00195991       0.01116607
H        1.61505200      12.19595789       6.31271590       0.00291505       0.00404529      -0.00059117
H        3.52263517      10.83183943      10.66881741      -0.01144673       0.00442145       0.00645320
H        0.27933604      12.44201028       8.40067708      -0.00390077       0.00508214      -0.00447642
H        1.17273927      11.78902585      10.54286585      -0.01075909       0.00543404      -0.00193781
C        9.40490665       2.18205228       9.60985143       0.00677964      -0.01151370      -0.01057612
C        9.05151360       3.29468562       8.85473481       0.00716521      -0.01391146       0.00217492
C        8.42247883       1.28616572      10.01689015       0.00409610      -0.01768337      -0.00501142
C        7.72295869       3.50229453       8.49687131       0.00529969      -0.00004849       0.00598637
C        7.09750035       1.48280173       9.64609295       0.00385472      -0.00410836      -0.00148799
C        6.74830915       2.59068294       8.88215218       0.00274831      -0.00735668       0.01154660
H       10.42808916       1.99122074       9.90898200       0.00622380      -0.02320801      -0.01237668
H        9.81126226       4.00309250       8.54396338       0.00731090      -0.01083211      -0.00041873
H        8.71592462       0.44573821      10.63356708       0.00681699      -0.01607278      -0.01324762
H        7.44982889       4.36700234       7.90425338       0.00508808      -0.00087187       0.01597852
H        6.32918921       0.78378438       9.95704096       0.00246149      -0.00792433       0.00216801
H        5.71677594       2.73818177       8.58754826       0.00268069       0.00301873       0.01560071
C        8.43575854       6.72221549       6.20291267      -0.00576849      -0.00237477      -0.00524481
C        7.07083898       6.95762462       6.33560036      -0.00638226      -0.00555826      -0.00132926
C        9.31283147       7.78861651       6.03990213      -0.00574525      -0.00967471      -0.00753115
C        6.58412584       8.26055786       6.30378805      -0.00327720       0.00137307      -0.00111960
C        8.82674150       9.08961944       6.00344907      -0.00399566      -0.00309321      -0.00714279
C        7.46223303       9.32553002       6.13470623      -0.00311983      -0.00624599      -0.00317340
H        8.81557763       5.70822540       6.23849450      -0.00805453      -0.00623651      -0.00520913
H        6.38422199       6.12966198       6.46982115      -0.00640830      -0.00107904       0.00043653
H       10.37746975       7.61019390       5.95459306      -0.00599736      -0.00809615      -0.01039589
H        5.52110473       8.44392624       6.41044999      -0.00359353      -0.00050868       0.00164736
H        9.51703586       9.91655637       5.89308171      -0.00278866      -0.00706115      -0.00942127
H        7.08301651      10.33992938       6.12103854      -0.00132483      -0.00191642      -0.00360516
C        1.66455358       8.20445687       3.37607240       0.00049468      -0.00699643       0.00077181
C        2.26893856       9.33504352       3.91434628      -0.00022965       0.00093360       0.00209990
C        1.42156183       8.12692023       2.00869544       0.00158960      -0.00422844       0.00364251
C        2.62977612      10.38956865       3.08219004      -0.00765093      -0.00328197      -0.00054741
C        1.78156046       9.18204534       1.17622762      -0.00519583      -0.00820705       0.00026087
C        2.38682356      10.31238548       1.71434076      -0.00535440       0.00035478       0.00243558
H        1.37779427       7.38627730       4.02381764       0.00660395      -0.00524179       0.00264956
H        2.44483445       9.40009735       4.98153225      -0.00040521      -0.00147116       0.00054283
H        0.94389702       7.24521612       1.59896507       0.00346851      -0.00868343       0.00307252
H        3.08142734      11.27856117       3.50606702      -0.00877832       0.00174944      -0.00016124
H        1.57154193       9.14058080       0.11427079      -0.00271998      -0.00722140       0.00236541
H        2.64148286      11.13907780       1.06243274      -0.00973977      -0.00302896       0.00031351
C       10.52245648       2.66229711       0.51621284       0.00068785       0.00381336      -0.01258056
C        9.46426314       3.05142272       1.32938423       0.00806352       0.00663218      -0.00835874
C       11.40431943       3.62938868       0.04180969       0.00366469       0.00664587      -0.01535590
C        9.29461504       4.39128579       1.67239059       0.00860915       0.00305880      -0.00333653
C       11.24698510       4.96469441       0.38691140       0.00470755       0.00232689      -0.01047390
C       10.19210097       5.34687275       1.21113006       0.01211629       0.00616421      -0.00787788
H       10.69901082       1.62729099       0.20449549      -0.00328046       0.00603002      -0.01811990
H        8.75981276       2.31858736       1.70694283       0.00658292       0.00543337      -0.00666977
H       12.21800716       3.31707971      -0.60182954      -0.00131716       0.00479356      -0.01948679
H        8.46214549       4.68467151       2.30206666       0.01364507       0.00507762      -0.00116928
H       11.94078463       5.71004624       0.01584419       0.00609140       0.00431329      -0.01349599
H       10.07716121       6.38268063       1.50260484       0.01158509       0.00414965      -0.00595389
C        6.47433609       2.39358020       5.39508668       0.00449201       0.00072323       0.00160196
C        7.35805905       3.33859278       4.88772245      -0.00212491      -0.00683533       0.00201434
C        6.94733310       1.15715664       5.81764907       0.00197161      -0.00416724       0.00804462
C        8.71635771       3.04916125       4.81074602       0.00350070       0.00036466      -0.00157862
C        8.30448534       0.86746188       5.73922314       0.00627093       0.00286783       0.00487272
C        9.18965168       1.81328096       5.23353974       0.00029521      -0.00584787       0.00541645
H        5.42142467       2.62505022       5.48882589       0.00137033      -0.00360783       0.00350366
H        6.99057826       4.30544720       4.56361937       0.00013421      -0.00399202      -0.00210738
H        6.25643809       0.43881777       6.24260843       0.00497799      -0.00014659       0.00907078
H        9.40777349       3.78343365       4.41816264      -0.00036965      -0.00444715      -0.00163565
H        8.67913088      -0.08179529       6.09951897       0.00474299      -0.00012286       0.01031762
H       10.24873222       1.59400714       5.17833098       0.00329635      -0.00037671       0.00370534
C        1.22406493       2.36289474       2.63790594       0.00065234      -0.00221510      -0.00093164
C        0.90920553       3.54981678       3.29096287      -0.00412105      -0.00043258       0.00643795
C        2.51890206       1.86690861       2.69472178       0.00113156       0.00645553      -0.00104176
C        1.88994068       4.22842095       4.00459783      -0.00482157      -0.00495662       0.00630334
C        3.50318799       2.54809690       3.39981256       0.00003514       0.00227898      -0.00152475
C        3.18715152       3.72947839       4.05831947      -0.00475919       0.00323871       0.00629149
H        0.46958690       1.84577099       2.06107504       0.00118904       0.00019101      -0.00081313
H       -0.09540089       3.94970406       3.22129171      -0.00457568      -0.00572709       0.00647892
H        2.76575161       0.95963194       2.16177667       0.00514653       0.00621104      -0.00576213
H        1.65152541       5.14691087       4.52467493      -0.00756221      -0.00508197       0.01149699
H        4.51699403       2.16841284       3.41571319       0.00087957       0.00850890      -0.00143532
H        3.94614356       4.27162761       4.60985445      -0.00508512       0.00088520       0.00625583
C        4.24649972       3.22229494       0.02786312       0.00725055       0.00811045      -0.00260736
C        5.58921303       3.56562741      -0.06172910       0.00442441       0.00935687      -0.00633128
C        3.27317307       4.21384774       0.08244832       0.00508215       0.01145431      -0.00241087
C        5.96133804       4.90468504      -0.12249744       0.00767124       0.00653714      -0.01026878
C        3.64411787       5.55115127       0.02981226       0.00793508       0.00825823      -0.00660939
C        4.98768924       5.89621056      -0.08122310       0.00496265       0.00992903      -0.01019607
H        3.95298442       2.18024756       0.05869157       0.00537428       0.00961326       0.00023841
H        6.34933382       2.79685652      -0.10335994       0.00553411       0.00747758      -0.00697090
H        2.23011614       3.94135913       0.17665660       0.00634697       0.01042396       0.00045148
H        7.01058851       5.15882312      -0.21909314       0.00568816       0.00740219      -0.01322566
H        2.88889699       6.32585519       0.06866125       0.00678259       0.01046941      -0.00701951
H        5.27075426       6.94014965      -0.15355423       0.00717223       0.00802340      -0.01339077
