149
Lattice="10.766010557624787 0.0 0.0 0.0 10.766010557624787 0.0 0.0 0.0 10.766010557624787" Properties=species:S:1:pos:R:3:forces:R:3 energy=-100442.5390625 stress="-0.0025230753235518932 -0.0012224249076098204 -0.0018166665104217827 -0.0012224249076098204 -0.003946951124817133 -0.0004626962181646377 -0.0018166665104217827 -0.0004626962181646377 0.00031916852458380163" pbc="T T T"
N        6.87238611       7.76282628       4.41465173      -0.00108352       0.00562933       0.00834182
N        5.38439647       8.39285453       5.85620837       0.00218451      -0.00207628       0.00395107
C        7.54744820       5.98491192       2.80050475      -0.00665963       0.00066042      -0.00074816
C        6.15037932       5.50079892       2.45860740      -0.00560713       0.00077897       0.00821872
C        7.57292358       7.45679695       3.16089559      -0.00578842       0.00266904      -0.00527936
C        6.09052394       4.12805375       1.81501086      -0.00279963       0.00447306       0.00338707
C        4.70169081       3.85277609       1.25870654      -0.00506508       0.00250095       0.00995170
C        5.59391074       8.12779204       4.56544340       0.00428849       0.00328912       0.00386202
C        7.47876715       7.77565242       5.64315642      -0.01701528       0.00633536       0.00396943
C        4.52287253       2.41005495       0.83003638      -0.00459587       0.00345561       0.00453074
C        6.55027151       8.17863271       6.54872742       0.00007373      -0.00477176      -0.00730300
C        4.15775775       8.90601245       6.45325241      -0.00850964      -0.00056088      -0.00130048
H        7.99101118       5.39378888       3.60716463       0.00131066       0.01003575      -0.00142053
H        8.19686693       5.87419016       1.92902922      -0.00979634       0.00870106      -0.00131771
H        5.69834954       6.21630666       1.77208014      -0.01405062       0.00121900       0.01478589
H        5.52188641       5.49091285       3.35512072       0.00368312      -0.00572732       0.01283640
H        7.10253642       8.04701227       2.37496037      -0.01569173       0.00334735      -0.00089952
H        8.59426496       7.81505011       3.29246313      -0.00838569       0.00990903      -0.00574214
H        6.82346628       4.06473565       1.00187374      -0.00975589       0.00973322      -0.00302592
H        6.36449584       3.35722242       2.54334311       0.00238016       0.00042561      -0.00327623
H        3.95802661       4.11013107       2.01820772      -0.00275838      -0.00469530       0.01496261
H        4.51603476       4.52118816       0.41248487      -0.01330606       0.00367740       0.01280895
H        4.86577286       8.18803920       3.77520725      -0.01187110       0.00864633      -0.01152195
H        8.51119271       7.51963403       5.76197692      -0.00860539      -0.00102925       0.00165348
H        6.62082583       8.35150407       7.60837189      -0.01210637      -0.00722174       0.00001638
H        4.81793304       1.74974672       1.64757277      -0.01146013       0.00280364       0.00607812
H        3.48797848       2.21541789       0.55501634      -0.00384247       0.00673985      -0.00196082
H        5.14503200       2.16173053      -0.02947676       0.00104788       0.00234937       0.00891554
H        4.40642393       9.79000347       7.03303827      -0.00874040       0.00596446      -0.00491665
H        3.46585448       9.16819798       5.66129515      -0.01322640      -0.00576697      -0.00630939
H        3.70566052       8.15107440       7.08981856      -0.00653046      -0.00284144       0.00348660
O       10.45077699      11.88516223      -1.29828867       0.00499880      -0.00967777       0.00085771
O       10.77846507       9.97679560      -0.32700871       0.00696337      -0.01908970       0.00513394
O        9.04664990      11.18515821       0.19445146       0.01085019      -0.02825254      -0.01388228
N       10.07494217      11.02026227      -0.47051216      -0.03044027      -0.01899333       0.02531647
O        6.49546523       2.18619938       8.97956772      -0.00258109      -0.01337703      -0.00038249
H        7.16243651       1.68729717       8.46691661      -0.00619256      -0.00960549      -0.00720067
H        6.97805901       2.98227156       9.23913844       0.00584534      -0.02798500       0.01867251
O        2.17029730       6.53739056       0.34757236       0.02210088      -0.01275122       0.00918454
H        1.55299948       6.46035545       1.10098054       0.02130045      -0.01339553       0.00740608
H        2.95124779       7.03215841       0.67987536       0.02348509      -0.01521832       0.01156897
O        1.52673666       3.57411004      11.48379306      -0.00021190      -0.00842732      -0.00822180
H        0.55234095       3.69622279      11.52855683       0.00244353      -0.00120930       0.00585476
H        1.88695304       4.47141701      11.39743373       0.00866250      -0.00961670      -0.00254887
O        5.76888405       4.87017382       6.35235100       0.00747281       0.00615429       0.00798021
H        5.20943723       4.10695211       6.61438638      -0.00040474       0.01151532       0.00475845
H        5.95872038       5.31235907       7.20563483       0.00554723       0.00494483       0.00948794
O        2.21094273       2.35334271       9.06811444      -0.00418019      -0.01018485      -0.02295417
H        1.98436023       2.81948666       9.90011669      -0.00835276      -0.00685688      -0.02608212
H        1.45123059       1.77581224       8.89322293       0.00258659      -0.01333951      -0.02713203
O        1.43917725       7.85542568       4.30141930      -0.00861225      -0.00240365      -0.02159806
H        1.08756800       7.12905203       3.75663732      -0.01412642      -0.00681029      -0.01379058
H        2.06673570       7.45005904       4.92571763      -0.01112017      -0.00154333      -0.02136247
O        6.12356117       5.73081135       8.95470742       0.00273665       0.01203115       0.00452867
H        6.25995152       6.58646213       9.39650834      -0.00071874       0.00352169       0.02149329
H        5.14924507       5.58139646       9.01281915       0.00485637       0.00552429       0.00081741
O        0.28561096       5.06819782       9.03167072      -0.00021347       0.00483509       0.00317601
H       -0.42865609       4.37769895       9.05291654       0.01682537      -0.00591986       0.02591288
H        1.00614988       4.62120197       8.56279598      -0.00429433       0.01786803      -0.01607960
O        6.44597077      10.38207937       1.09317508      -0.01112369       0.00871474      -0.01548021
H        7.24460138      10.51900007       1.63261995      -0.00246318      -0.00372808      -0.01165164
H        6.46280697      11.10704010       0.45557986       0.00521529      -0.00465809      -0.01625479
O        0.77233246       9.95125612       2.28299452      -0.00652382       0.00177288      -0.00494783
H        0.25992104       9.65914264       1.50880792       0.01364270      -0.00272483      -0.00402495
H        0.82743085       9.24228674       2.93804213       0.01177770      -0.01874009      -0.01634485
O        3.17755062      -0.41374038       1.26704265      -0.00402914      -0.01143390      -0.01363072
H        3.32504843       0.52690726       1.41206368       0.02251036      -0.01360349      -0.01672565
H        2.28871494      -0.60812939       1.65560818      -0.00549386       0.01433469      -0.01318721
O       11.22999565       3.50184053       6.42233842      -0.00143555       0.01070307      -0.00893968
H       11.27153898       2.53595442       6.28538078       0.00265041       0.01194895      -0.01317088
H       10.28548115       3.67644870       6.30106091      -0.00376543       0.00758429      -0.00356639
O        3.53850544      -0.16038877       9.23268787       0.00105028       0.00195386      -0.00736711
H        3.32717410       0.78994260       9.22895844      -0.01005520      -0.00094980      -0.00526211
H        3.34702404      -0.41487172      10.15131749      -0.00787087      -0.00350319      -0.01071918
O        0.47452562       5.98044754       2.47632969      -0.00321567      -0.01022622       0.01643444
H        0.88907847       5.27143533       3.02722927       0.00197529      -0.01908939      -0.00184637
H       -0.31568247       5.58625836       2.08188406      -0.00329308      -0.00145949       0.00368531
O        1.73550353       4.52454678       4.28701855       0.01211199      -0.00642139       0.00252049
H        1.20116838       4.09473267       4.99871845       0.00927563      -0.00433113       0.00194936
H        2.48771825       3.91612180       4.12452251       0.00988803      -0.00845477       0.00028531
O        9.54288310       7.50837876       0.08269425       0.00973293       0.00568470       0.00050732
H        9.94975262       8.37737107      -0.10938578       0.01302196      -0.00157837       0.00762590
H       10.12146314       6.85838405      -0.33266066       0.01220451       0.00001591      -0.00015401
O        3.41599231       5.42980692       8.82997194       0.00095698       0.00497014      -0.01804700
H        2.90141381       5.84828235       9.54297909       0.00010999       0.01006804      -0.02173367
H        3.14146080       5.86086154       8.00326293       0.00115229      -0.01201491      -0.02618742
O        4.98808822      11.02596134       3.59693933      -0.00071710       0.02262238      -0.00523624
H        4.06909754      10.90367916       3.92884504       0.00608911       0.01590116       0.00116661
H        5.07703073      10.64025485       2.71368769       0.00196821       0.01054943      -0.00331496
O        8.37952143       4.16247626       6.04874361      -0.00206362       0.00315578       0.00528041
H        8.66164354       5.02940490       6.40075089      -0.00528234      -0.00286564       0.02252662
H        7.39482129       4.24666995       6.08138026      -0.00239381       0.00235802       0.00533028
O        4.06482666       3.14599326       4.40407321       0.01124375      -0.01759705       0.00171278
H        3.88541490       2.67659232       5.23170671       0.01014761      -0.01782431      -0.00034047
H        4.35529587       2.44146623       3.81123828      -0.00605915      -0.02389910      -0.00146739
O        1.19222333       1.86454178       3.00256400       0.01798726      -0.01387333      -0.00830115
H        1.38841519       2.51028112       2.30229542       0.01559877      -0.02346542      -0.01757937
H        0.88901373       1.05301926       2.56839961       0.00114852      -0.01346523       0.00636271
O        8.32085039       0.97581077       7.19017844       0.00947212       0.00337076      -0.01080532
H        8.61460403       0.09572406       7.50891591      -0.00348459       0.00278371      -0.00555625
H        7.48465574       0.83486381       6.68533948       0.00575556       0.00784576      -0.00995919
O        4.37897329       7.95092923       1.11681596       0.01091099       0.00328438       0.01939104
H        4.14525089       8.89724254       1.10026146      -0.01301506      -0.00366519       0.00802951
H        5.17675762       7.85862623       0.57382830       0.00624829       0.01625039       0.00968743
O        4.39545113       2.68676813       7.38761829       0.00694701       0.00803794      -0.00860570
H        5.10604068       2.54694758       8.06080739      -0.00547425       0.00199014       0.00340516
H        3.56054991       2.72482816       7.89692284      -0.00011808      -0.00702534      -0.02536358
O        6.87515569       8.02065549      10.38461746       0.00462078       0.00594338       0.00106197
H        7.80308206       7.75145456      10.55120414       0.00617967       0.01298317      -0.00416632
H        6.80647963       8.92583766      10.74549530       0.00058848       0.00927456      -0.00454810
O        9.51829880       9.35843869       7.63161488       0.02148039       0.01538742      -0.00434178
H        9.45024668       8.47059713       8.00780267       0.03376956       0.02054516       0.00744409
H        9.68742725       9.20523453       6.67618897       0.01586357       0.00089388      -0.00294368
O        9.65000399       3.84365416       1.22847250      -0.00036728       0.00220954      -0.01324985
H        9.03913156       3.59504515       0.52685622       0.02143916       0.00134259      -0.02583542
H        9.35366064       3.36274272       2.03443651      -0.00867286      -0.00577438      -0.01999067
O        9.06114496       3.35013779       8.94696479      -0.00408347      -0.00588685       0.03234547
H        8.80263168       3.31883456       8.01116575      -0.00177120       0.00988540       0.02584834
H        9.45628729       2.46123593       9.13045401      -0.00755131       0.00213429       0.01501008
O        8.99359492       6.34545994       7.73559076      -0.00276066       0.00421740       0.00773653
H        8.26959220       6.03817392       8.29873617      -0.00122772       0.01041314       0.01074883
H        9.81175962       5.97599823       8.13027407      -0.00735417      -0.00984397       0.00521851
O       10.42114564       1.12181435       5.39247663       0.00191069       0.00631464       0.02012792
H        9.61753139       1.17395850       5.96050256       0.01391261      -0.00046121       0.03123290
H       10.22975424       1.65008215       4.59622673      -0.03035676       0.00519282       0.02140791
O        8.87939679       2.64160403       3.56063452       0.00787908      -0.00002309       0.01101431
H        8.41521836       1.78363773       3.54276555      -0.00359170       0.00367303       0.00271847
H        8.54405418       3.15386406       4.31370749       0.00452894       0.00404431       0.00199237
O        1.31244725       7.62542151       8.26979558      -0.01839749       0.02768607       0.02054085
H        1.01941763       6.80208049       8.68310959       0.00166970       0.01356734       0.02981314
H        1.51606674       8.19604423       9.01829936      -0.00356855       0.01976049       0.00652202
O        3.22669526       6.14613458       5.89080203      -0.00621650      -0.00531089       0.00926434
H        2.69893210       5.50339972       5.37067753      -0.00332414      -0.00342020       0.00365641
H        4.13876437       5.80780117       5.83977034      -0.00731157      -0.00768414       0.00883279
O        1.56432938      -0.18046817       7.30005266      -0.00106889       0.00376898      -0.00228958
H        0.74071260      -0.62426069       7.55028299       0.00028262       0.00292025      -0.00186666
H        2.19576854      -0.36445924       8.02309875       0.00261490       0.00357675      -0.00519112
O        2.70376509       0.58542613       4.92660698       0.00063417      -0.00478841      -0.00433314
H        2.09506006       1.10132787       4.36673371       0.00442828      -0.00339815      -0.00787406
H        2.20547469       0.29178429       5.71925840      -0.00074713       0.00454163      -0.00267868
O        8.03348230      10.71678575       3.46284459      -0.00800575       0.00221911      -0.01136464
H        8.73570362      10.16546265       3.85946250      -0.01517613       0.01217882      -0.00560734
H        7.23736731      10.54068710       3.97775018      -0.01611924       0.00233725      -0.00768313
O        5.94873100       0.84128599       6.04866812      -0.00012214      -0.02313128       0.01389940
H        5.25781521       1.38564238       6.47135564       0.01185401      -0.00903049       0.01025503
H        5.65457575       0.69533997       5.13452468       0.00941235      -0.00672573       0.01063047
O       -0.70611875       9.31576737       4.96791821      -0.00398430       0.01590878      -0.00034381
H       -0.36835436      10.23934195       5.07424890      -0.00012403       0.01508446      -0.00073631
H        0.08912441       8.74631602       4.85091408      -0.00702541       0.01778094      -0.02005639
