140
Lattice="11.82904873320308 0.0 0.0 0.0 11.82904873320308 0.0 0.0 0.0 11.82904873320308" Properties=species:S:1:pos:R:3:forces:R:3 energy=-73055.2890625 stress="-0.0016361892921850085 -0.0006770618492737412 -0.000596236321143806 -0.0006770618492737412 -0.003735814942047 -4.6255959205154795e-06 -0.000596236321143806 -4.6255959205154795e-06 -0.0033166140783578157" pbc="T T T"
N        7.94083883      10.21787991       1.52234617       0.00967813       0.00363289      -0.00459689
N       10.06812434       9.83042910       1.50817725      -0.00312871       0.00791621      -0.00344639
C        5.76201571       9.08037320       1.57504942       0.00512609       0.00387177      -0.00519195
C        6.31472603       7.81559866       2.21450294       0.00381097       0.00728015       0.00124508
C        6.55666081      10.32248264       1.98126394       0.00325480       0.00663528      -0.00953045
C        5.71239564       6.49395177       1.76443896       0.01546255       0.00473404      -0.00521648
C        6.37396245       5.33521162       2.50724254       0.01285228       0.00818779       0.00233313
C        9.00329136       9.98699911       2.29378610       0.00470406       0.01126593      -0.02957630
C        8.34441889      10.23083768       0.20736983       0.01474944      -0.00693071      -0.00181693
C        6.03125317       3.97686569       1.93394883       0.03332753       0.00566545      -0.00423431
C        9.68142303       9.99558998       0.19849661      -0.00870497      -0.00193215      -0.00156176
C       11.42373541       9.53855215       1.94354263       0.00636584       0.01246363      -0.00770542
H        5.77316864       8.98543780       0.48414900       0.00921657       0.00022424      -0.00504565
H        4.71819137       9.24004043       1.85967991       0.00514594       0.00551585      -0.00979285
H        6.20400392       7.89274012       3.30022314      -0.00903713       0.00782114      -0.00024411
H        7.39280964       7.76288703       2.02781752       0.00554624       0.01235783       0.01387763
H        6.59093725      10.43163412       3.06630102       0.00461469       0.00913562      -0.00874889
H        6.13228232      11.23741346       1.56547409       0.00409946       0.00385261      -0.01074649
H        4.63027472       6.47750823       1.93938408       0.01385385      -0.00087370      -0.01808262
H        5.85315652       6.37071200       0.68413936       0.02907909       0.00507819      -0.00316194
H        7.46026170       5.47238706       2.46487581       0.01169309       0.01748958       0.01920278
H        6.09418427       5.39202405       3.56566156      -0.00362511       0.00387987      -0.00222349
H        9.01943842       9.98661271       3.37070610       0.00606423       0.01984352       0.00082920
H        7.65605485      10.41168427      -0.59621222      -0.00093713      -0.01002638      -0.01253952
H       10.39023814       9.94539002      -0.60726113       0.00511352      -0.00973219      -0.01137052
H        6.36603762       3.91566891       0.90230797       0.04836602       0.00971360       0.00039214
H        6.51219096       3.16731829       2.48153766       0.03286842       0.00957675       0.00175892
H        4.95636624       3.79146949       1.94619072       0.03548396      -0.00366997      -0.01931405
H       12.04376934      10.41387640       1.75833568       0.00121023       0.01527917      -0.00613341
H       11.41425959       9.34691311       3.01157315       0.00515651       0.01241984      -0.00616509
H       11.77864130       8.66340257       1.40171169       0.00899136       0.01465522      -0.00658378
O        9.35996362      12.66106289       2.80928445      -0.01426482       0.00422800       0.01163125
O       10.98518036      11.72982843       3.91706021      -0.01472819      -0.00235617       0.00591588
O       11.37006738      12.63591324       1.97561784      -0.01412451       0.01341110       0.01397395
N       10.57037096      12.35740758       2.90442125      -0.01411162       0.00549018       0.01030052
C        3.48699514       2.95170862      11.25157744      -0.00835373      -0.00723159       0.01393118
C        4.77951175       3.30021739      10.86757933      -0.00846107      -0.00912783       0.01150816
C        3.20907348       1.60923153      11.49870573      -0.01018649      -0.00640592       0.01362240
C        2.42460576       4.00494684      11.35974463      -0.00632691      -0.00597677       0.01623050
C        5.77279918       2.34487438      10.73016673      -0.01155677      -0.01101478       0.00771772
C        4.19929173       0.64377558      11.35201392      -0.01314193      -0.00813277       0.00960326
C        5.48261539       1.00931541      10.96842319      -0.01374223      -0.01034994       0.00612335
H        5.00949430       4.34175185      10.67393772      -0.00712216      -0.00968134       0.01221997
H        2.21039168       1.31985587      11.80537023      -0.00976904      -0.00388153       0.01698723
H        1.51151928       3.60871799      11.80093388      -0.00651757      -0.00536132       0.01601927
H        2.76528475       4.84772760      11.96605402      -0.00503528      -0.00765802       0.01722686
H        2.18048189       4.40214992      10.36975469      -0.00624888      -0.00408842       0.01736441
H        6.77049977       2.64231781      10.43062247      -0.01181941      -0.01293898       0.00490130
H        3.95801882      -0.39817426      11.51819865      -0.01448294      -0.00771978       0.00914278
H        6.25462455       0.26161661      10.83653263      -0.01651532      -0.01224807       0.00235805
C        2.12552881       6.97871985       4.46336353      -0.00438567      -0.00372810      -0.01304018
C        3.41667584       7.49027763       4.59297854      -0.00497751      -0.00273229      -0.01177642
C        1.45646510       6.56814810       5.61577742      -0.00547501      -0.00244592      -0.01358454
C        1.51276020       6.81080788       3.10769894      -0.00222059      -0.00537376      -0.01337501
C        4.03751821       7.55712451       5.83220139      -0.00758958       0.00030231      -0.01110478
C        2.06763763       6.65068383       6.86001531      -0.00803739       0.00000086      -0.01322136
C        3.36295638       7.13571880       6.96871351      -0.00908516       0.00190981      -0.01154417
H        3.93823345       7.83053539       3.70671684      -0.00394345      -0.00434230      -0.01137014
H        0.45040378       6.17194980       5.53631825      -0.00489334      -0.00327092      -0.01477218
H        0.42473954       6.77038830       3.16258751      -0.00228937      -0.00159567      -0.01530123
H        1.80373362       7.62469671       2.44233463       0.00160157      -0.00839853      -0.01482213
H        1.85214886       5.87616284       2.65170527      -0.00466101      -0.00748777      -0.01022843
H        5.04139044       7.95374313       5.92305194      -0.00825247       0.00109319      -0.00997679
H        1.52843738       6.34173514       7.74767213      -0.00898885       0.00086734      -0.01361683
H        3.83394823       7.22183219       7.93850656      -0.01116239       0.00432715      -0.01122428
C        3.28798128       1.13471764       3.63333047      -0.00743000      -0.00860916      -0.00461841
C        2.14871073       1.93872799       3.68945784      -0.00565583      -0.00670986      -0.00379274
C        4.50336547       1.65732622       4.06952828      -0.00546721      -0.00905817      -0.01026730
C        3.20561516      -0.25655120       3.07787153      -0.01215289      -0.01055509       0.00172168
C        2.23400995       3.23965712       4.16948771      -0.00241084      -0.00586341      -0.00773294
C        4.58503246       2.95790220       4.54345713      -0.00242046      -0.00841108      -0.01331241
C        3.45163464       3.75513765       4.59832183      -0.00104392      -0.00684634      -0.01200996
H        1.20087053       1.53875735       3.34905021      -0.00708821      -0.00573176      -0.00027803
H        5.39913735       1.04421006       4.03756910      -0.00672001      -0.01021450      -0.01123852
H        3.78722283      -0.96313923       3.67607645      -0.01458633      -0.00997175       0.00437275
H        2.17034488      -0.59475738       3.04333710      -0.01286855      -0.00723838       0.00433480
H        3.60177524      -0.28066253       2.05930550      -0.01297525      -0.01666744       0.00189930
H        1.33966997       3.85092882       4.21721503      -0.00127953      -0.00458878      -0.00721390
H        5.53463248       3.35153588       4.87831757      -0.00127910      -0.00961662      -0.01581658
H        3.51580096       4.76112031       4.98991645       0.00123418      -0.00627749      -0.01421362
C        8.99659970       8.17215479       5.70735137      -0.00063284       0.00698991       0.00163051
C        7.75676521       8.80940235       5.65605871      -0.00159404       0.00362129       0.00141245
C        9.90505636       8.57923359       6.68308001      -0.00219411       0.00791193       0.00190013
C        9.33125650       7.07516984       4.73945487       0.00207915       0.00868011       0.00104801
C        7.42456725       9.82201083       6.54644413      -0.00470466       0.00159967       0.00244214
C        9.57927108       9.59423715       7.57243125      -0.00503872       0.00571993       0.00326392
C        8.33894978      10.21491665       7.51498852      -0.00647207       0.00222994       0.00322592
H        7.03742181       8.49119397       4.91317723      -0.00018736       0.00301456       0.00056856
H       10.86361065       8.07780582       6.75858383      -0.00107601       0.01043884       0.00166400
H       10.00544870       6.34778548       5.18991068       0.00234015       0.00928830       0.00109152
H        8.43508977       6.54923440       4.40979433       0.00346792       0.00815298      -0.00032019
H        9.82477565       7.46469909       3.84309135       0.00271423       0.01027915       0.00228368
H        6.45423993      10.30038587       6.48109778      -0.00547670      -0.00089746       0.00232182
H       10.29373732       9.90778680       8.32199279      -0.00635947       0.00627207       0.00358495
H        8.09554354      11.00424969       8.21519017      -0.00902444       0.00063308       0.00408488
C        1.99803803      10.05473337       7.47138215      -0.00129127       0.00128298       0.00964163
C        1.39695566       9.46953027       8.58830609      -0.00240058       0.00004693       0.00762661
C        3.37189892      10.27758228       7.52029378      -0.00092171      -0.00203530       0.00990614
C        1.21051287      10.40655520       6.24615979      -0.00036639       0.00543351       0.01060754
C        2.13955373       9.12999112       9.71093029      -0.00321379      -0.00572301       0.00616129
C        4.12206880       9.95518962       8.64338191      -0.00170687      -0.00764683       0.00824709
C        3.50780683       9.37466867       9.74439459      -0.00249065      -0.00985434       0.00632510
H        0.33790324       9.24760863       8.56504669      -0.00310908       0.00386733       0.00770143
H        3.85196335      10.70747297       6.64862255      -0.00026193      -0.00046635       0.01139293
H        1.85465761      10.79070503       5.45766781      -0.00238535       0.02175242       0.01769331
H        0.68474972       9.53509115       5.85187713       0.01267989       0.00319552      -0.00118396
H        0.44908173      11.16404928       6.44182371      -0.01049082      -0.00711919       0.01593027
H        1.65203895       8.66550355      10.56047203      -0.00401408      -0.00629259       0.00471194
H        5.18857822      10.14880911       8.65524616      -0.00139955      -0.01030697       0.00847575
H        4.08775845       9.10831756      10.61933568      -0.00348038      -0.01356489       0.00514394
C       10.04550676       4.73527803       7.69576998       0.00706217      -0.00055477       0.00274295
C       10.83915885       5.12959190       8.77504456       0.00562949      -0.00487876       0.00496282
C        8.77196364       5.29447499       7.58378660       0.00813645       0.00169509       0.00240539
C       10.53898294       3.71716660       6.70760468       0.00701180       0.00177673       0.00128409
C       10.37429921       6.04453118       9.71243268       0.00566254      -0.00708532       0.00653259
C        8.29875431       6.20406176       8.52192955       0.00835496      -0.00049848       0.00361346
C        9.09766681       6.58221278       9.59253205       0.00692543      -0.00464530       0.00589591
H       11.83081562       4.70469618       8.88487309       0.00455298      -0.00655362       0.00536916
H        8.14679751       5.01544627       6.74307645       0.00925165       0.00469113       0.00093459
H        9.99894489       3.77315042       5.76208262       0.00835878       0.00492642       0.00074375
H       11.60435056       3.83537736       6.50408917       0.00703260       0.00101062       0.00266930
H       10.40126018       2.70140460       7.08773566       0.00500303       0.00119641      -0.00202364
H       11.01082899       6.33436731      10.54026719       0.00434610      -0.01076900       0.00840122
H        7.31172453       6.63591545       8.40304597       0.00934339       0.00121164       0.00348776
H        8.73389511       7.29828275      10.31965179       0.00694669      -0.00669946       0.00727706
C        5.84329702       2.44921140       7.48868077       0.00133029       0.00268535      -0.00148479
C        4.88858090       1.43908730       7.44606354       0.00182114       0.00234056       0.00364379
C        5.40935690       3.75030665       7.73356723       0.00168318       0.00282177      -0.00278560
C        7.29324963       2.14260023       7.26778641       0.00054041       0.00315998      -0.00582710
C        3.53750659       1.71027736       7.61550449       0.00265408       0.00227931       0.00732646
C        4.06464612       4.02338283       7.92390000       0.00242274       0.00293250       0.00016915
C        3.12110191       3.01005181       7.84856967       0.00280267       0.00238275       0.00545318
H        5.21790217       0.42300422       7.27108897       0.00150531       0.00217225       0.00530044
H        6.13516237       4.55082191       7.80777230       0.00145544       0.00315925      -0.00785872
H        7.92474176       2.66376943       7.98871936       0.00198095      -0.00172159      -0.00391793
H        7.48698492       1.07430438       7.34160345       0.00014098       0.00293228      -0.01279730
H        7.62258165       2.45411571       6.27207356      -0.00117833       0.00923820      -0.00413334
H        2.81231814       0.91021078       7.56577402       0.00300118       0.00195891       0.01201646
H        3.75226551       5.03199517       8.14051011       0.00243240       0.00330241      -0.00239623
H        2.06769742       3.22898875       7.97626646       0.00341260       0.00197676       0.00814857
