146
Lattice="12.656063026322306 0.0 0.0 0.0 12.656063026322306 0.0 0.0 0.0 12.656063026322306" Properties=species:S:1:pos:R:3:forces:R:3 energy=-1048265.375 stress="-0.00034284155117347836 0.0004766331549035385 -0.00043705398275051266 0.0004766331549035385 -0.0003070035018026829 -0.0008803860400803387 -0.00043705398275051266 -0.0008803860400803387 -0.0005484462017193437" pbc="T T T"
Ac       9.55038781      12.61388708       0.14324596       0.01263525       0.00949526       0.00485529
O        4.73688831       2.68745586       8.61492808       0.01217008      -0.02587390      -0.01380032
O        5.44696178       0.26690392       9.25076270       0.03123206      -0.02081752      -0.00962722
O        7.22591192       1.98178516       8.45883935       0.02151108       0.00035644       0.01549011
O        5.50144880       1.01949817       6.72994522       0.04454443      -0.01219523      -0.00592041
Mn       5.71694754       1.48422935       8.25214303       0.03063495      -0.01636891      -0.00404232
O       11.03916529      11.52465126       8.55135503       0.02908552      -0.00337261      -0.00586891
O       10.83735842      11.65228761      11.18018080      -0.00174993      -0.00054729      -0.01537693
O       13.12008208      10.98559104      10.03492702      -0.00643468      -0.01591563       0.02509145
O       11.10541372       9.31811224       9.94235446      -0.00399089       0.00961268       0.00073978
Mn      11.55173070      10.83463228       9.89124205       0.01298994      -0.00555605       0.01901644
O        6.66065998       7.16097026       4.58306157      -0.00177984       0.01226819       0.00072324
O        7.26655882       7.35050625       7.11885246      -0.00495297      -0.00858474       0.00168109
O        7.74959527       5.12492351       5.81901745      -0.00417447       0.00223148      -0.01516624
O        5.29603275       5.84548204       6.36218593      -0.00519490      -0.00284111      -0.01275241
Mn       6.75375015       6.37600714       5.97906019      -0.00132729      -0.00012718      -0.00802322
S        2.48346735       6.09715328       5.08281223      -0.00669742      -0.00363225       0.00111651
O        1.22055938       5.98996686       4.27147058      -0.00916958      -0.00153545       0.00505638
C        2.02968086       6.65375677       6.72574858      -0.00092474      -0.00402710       0.00295770
C        3.31736004       7.60038814       4.55891479      -0.00753361      -0.00420624      -0.00095667
H        1.51323035       5.82847765       7.21280864      -0.00333073      -0.00265009       0.00270327
H        1.36747037       7.51627812       6.64650037       0.00256146      -0.00125435       0.00578286
H        2.93676990       6.90800334       7.27575479       0.00109150      -0.00880321       0.00150207
H        4.18674443       7.75364036       5.19221827      -0.00658081      -0.00293972      -0.00273211
H        2.62215241       8.43765933       4.61961718      -0.00836006      -0.00490303      -0.00128983
H        3.63866276       7.44068981       3.53295152      -0.00964980      -0.00511340      -0.00137910
S        9.38944002      10.08891846       2.97112089       0.01139963       0.00328062       0.00488931
O        9.59903880      10.75219313       1.58053137       0.00841543       0.01101315       0.00756037
C       11.03444023       9.88469828       3.58966145       0.01267409       0.00349012       0.00209104
C        8.95987724       8.39899898       2.61778684       0.01534995       0.00419736      -0.00289527
H       11.41810356      10.88560924       3.78205712       0.01295678       0.00347474       0.00100763
H       11.62622992       9.34594558       2.84767266       0.01216661       0.00348678       0.00172943
H       10.93188889       9.31074642       4.51454962       0.01435164       0.00321206       0.00202176
H        8.84405463       7.91122282       3.58907118       0.02002928      -0.00036696      -0.00465584
H        9.74203097       7.93363441       2.01906626       0.01529536       0.01010863      -0.00740172
H        8.00063376       8.40955402       2.10194166       0.01370089       0.00359661       0.00023101
S       11.68256004       2.88094214       1.35415950       0.00655597       0.01901460       0.01112360
O       10.73593516       1.65792383       1.38039987       0.00640383       0.01820129      -0.00213219
C       12.15797421       3.13286262       3.04890811      -0.00177779       0.00748758       0.01457548
C       10.57542011       4.27212153       1.15376709       0.00627258       0.01863375       0.01444917
H       12.69630285       2.23265812       3.35037962      -0.00026406       0.00683588       0.00947817
H       11.27438335       3.29622346       3.66447849      -0.00439322       0.00064246       0.01249012
H       12.82061940       4.00220910       3.08438870      -0.00458439       0.00936852       0.02288438
H       11.18704837       5.16451760       1.03510048       0.00611557       0.02035195       0.02570395
H        9.92029086       4.35196934       2.02056686       0.00102873       0.01161547       0.01096278
H       10.02862845       4.11861665       0.22662892       0.01218138       0.02387703       0.01020053
S        4.15616317       4.48880470       2.79558963      -0.01460163      -0.01181054      -0.00272942
O        3.61670307       3.52743343       1.78156241      -0.00204968      -0.01734483      -0.00397062
C        5.79904935       4.98196770       2.22799730      -0.01606733       0.00015878       0.00447571
C        4.62798225       3.51353241       4.23237757      -0.01308157      -0.00565767       0.00041449
H        5.64863377       5.66869883       1.39485817      -0.01666144      -0.00000610       0.00447249
H        6.32526884       4.09780117       1.87498699      -0.00942758       0.00348508       0.00633966
H        6.33331612       5.49642504       3.02943758      -0.02174129       0.00231336       0.00670475
H        5.26479411       4.08410489       4.90836035      -0.02223541       0.00149082       0.00281660
H        5.10948945       2.60450628       3.87688070      -0.00200092      -0.00131077       0.00475176
H        3.70946842       3.25633398       4.75570220      -0.01355800      -0.01376354      -0.00451862
S        6.63599239       1.10334711       2.37177705       0.00184345       0.00673994      -0.00861427
O        7.44718428       0.40545200       1.26626727       0.00727406       0.01335388      -0.00949135
C        7.82609180       2.24348717       3.06060896      -0.00207692       0.00413355       0.00160974
C        6.54017884      -0.03173890       3.74783556      -0.00031620      -0.00083184      -0.01564905
H        8.11488719       2.90511331       2.24758391      -0.00064490       0.00982490       0.00685547
H        8.67053632       1.65663266       3.42590786      -0.00244473       0.00333470       0.00111468
H        7.36535027       2.82281269       3.85907734      -0.00561444      -0.00195072       0.00394301
H        6.03742831       0.49220056       4.56806433      -0.00220184      -0.00572331      -0.01378769
H        7.54545111      -0.32105106       4.05518136      -0.00099277      -0.00077852      -0.01372649
H        5.94020528      -0.88136785       3.42963672       0.00182365       0.00033355      -0.02235308
S        9.81362175       0.52242212       6.00083431      -0.00465441      -0.00156789       0.00242639
O        9.63428471       0.05335696       4.57765501      -0.00366017      -0.00110835       0.00297773
C        9.19974769       2.21292746       6.02635072      -0.00426461      -0.00215453       0.00243942
C       11.56554798       0.89526384       6.15050190      -0.00359344      -0.00253582       0.00318139
H        8.11296839       2.17545528       5.99984541      -0.00377214      -0.00222220      -0.00329366
H        9.60060139       2.75177575       5.16904655      -0.00170474      -0.00103781       0.00448753
H        9.48593022       2.70524543       6.94751642      -0.00936877      -0.00166623       0.00335810
H       11.73605154       1.46835878       7.05883189      -0.00601117      -0.00150688       0.00334535
H       11.88330412       1.44166758       5.26591867      -0.00406837      -0.00383385       0.00131410
H       12.09804821      -0.05094841       6.20697664      -0.00658520      -0.00453699       0.00630348
S       11.23527739       2.55849061      10.66385639       0.00230247      -0.01017916       0.00313281
O       11.87682085       3.80887460      11.16418390      -0.00505066      -0.01010644       0.01123664
C       12.48907182       1.64564014       9.76276374       0.01068819      -0.00197655       0.00488976
C       10.16489764       3.03066671       9.32210199       0.00767314      -0.00919399       0.00006962
H       13.16956829       1.20517851      10.48935664       0.01098525       0.00180732       0.00669360
H       13.02921047       2.34833490       9.12360686       0.00838966       0.00197962       0.00708982
H       12.02138790       0.85072061       9.18160087       0.01700607      -0.00384443       0.00362352
H        9.60678179       2.16714525       8.95765401       0.01203164      -0.00979568      -0.00479819
H       10.76791038       3.48879278       8.53518977       0.00890748      -0.00435694       0.00376866
H        9.46370923       3.77220238       9.71750420       0.00297470      -0.01355930      -0.00035816
S        6.57190311       4.54408432       9.71041463      -0.00053012      -0.00531459      -0.00127757
O        7.84974925       5.25391681      10.06886931       0.00003028      -0.00985456       0.00490195
C        5.22733321       5.69835558      10.01424027       0.00214601       0.00026095      -0.01220867
C        6.27986664       3.46682355      11.13162572      -0.01514040      -0.00103733      -0.00185126
H        5.27445996       6.46864723       9.24475247       0.01217182       0.00117926      -0.01049173
H        5.34003304       6.14171666      11.00551293      -0.00625676      -0.00124522      -0.01072802
H        4.29321220       5.14516228       9.92735811       0.00065134       0.00435485      -0.02205013
H        5.27813723       3.04550511      11.11961957      -0.01570526       0.00089968      -0.01121068
H        6.46025137       4.06064054      12.02873974      -0.02364328       0.00020888      -0.00106376
H        7.01036686       2.66363803      11.04168209      -0.01628041      -0.00289359       0.00733669
S       11.00350524       7.10995734       6.57232925      -0.00065494      -0.00011903       0.00549173
O       10.08829042       7.86974110       5.66134840       0.00407887       0.00406516       0.00426412
C       11.16039930       5.47551367       5.83272824      -0.01016125      -0.00207889       0.00868031
C       10.06647965       6.60925125       8.01855201      -0.00385129       0.00813627       0.00595832
H       11.78578025       5.59430935       4.95003006      -0.00926656      -0.00701488       0.00880174
H       10.14979366       5.13062056       5.60774356      -0.01187727       0.00288515       0.00876166
H       11.66374440       4.80698742       6.53295684      -0.01454109      -0.00332349       0.01056065
H       10.74674610       6.10147119       8.70421949      -0.00811838       0.00429164       0.00719866
H        9.22907783       5.97693685       7.73402656      -0.00840239       0.01379889       0.00708918
H        9.70024737       7.52091542       8.48092222       0.00317266       0.01168245       0.00439085
S        1.66641824       7.65000833       1.29832366       0.01024675      -0.01053596      -0.00552487
O        0.38720831       8.36288485       0.97179290       0.00327873      -0.01289576       0.01847738
C        2.93235740       8.24027431       0.15641158      -0.01062357      -0.00244151      -0.02269417
C        1.49999068       5.99504106       0.62266838       0.00391825      -0.00835329      -0.00835788
H        3.13803074       9.27960200       0.40453320      -0.00845121      -0.00357273      -0.02036051
H        2.59880311       8.16200192      -0.87692015      -0.02699740       0.00084271      -0.01746903
H        3.84916044       7.67231316       0.31290844      -0.00671564      -0.00015755      -0.03970090
H        2.42083073       5.42548844       0.74372310       0.00882983      -0.00445156      -0.03112141
H        1.19276609       6.05774987      -0.42082871      -0.01860888      -0.00661956      -0.00128226
H        0.72504216       5.51823163       1.21755363       0.02021493      -0.01584026       0.00644287
S        6.97506352       8.71942209      10.81582496      -0.00637442       0.00332072       0.01758170
O        6.01547421       8.87756114      11.95072602       0.00660801      -0.01057926       0.02970028
C        8.43204704       7.92866988      11.51371459       0.00527763       0.00702518      -0.00652421
C        7.75774077      10.34285230      10.58732667      -0.02101398       0.00895160       0.02015900
H        8.13889033       6.90974450      11.75523358       0.01487742       0.00193928      -0.01665519
H        8.73357042       8.49017681      12.39731136       0.00991519      -0.00105840      -0.00318348
H        9.23372182       7.89926546      10.77890883      -0.00155525       0.02351574      -0.01414116
H        8.56501520      10.26004012       9.85903822      -0.03529824       0.02299091       0.00374611
H        8.15754951      10.61528885      11.57421482      -0.00357845       0.00600867       0.01339676
H        6.99971970      11.05211509      10.25553905      -0.03046441       0.00627024       0.03844924
S        1.44304186      12.84276949       2.13097796      -0.00567007       0.00286800      -0.01064849
O        0.76635806      12.88460324       3.46965707      -0.00830293      -0.00102808      -0.01120043
C        0.93593755      11.29930893       1.37173136       0.00780065      -0.00143272      -0.01083463
C        3.15178958      12.37562581       2.45073019      -0.00335956       0.01628399      -0.00688633
H       -0.13884053      11.35098635       1.20024351       0.00746156      -0.01088693      -0.01160361
H        1.13394195      10.47589178       2.05419542       0.01406066      -0.00067709      -0.01171641
H        1.43492043      11.15138060       0.41511567       0.00945842       0.00453416      -0.01085688
H        3.66587611      12.19150691       1.50763717      -0.00144756       0.01547354      -0.00550561
H        3.14992899      11.48858130       3.08650104       0.00133676       0.01878670      -0.00355528
H        3.60755900      13.22152281       2.96063884      -0.00920375       0.02178572      -0.01118556
S        4.08207483       9.66913712       7.41230310      -0.00771514      -0.00736916       0.00963521
O        4.11706914       8.52206481       8.36978515      -0.00932722       0.00168407       0.02151060
C        5.69462784      10.44944696       7.44826751      -0.00152427      -0.02137715      -0.00914742
C        3.14279005      10.97568211       8.21009177       0.00753427       0.00760889       0.00212449
H        6.41216369       9.70509721       7.10641315      -0.01200837      -0.02823114      -0.01531877
H        5.90192986      10.76881255       8.46629806       0.01373164      -0.02145371      -0.01231128
H        5.68062902      11.32827183       6.80186355       0.00013892      -0.02242425      -0.01012264
H        3.25224142      11.90487746       7.65130808       0.00743476      -0.00119961      -0.01190367
H        3.51491757      11.10016821       9.22601019       0.01826023       0.02133642      -0.00368111
H        2.10349439      10.65485291       8.22732160       0.00610366       0.01366170       0.01507588
