148
Lattice="12.422739344409738 0.0 0.0 0.0 12.422739344409738 0.0 0.0 0.0 12.422739344409738" Properties=species:S:1:pos:R:3:forces:R:3 energy=-926352.25 stress="-0.0010620290413498878 0.0007049676787573844 0.0010060443310067058 0.0007049676787573844 -0.000691778666805476 -5.658795635099523e-05 0.0010060443310067058 -5.658795635099523e-05 0.0018191904528066516" pbc="T T T"
Ac      12.43879109      11.92926077       0.33845895       0.01172595       0.01613165      -0.01356228
O        1.73207291      10.17314244       0.47482086       0.00481617       0.02466148      -0.04099110
O        4.13501689      10.95086331      -0.37007589       0.01088679       0.01504467      -0.01678681
O        3.63681606      10.93891903       2.18909527       0.00515908      -0.00332204      -0.02686942
O        2.31322287      12.63073249       0.60563113       0.02667011       0.01468319      -0.01893255
Mn       3.04101722      11.14394153       0.74167272       0.01728112       0.01133993      -0.03519791
O       -0.61262308       9.62398045       4.44601229      -0.02033615      -0.00467408      -0.01145503
O       -0.80551387      12.13542650       5.09600871      -0.03284472      -0.00125945      -0.03199339
O       -0.21467392      11.47947216       2.61032827       0.00240337      -0.01715615      -0.01859301
O        1.51999486      11.11501900       4.56106760      -0.02395380      -0.00154874       0.00694528
Mn      -0.01986925      11.08048410       4.22144722      -0.01881315      -0.00574036      -0.01276231
O       10.98222411      12.13022324      10.82938474       0.00684416      -0.00832510      -0.00178355
O       10.24203924      10.28481212       9.07920892       0.00711268      -0.01016867       0.00003862
O        9.34274092      12.71331376       8.82568588       0.01663673      -0.00803554      -0.00796795
O        8.52334911      11.22171954      10.79157388       0.00360453       0.00082529      -0.00786150
Mn       9.75129864      11.57829776       9.84577226       0.00731248      -0.00465685      -0.00547385
O        3.88074200       0.42219475       9.41354992      -0.01119995       0.01511449       0.00011140
N        5.35663832       1.58360520      10.71665274      -0.00261389       0.00119853       0.00529253
C        4.34937718       2.46638553      11.24961952       0.00199511      -0.00118540       0.01710626
C        6.73285035       1.89258299      11.02575273       0.00041035       0.00216959      -0.00840613
C        5.01357983       0.63681695       9.80610227      -0.00727308       0.00967228      -0.00170696
H        4.54958229       3.50034410      10.95459470      -0.00510612      -0.00093645       0.01279610
H        4.32964379       2.41850163      12.34083773       0.01799237       0.00031649       0.01730397
H        3.38672639       2.14450490      10.86144738      -0.00274470      -0.00395583       0.03104432
H        7.01655041       2.86326236      10.60766668      -0.00371639       0.00126573      -0.01395954
H        7.38404151       1.12312486      10.61391384      -0.00279349       0.00162062      -0.01228327
H        6.87338559       1.94478910      12.10945768       0.00975836       0.00514919      -0.00980413
H        5.88957325       0.06030829       9.45954780      -0.01114511       0.01191276      -0.01107946
O        9.08152648       6.20667907      11.08010498       0.01703936      -0.03214526       0.00302830
N       10.74174786       7.72712548      11.43452770      -0.00472263      -0.02128901       0.01975433
C       11.80660333       6.79272525      11.16607773       0.00977583      -0.01122783       0.00863637
C       11.13289565       9.07165274      11.75621890      -0.01162200      -0.01961636       0.02575650
C        9.44068044       7.34723668      11.30918794       0.00453776      -0.03001344       0.01571909
H       12.48300880       6.72153788      12.02083977       0.01581585      -0.00682886       0.00566435
H       12.39147712       7.12124224      10.30300778       0.00184037       0.00058903       0.00685313
H       11.35961310       5.82481550      10.95667593       0.01782584      -0.01167053       0.00769136
H       11.74726861       9.06094157      12.67081894      -0.01944788      -0.01220231       0.03295091
H       10.23902550       9.68094092      11.90659769      -0.01880708      -0.02356201       0.01852742
H       11.71508959       9.50857109      10.93422061      -0.00662635      -0.01390299       0.03019428
H        8.73989857       8.18884021      11.44357410      -0.00104564      -0.04261124       0.02484772
O        7.70784078       6.54782706       7.44591236      -0.04090548      -0.00621808      -0.01826704
N        7.88967713       8.59928367       6.46675196      -0.00573426       0.00232506       0.00947336
C        6.58787463       9.04429655       6.92206913      -0.00249562       0.01583292       0.00622184
C        8.67865552       9.52747397       5.68984178       0.00846815      -0.00435299       0.01628967
C        8.33646026       7.37080627       6.79803413      -0.02757770      -0.01043701      -0.00139368
H        5.93739140       9.29010414       6.08046403       0.00091207       0.01931485       0.00423297
H        6.69428178       9.92160325       7.56408312       0.00557949       0.01714095       0.00326854
H        6.14039073       8.23572290       7.49413606      -0.01164171       0.02207589       0.00715873
H        8.11907071       9.84579083       4.80376074       0.01543534       0.00663619       0.01570290
H        9.60730513       9.06183394       5.36620392       0.00328922      -0.01477021       0.01646435
H        8.93521909      10.41238214       6.27769779       0.01800068      -0.00983864       0.02075472
H        9.34992939       7.16701710       6.40823283      -0.02653980      -0.01850204       0.00150079
O        3.71082265       8.89202606       5.11658120      -0.00444233      -0.00236475       0.01354051
N        1.87796851       7.52480920       5.15066028      -0.00964150       0.00511566       0.00235894
C        1.69217776       7.51585095       3.71613820      -0.00266383       0.00918306       0.00159588
C        0.92380305       6.78603242       5.94840094      -0.01305529       0.00237861      -0.00414109
C        2.86799253       8.25130183       5.71671224      -0.00860506      -0.00056547       0.00835311
H        0.66568731       7.80091022       3.48241383      -0.00221232       0.00806460      -0.00219151
H        1.88623405       6.51698220       3.31101860       0.00073840       0.01068240      -0.00062592
H        2.37299015       8.23649471       3.26863044      -0.00144169       0.01158741       0.00713528
H       -0.07575509       7.21523401       5.84748413      -0.01244253       0.00339498      -0.00632648
H        1.22183209       6.83265953       6.99557248      -0.01717788      -0.00212231      -0.00276613
H        0.88722892       5.73772363       5.63676500      -0.01238492       0.00369442      -0.00891560
H        2.84330807       8.19049088       6.82018882      -0.01308906      -0.00417256       0.00809699
O       11.93465307       1.79437707       0.98043220       0.01238293       0.01295982      -0.01636768
N       10.90359198       3.73494138       1.54074054       0.00894855       0.00822212      -0.00512529
C        9.60509428       3.35929629       1.00091992       0.01124758       0.01381719      -0.01701054
C       11.00255357       5.05262889       2.14426304       0.00340751      -0.00033271       0.01611173
C       11.94189690       2.92925597       1.50875316       0.00868320       0.01193550      -0.00640998
H        9.37186707       3.97431421       0.13018474       0.01175520       0.03313211      -0.00344187
H        8.83122103       3.55225806       1.74076853       0.00875708      -0.00758025      -0.01402456
H        9.62040144       2.30831639       0.73203651       0.01850771       0.01994044      -0.04094002
H       10.57021159       5.78407591       1.45903840       0.00248103       0.00947662       0.02736723
H       12.04741760       5.29026358       2.32683438       0.00263864      -0.00015695       0.02208058
H       10.46265711       5.07390179       3.09165014       0.00212209      -0.01788507       0.01587808
H       12.84364697       3.31583060       1.99026060       0.00685686       0.00656562      -0.00033636
O        5.90158145       2.41563715       7.36398988       0.03002602       0.01914877       0.01478875
N        7.08972758       1.95171377       5.46458347       0.00634082      -0.00052741       0.00592823
C        7.14432150       0.52415032       5.68932080       0.00213482       0.00082859       0.01678743
C        7.81071052       2.46939901       4.32528503       0.00264876      -0.01179457      -0.00132008
C        6.49294489       2.77181543       6.35880897       0.01929671       0.00858045       0.00841832
H        8.17392038       0.21565372       5.88536084       0.00133204      -0.00135689       0.01878040
H        6.77850208      -0.00948052       4.80720213       0.00031717      -0.00415686       0.02038595
H        6.52259158       0.28006726       6.54653539       0.00192922       0.00929066       0.01873052
H        8.87715523       2.24483454       4.40892620       0.00230083      -0.01638432      -0.00530402
H        7.70135901       3.54825396       4.28950822       0.00720463      -0.01141179      -0.00888677
H        7.41634868       2.04384731       3.39719871      -0.00373970      -0.01674505       0.00346413
H        6.59457434       3.83429931       6.07479384       0.02205560       0.00630736      -0.00127578
O        7.20099480       8.72193413       1.83566199       0.00924051      -0.00107110      -0.00176079
N        8.06917000      10.82058864       1.57570133      -0.00600013       0.00495487       0.00258550
C        6.80208753      11.45872550       1.28517015      -0.00919415      -0.00404011      -0.00490437
C        9.24706447      11.64404114       1.57259005      -0.01156494       0.01314190       0.00585198
C        8.14329606       9.49363889       1.80778445       0.00120401       0.00564206       0.00494520
H        6.77378338      11.78893709       0.24555041      -0.00623490      -0.00489283      -0.00517380
H        6.66897341      12.32199091       1.94317071      -0.01867752      -0.00418389      -0.00653745
H        6.00360283      10.74543293       1.45900388      -0.00518963      -0.00887507      -0.00807898
H        9.41470529      12.06491800       0.56982450      -0.01301356       0.01563975       0.00698897
H       10.09619257      11.04101701       1.89668349      -0.00752260       0.01829478       0.00411963
H        9.15586513      12.46935299       2.28580105      -0.01829201       0.01089826       0.00735500
H        9.18401103       9.16166781       1.98729212       0.00377613       0.01523864       0.01425819
O        3.60645127       6.57891649      10.97053436      -0.00822842       0.00467503      -0.01103806
N        2.97030656       5.08274125       9.36652342       0.01384339      -0.00318316      -0.00040786
C        1.75903633       4.71411618      10.05674538       0.00495864      -0.00937868      -0.01269456
C        3.31183718       4.34638623       8.16709921       0.01016470      -0.00361237       0.00046517
C        3.80217132       6.00113151       9.91624398       0.01971822      -0.01689953      -0.02603340
H        1.76285658       3.64857837      10.29673592      -0.00045724      -0.01524368      -0.02275208
H        0.88330816       4.92402331       9.43743333       0.00642815      -0.00640956      -0.01941967
H        1.70817630       5.29477579      10.97407922      -0.00683713      -0.02084655      -0.00921395
H        3.43015336       3.28177024       8.38234313       0.00922347      -0.01511216      -0.00517747
H        4.25813192       4.71210440       7.77448797       0.01657635      -0.00451089      -0.00268564
H        2.53292099       4.46729399       7.40906821       0.00513396       0.00015923      -0.00918320
H        4.69787940       6.17698445       9.29496963       0.00597310      -0.02177736       0.00509417
O        1.02559159       3.10339658       4.62220571      -0.00979102       0.02323592      -0.02147254
N        3.13563714       2.51920374       3.98976295      -0.00946271       0.00076430       0.00153780
C        3.59057406       3.88795832       3.93882225       0.00300749      -0.00320495      -0.00200801
C        4.03065083       1.49153765       3.49827827      -0.01473476      -0.00978419       0.01351518
C        1.86440633       2.25053448       4.34931822      -0.01578760       0.01502872      -0.00879353
H        3.61986727       4.25609120       2.90848611       0.00342803      -0.00531261      -0.00288221
H        4.59616972       3.96144981       4.35517716       0.00510508      -0.01256286      -0.00535062
H        2.90523652       4.50500707       4.51451584       0.01076782       0.00478497      -0.00146861
H        4.20604934       1.61993486       2.42520788      -0.00604298      -0.01681786       0.01411256
H        3.59582952       0.50748529       3.65869323      -0.02458027      -0.00517878       0.01541729
H        4.98570956       1.55142339       4.02372418      -0.01806667      -0.01511400       0.02041085
H        1.65039877       1.17105650       4.37662733      -0.02588046       0.01663774      -0.00557657
O        6.79786086       4.44407670       1.46182869      -0.00566530      -0.01211047       0.01205158
N        6.28883046       6.04266905       3.01823247       0.00118998      -0.00037566      -0.00063115
C        7.61071453       6.10932588       3.59731511       0.00103596      -0.00628128       0.00209711
C        5.29441186       6.92955929       3.57635143       0.00447755       0.00622176      -0.00498322
C        6.03188195       5.26292073       1.95468758       0.00175333      -0.00820237       0.00329649
H        7.62222307       5.75019511       4.62949697      -0.00410092      -0.00201492       0.00352347
H        7.94806841       7.14649786       3.57757068       0.00731789      -0.00829160      -0.00185675
H        8.27577993       5.50167900       2.99271758      -0.00181912      -0.01322067       0.00641502
H        5.15639609       6.71936407       4.63941760       0.00102160       0.00983572      -0.00499916
H        4.34764892       6.78513714       3.06196144       0.00493813       0.00984440      -0.00722662
H        5.59189371       7.97050052       3.46419090       0.01046368       0.00409555      -0.00762848
H        5.01983124       5.42919703       1.54996046       0.00106370      -0.00314613       0.00086614
O        9.51352225       4.24160679       6.15974630       0.00727335       0.00835514      -0.01177883
N       10.42499794       3.39941106       8.07978224       0.00455135       0.00967225      -0.00710881
C       11.58251964       2.82064716       7.42902649      -0.00359474      -0.00756240      -0.00602740
C       10.30198118       3.21848563       9.50902803       0.00609267       0.02049251      -0.00514461
C        9.48108449       4.05429636       7.37239033       0.00864080       0.01531127      -0.00397587
H       11.54122365       1.72933001       7.46549930      -0.01674254      -0.00681597       0.00046963
H       12.49584304       3.14729743       7.93352130       0.00131389      -0.01537484      -0.00990173
H       11.61316443       3.13836892       6.39130889      -0.00186346      -0.01304056      -0.00807348
H       10.32676592       2.15839437       9.76422548      -0.00459597       0.02154726       0.00196990
H        9.36699099       3.65485900       9.85577592       0.01268238       0.03439617      -0.00522193
H       11.12395135       3.71659637      10.03382630       0.01321781       0.01529625      -0.01119393
H        8.65735100       4.42714374       7.99675966       0.01571482       0.02866793      -0.00757247
