144
Lattice="12.636848632468633 0.0 0.0 0.0 12.636848632468633 0.0 0.0 0.0 12.636848632468633" Properties=species:S:1:pos:R:3:forces:R:3 energy=-900702.5 stress="-0.0007549252477474511 0.00012527738726930693 0.0002821948437485844 0.00012527738726930693 -0.0007438309257850051 0.0002866755530703813 0.0002821948437485844 0.0002866755530703813 -0.0006055167177692056" pbc="T T T"
Ac      12.08782505      12.35542245       0.90085322      -0.00333831      -0.00019696      -0.00833970
Cl       9.12156681      11.82990098       7.85183843       0.00258072       0.00612527       0.00094102
Cl      11.79965594      10.85283570      -1.31065318      -0.00940346      -0.01552251       0.00296131
Cl       4.02434066      14.40706935       2.30078403      -0.00098413       0.00501067      -0.01372361
O       10.83508044       6.52532052       1.14769089       0.00882389      -0.00448394      -0.00495245
O       12.80709788       7.51442352       1.41810196       0.00395939      -0.00302693       0.02298103
O       12.71367193       5.29140819       1.10714806       0.01316920      -0.00486779       0.00576195
C       10.50586405       7.92284712       1.25847212       0.00407279      -0.00677584       0.00910296
C       11.85287510       8.58231116       1.57151822       0.00251508      -0.00343317       0.00889578
C       12.16471357       6.34823225       1.21377808       0.00572658       0.00216460       0.00861627
H        9.76761632       8.03425461       2.04928544       0.00720379      -0.01624168       0.01354942
H       10.07856020       8.25489794       0.31382719      -0.00151317      -0.00040516       0.01394656
H       12.11105684       9.34269867       0.83213719       0.00546820      -0.00888869       0.00396356
H       11.93582948       8.95475588       2.58731361      -0.00199695       0.00586572       0.00589663
O        9.85735599       1.99407740       4.06678967       0.01002721      -0.00123752       0.00161605
O       11.41209710       3.57193166       3.84509649      -0.00243362       0.01056847      -0.00360432
O       11.27188847       2.42285576       5.77993097       0.02082360       0.00554740       0.02372682
C        9.82165430       2.40105225       2.68989593       0.00393373      -0.00307781       0.00227019
C       10.50874533       3.74031684       2.72057662      -0.00369729      -0.00070071      -0.00372107
C       10.88192281       2.63969518       4.67599858      -0.00563428       0.01339822      -0.03570139
H        8.79932282       2.41158153       2.33075243       0.00087708      -0.00937982       0.00397004
H       10.38511742       1.66808234       2.09247030       0.00475448      -0.00155492      -0.00060688
H       11.09156276       3.98088857       1.84030120      -0.00498572      -0.00219364      -0.00753960
H        9.81355175       4.54884447       2.94735287      -0.00784597      -0.00189245      -0.01027572
O        7.97941324      10.63776527       1.44322979      -0.00322467       0.00660890      -0.00446586
O        7.65814021      12.82286064       1.57448393      -0.00173759       0.00683051      -0.00972898
O        9.63326808      12.02931005       0.90345376      -0.00163695       0.00460174      -0.00898526
C        6.54818272      10.80948335       1.70948860      -0.00262481       0.00818181      -0.00261036
C        6.46378030      12.23612563       2.19498429      -0.00065005       0.00922977      -0.00634414
C        8.48738467      11.85135446       1.28581116      -0.00443855       0.00524127      -0.00705038
H        6.24792260      10.05194076       2.42930831      -0.00175076       0.01035571      -0.00017586
H        6.04859462      10.67858727       0.75633335      -0.00473490       0.00577831      -0.00100732
H        5.58527391      12.81113358       1.88095736      -0.00088516       0.00907674      -0.00594859
H        6.58215101      12.35331549       3.27091940       0.00159679       0.01204832      -0.00694796
O        7.36355581       5.11713228       3.12129195      -0.00292668      -0.00902843      -0.00694489
O        5.35069001       5.62728840       3.89481338       0.00312653      -0.00174806       0.00360578
O        6.65838359       7.24685684       3.05250476       0.01594420      -0.00246847       0.00389341
C        6.79194782       3.83961450       3.51795283      -0.01431292      -0.00476772      -0.00114751
C        5.51339870       4.22392376       4.24126313      -0.00591716      -0.00343804       0.01228365
C        6.47273071       6.08915676       3.34154299       0.00546879      -0.00356680      -0.00033189
H        7.51419163       3.34036543       4.16054737      -0.01151374      -0.01047623      -0.01241922
H        6.58086499       3.25659416       2.62090500      -0.01572259       0.00023699      -0.00850853
H        4.65831692       3.65747533       3.86717774      -0.00328574       0.01305699      -0.00156459
H        5.60726813       4.16585277       5.32505728      -0.01193467      -0.01246309      -0.00494817
O       11.18343885       2.29741589      10.02573487       0.00284922       0.01596056      -0.00020778
O        9.37200589       1.52818003      11.02269117       0.01231447      -0.00609687      -0.00001505
O       11.31410628       1.56469533      12.12814992       0.01321149       0.00654585      -0.00512969
C       10.17479067       2.23425558       8.95937174       0.00180579       0.00721307       0.00192940
C        8.89155415       2.04028875       9.73867270       0.00522316      -0.00513209       0.00350527
C       10.65203159       1.78482453      11.10947027       0.00998623       0.00536748      -0.00016596
H       10.39938813       1.37525540       8.32697021       0.00898417       0.01011464       0.00116411
H       10.22542537       3.16519394       8.40533175      -0.00776525       0.00794092       0.00284795
H        8.35560080       2.96502948       9.95188894      -0.00082712      -0.01025307       0.00862342
H        8.26674344       1.27230239       9.28910817       0.01108310      -0.00850481       0.00242901
O        9.60151027       4.92140602       6.03186918       0.00163609       0.00070366       0.00327403
O        9.31770704       6.96460147       6.85926433       0.00033438       0.00478883      -0.00866718
O        7.52485938       5.77524591       6.19292577       0.02810013       0.00687630      -0.00846719
C       10.92277178       5.34060607       6.43425269      -0.00123972      -0.00058138       0.01331513
C       10.74251101       6.82531181       6.71904293       0.00076881       0.00368929      -0.00517602
C        8.70566126       5.87179224       6.35090057      -0.03240186       0.00210293      -0.01036268
H       11.60291117       5.12034196       5.61982610       0.00572816      -0.01292309       0.02457294
H       11.21352080       4.76339212       7.30930853      -0.01626793       0.00958771       0.02411360
H       11.20962968       7.14814969       7.64499792      -0.00124106       0.01465803      -0.00975087
H       11.07607641       7.46741271       5.90210017       0.00020042      -0.00844935      -0.01373345
O        2.92553270       7.59524942       3.47000911      -0.02311781       0.00499865      -0.00965066
O        0.90868719       8.21187456       4.17561712      -0.01829834      -0.01216404       0.01834495
O        2.21668021       9.69540093       3.11194013      -0.04278246       0.01392972      -0.00801283
C        2.28729597       6.35731170       3.85147403      -0.00538498       0.00033277       0.00258712
C        1.00638477       6.82402562       4.53485802      -0.00023621      -0.01076613       0.01794836
C        2.03571067       8.60062036       3.55725508      -0.03297497      -0.02478302       0.01014310
H        2.95446019       5.81519495       4.51161365       0.01071942       0.00918581      -0.00489447
H        2.09599492       5.78213486       2.94691569      -0.01183140      -0.00381723       0.00609738
H        0.12386394       6.31296784       4.15077187       0.00042874      -0.02170603       0.02792904
H        1.05823078       6.76084907       5.62102347       0.01434863      -0.01016549       0.01837188
O        4.97603180      10.55520525       9.05699248       0.00243461      -0.01178402      -0.00158656
O        5.81696828      11.12266769      11.03510248      -0.00192001      -0.00928726      -0.00088456
O        3.60288364      11.32661682      10.65784217      -0.00607812      -0.02321383       0.00040531
C        6.37537946      10.18350168       8.97806435       0.00459786      -0.00395927      -0.00131276
C        6.97912148      10.83899153      10.20487862      -0.00010341      -0.00159054      -0.00046453
C        4.69842867      11.03081464      10.27316013       0.00314867      -0.01668321      -0.00302623
H        6.80174113      10.58185321       8.06199695       0.00305635      -0.00092599      -0.00070649
H        6.43867818       9.09487675       8.99854111       0.01065579      -0.00336403      -0.00195299
H        7.65435951      10.19339850      10.76133501       0.00356120       0.00168514      -0.00073773
H        7.48868422      11.76769341       9.95956460      -0.00523286       0.00159782       0.00095671
O        3.69698446      10.44225407       0.79432858      -0.00584105      -0.00994772       0.00481847
O        1.85537072       9.44693359       0.09967344      -0.00012708      -0.00461030      -0.01656715
O        1.76916082      11.56968277       0.74115633      -0.00441961      -0.00734943      -0.00654491
C        4.11217980       9.08389651       0.52852932      -0.00315320      -0.00846256      -0.00196274
C        2.84330257       8.39145823       0.03211191       0.00081534      -0.00406671      -0.01810761
C        2.41488546      10.54936247       0.55448884      -0.00270757      -0.00843596      -0.00689071
H        4.48883659       8.66968920       1.46222658      -0.01131783      -0.01519738      -0.00175813
H        4.89425703       9.13099762      -0.22653163       0.00319535      -0.00351825       0.00531676
H        2.89697402       8.04519335      -0.99553522       0.00908823       0.00541233      -0.02066693
H        2.51120436       7.58114516       0.67335657      -0.00471212      -0.00941476      -0.02792338
O        3.73231520       3.51139067      12.03461825      -0.00297914       0.02291155      -0.00761369
O        3.95693632       3.96297477       9.87118517       0.00128019      -0.01146539      -0.01168302
O        3.02777303       5.48982599      11.23803173       0.00877976       0.01548994      -0.04171482
C        4.50189699       2.40367544      11.51690102      -0.00689685       0.00813831       0.00866747
C        4.38604226       2.59252171      10.00604679       0.00325816      -0.00801766       0.00046879
C        3.52136943       4.40876719      11.07224957       0.00278696       0.00834519      -0.02064113
H        4.07104659       1.47989798      11.89217480      -0.02408856       0.02242911       0.02950403
H        5.52147358       2.50547267      11.88674779      -0.01280594       0.00602345       0.02140892
H        5.33316521       2.48291734       9.48017550      -0.01235998      -0.00340069      -0.01106341
H        3.63368507       1.94838999       9.54936164       0.00183907      -0.01385051       0.01735702
O        3.33586943       7.77457485       6.79493701       0.00739493      -0.00751990       0.00198489
O        4.78098062       9.39079168       6.27487876      -0.00041902      -0.00272734      -0.00466188
O        2.59189785       9.88745923       6.53611953      -0.01831853       0.00274670      -0.00521145
C        4.63406653       7.16074727       6.89563596       0.01040161      -0.00026637       0.00359717
C        5.53659161       8.16449402       6.19684390       0.00476247       0.00024867      -0.00052992
C        3.48737416       9.10639775       6.54028031       0.02288085      -0.02575374      -0.00273032
H        4.60540034       6.19559341       6.39886952       0.01523341      -0.00397912       0.00774272
H        4.87549914       7.02430576       7.94989725       0.01190787       0.00377640       0.00432479
H        6.48956692       8.30187746       6.70111033       0.00584081       0.00602625      -0.00183883
H        5.69526671       7.92368131       5.14692479       0.00659690      -0.00354718       0.00028563
O        9.76342803       5.61447491       9.74818746       0.00360104      -0.00325327      -0.00088334
O        9.84742774       7.77204035      10.29123600      -0.00254756      -0.00398083       0.00233049
O        7.90675681       6.88274772       9.57444525       0.01754278      -0.00958014       0.00371349
C       11.02698482       5.78249979      10.43539838       0.00243640      -0.00116879       0.00082645
C       11.19991033       7.29425670      10.44014015      -0.00135222      -0.00018337       0.00271474
C        9.06469725       6.76895734       9.84683386      -0.02202630      -0.00247588      -0.00454645
H       11.80001354       5.25141792       9.88560352       0.00313348       0.00178914       0.00115493
H       10.92167196       5.36263361      11.43554743       0.00113024      -0.00172065      -0.00005227
H       11.61189129       7.69460442      11.36196302      -0.00425737      -0.00070906       0.00273010
H       11.79489715       7.67137761       9.60780449      -0.00353763       0.00152418       0.00248763
O        9.16567049      11.54144642       4.01561563      -0.00034854       0.01798868      -0.00922130
O       10.31589007       9.66644254       4.19283365       0.00121981       0.02116525       0.00825852
O       11.22573354      11.41677105       3.14224604       0.00057313       0.01224677      -0.00747870
C        8.33053181      10.67665398       4.85735163      -0.00154930       0.02555479      -0.00279428
C        8.98104475       9.32077051       4.68002180       0.00330389       0.02519989       0.01705250
C       10.29113861      10.91562295       3.75861880      -0.00176167       0.01610182      -0.00153054
H        7.31329872      10.72556861       4.48071702       0.00011861       0.01733236      -0.00817525
H        8.41084389      11.06677963       5.87960986      -0.00736348       0.03617267      -0.00686514
H        9.09892898       8.78343315       5.61415346       0.00762485       0.04116368       0.02544487
H        8.50704720       8.68833314       3.92682396       0.00390074       0.01145557       0.02850696
O        8.28465624       6.38004576      12.53888348       0.00613241      -0.00901997       0.00268300
O        6.64736516       4.87964670      12.51750415       0.00769246      -0.00998694      -0.01214094
O        8.78149242       4.19167521      12.69661867       0.01956826      -0.02299720      -0.01011767
C        7.08173398       7.17189800      12.51200003       0.00539985      -0.01000345       0.00456630
C        5.98736038       6.13724509      12.25912770       0.00687146      -0.00855093      -0.00219616
C        7.97369806       5.07035106      12.59813929      -0.01011512       0.00857008      -0.00952513
H        7.17682456       7.88993695      11.70061018       0.00594202      -0.00476599       0.00790972
H        6.98680061       7.66511458      13.47739010       0.00348885      -0.01311696       0.00659782
H        5.13715495       6.21322597      12.93390603       0.00594464      -0.01369299      -0.00084129
H        5.64210937       6.13507029      11.22690262       0.00490233      -0.00029451      -0.00201631
