147
Lattice="11.87522963609508 0.0 0.0 0.0 11.87522963609508 0.0 0.0 0.0 11.87522963609508" Properties=species:S:1:pos:R:3:forces:R:3 energy=-216060.921875 stress="-0.001008130144327879 -0.00017175686662085354 0.0006038507854100317 -0.00017175686662085354 -0.0026994082145392895 5.7866869610734284e-05 0.0006038507854100317 5.7866869610734284e-05 -0.002104324521496892" pbc="T T T"
Ag      11.63655618      11.25129995       1.39061156      -0.01057455       0.03279121       0.03511132
O        9.32294868       6.51450958       3.55130633       0.01076855       0.00326800      -0.01201510
O       10.43160270       7.74695129       5.08463916      -0.00425482       0.01527977       0.00040209
C        8.20853513       8.32117438       4.58279801       0.00209749       0.01138431      -0.00790149
C        8.37076086       9.62653444       5.04699966      -0.00706774       0.00916059      -0.00848741
C        6.92405150       7.86392903       4.28535032       0.00230823       0.00394960      -0.01152602
C        7.28256819      10.47472267       5.18462545      -0.00871549       0.00579116      -0.00741711
C        5.82640208       8.70522127       4.44495202       0.00119509      -0.00153929      -0.00938010
C        6.00417419      10.01087458       4.88797703      -0.01016340      -0.00454065      -0.00891164
C        9.42686089       7.43340783       4.37608963       0.01106846       0.02686751       0.01120302
H        9.38355674       9.94490181       5.26510512      -0.00854276       0.01634441      -0.00578398
H        6.80743274       6.84957393       3.92482771       0.01046770       0.00432727      -0.01277643
H        7.41125389      11.49403504       5.52749816      -0.01667444       0.00361378      -0.00748789
H        4.83741427       8.34018196       4.19901515       0.00063521      -0.00852288      -0.00894058
H        5.15709054      10.66976186       5.01736011      -0.01126906      -0.00745097      -0.00629433
O        5.05025100       0.88656162       6.10487384      -0.00731876       0.00587178      -0.01357257
C        4.76474052       1.90946644       7.07083501      -0.00360821      -0.00458649      -0.00191126
C        5.59733947       3.14495591       6.79161879      -0.00457922      -0.00166249       0.00933242
C        3.27238973       2.18555486       7.12078616      -0.00299174      -0.00354996       0.00693460
H        5.06805582       1.47478112       8.02512126      -0.00082570      -0.01454389      -0.00756031
H        5.40478858       3.92056744       7.53532111      -0.00095306      -0.01178236       0.02052565
H        6.65971555       2.89813466       6.79458880      -0.00464401      -0.00155480       0.00060723
H        5.35924685       3.57156501       5.81283750      -0.01016124       0.01112232       0.01640825
H        3.03594953       2.90787963       7.90459034       0.00133356      -0.01535469       0.01894987
H        2.71865577       1.26918732       7.32656293      -0.00358775      -0.00565471      -0.00489220
H        2.91965860       2.58760228       6.16883585      -0.00584942       0.01143556       0.01445161
H        4.89584677       1.26005597       5.23027109      -0.00893053       0.01568881      -0.00901359
O        3.85053459       5.24324277       9.27348818       0.00136739      -0.00256842       0.00993964
C        4.18297998       6.61758970       9.02045877      -0.00203366      -0.00353104       0.00041342
C        5.31289410       6.74054487       8.01597436      -0.00558305      -0.00919701      -0.00385910
C        2.94242991       7.39686324       8.61842171      -0.00435090      -0.00733194       0.00118178
H        4.54296543       6.97914575       9.98425187       0.00110909       0.00286409      -0.00329340
H        5.58974348       7.78615201       7.87689498      -0.00686511      -0.01019128      -0.01329925
H        6.19407438       6.20889342       8.37274116      -0.00433122      -0.00578931      -0.00236660
H        5.02627712       6.34127567       7.04065846      -0.00761342      -0.01840551       0.00070788
H        3.17448876       8.45365914       8.46810784      -0.00510006      -0.00882424      -0.00956784
H        2.16282652       7.31493186       9.37610525       0.00064799       0.00034711       0.00692368
H        2.52860686       7.01043839       7.68169812      -0.01182546      -0.01509055       0.00771493
H        3.30678357       4.94239811       8.53786991      -0.00484525      -0.00679101       0.01649478
O        3.55864394       6.43614420       4.91001501       0.00233017      -0.00808185      -0.00458078
C        2.48235210       5.49652363       5.06087040      -0.00308421      -0.00249702      -0.00851747
C        1.14556881       6.14584798       4.80971468      -0.00091159       0.00040415      -0.01550372
C        2.75411634       4.37453609       4.08530083      -0.00165427      -0.00229785      -0.00744763
H        2.50380567       5.09570393       6.08684412      -0.00769101      -0.00252134      -0.00862992
H        0.32728458       5.44671312       4.96972005      -0.00374207       0.00378236      -0.01441132
H        0.97036959       6.97783747       5.49208384      -0.00168381       0.00477840      -0.02164516
H        1.07891199       6.51633351       3.78694974       0.00186002      -0.00691350      -0.01835541
H        1.95868637       3.63264838       4.19303377      -0.00586583       0.00219608      -0.01086291
H        3.72750893       3.91436796       4.26883742      -0.00401498      -0.00495207      -0.00313617
H        2.74446716       4.75309128       3.06402320       0.00480322      -0.00183190      -0.00716439
H        3.33753858       7.20885168       5.43998845       0.02346376      -0.02222247       0.02425081
O        2.46282066       1.20783920       2.93628511      -0.00458249       0.00588620      -0.00625384
C        2.44500206       1.39419833       1.49924943      -0.00629457      -0.00214379      -0.00736675
C        1.56210658       2.56632706       1.12003668      -0.00807905      -0.00591904      -0.01422045
C        3.85604707       1.51584080       0.97004789      -0.00674236      -0.00385012      -0.00703779
H        1.99925138       0.45361336       1.12508491      -0.00401472      -0.00487538      -0.00234689
H        1.40263416       2.58792629       0.04085593      -0.00609742      -0.01144031      -0.01451391
H        0.59058309       2.50562833       1.61739492      -0.00903822      -0.00503412      -0.01616491
H        2.04175915       3.50668173       1.39597762      -0.01073124      -0.00374448      -0.01751734
H        3.85248625       1.55353862      -0.11947347      -0.00616316      -0.01107764      -0.00701146
H        4.46354542       0.66250867       1.27309933      -0.00795370      -0.00219055      -0.00073641
H        4.31043099       2.43798956       1.34084966      -0.00687458      -0.00203872      -0.01193993
H        2.64831809       2.06566827       3.33782031      -0.01663022       0.01000482      -0.00992222
O        0.39052251      11.45782561       3.49773927       0.01476061       0.00987628       0.01485220
C        0.95964604      10.24456369       4.09088136       0.00832140       0.00224379       0.00582267
C        1.71652598       9.47225175       3.03515901       0.00309765       0.00023675       0.00334960
C        1.83675084      10.66230466       5.25122543       0.01062220      -0.00173835       0.00454044
H        0.10190246       9.66325728       4.43859122       0.00496978       0.00760797       0.00558634
H        2.13640873       8.55324863       3.44692970       0.00126102       0.00222182       0.00899559
H        1.05418917       9.16936216       2.21498490       0.00219789      -0.00170242       0.00514771
H        2.53649421      10.07206026       2.63226055       0.00538452      -0.00490962       0.00021489
H        2.25170271       9.77907141       5.74156120       0.00603495      -0.00172088       0.00745194
H        1.25397232      11.22429634       5.98011685       0.01232690       0.00341158       0.00179416
H        2.67123407      11.27377619       4.90240088       0.01338555      -0.00703460       0.00246838
H        1.11747274      12.12381949       3.44512198       0.02144739       0.00279108       0.00406362
O        4.78116314      11.78935186       9.87642173      -0.00347584       0.00212187       0.00705457
C        5.83988053      10.82124464       9.78717111      -0.00477650       0.00107920       0.00566211
C        5.51622333       9.60124386      10.62397796      -0.00401415       0.00190461       0.00676751
C        6.13594179      10.49584837       8.33807048      -0.00890458      -0.00055213       0.00524777
H        6.70275860      11.32906616      10.22011259      -0.00349399       0.00063515       0.00358257
H        6.30111552       8.84729342      10.53544561      -0.00365341       0.00250003       0.00679614
H        5.41762817       9.86481326      11.67622601      -0.00267801       0.00230515       0.00657028
H        4.57919518       9.15431450      10.28626539      -0.00405681       0.00144131       0.00770652
H        6.92150433       9.74385368       8.24873144      -0.00753066       0.00132421       0.00357388
H        6.44240370      11.38476504       7.78961355      -0.01285320      -0.00071022       0.00288228
H        5.24760932      10.10093815       7.83744099      -0.01000367      -0.00321010       0.00967821
H        4.03081915      11.42378616       9.39543901      -0.00824076      -0.00206512       0.01792878
O        7.17421621       4.39377548      10.23941524      -0.00426337       0.00860111       0.00553691
C        7.80170562       3.31771649      10.94528948      -0.00717375       0.00858265       0.00789171
C        7.07017939       2.02254721      10.67400374      -0.00913185       0.00945634       0.00921868
C        9.27963246       3.20725552      10.59866774      -0.00722957       0.00698178       0.00940770
H        7.70167465       3.58467531      12.00104555      -0.00800075       0.01044482       0.00722885
H        7.49067495       1.21184590      11.26724117      -0.01437387       0.01002380       0.01374861
H        6.01006609       2.10282575      10.90446893      -0.00964123       0.01359100       0.00467619
H        7.17030571       1.74720208       9.61853942      -0.00594255       0.00563378       0.01067771
H        9.76045965       2.45440325      11.22942317      -0.00868341       0.00493371       0.00785270
H        9.78988654       4.15811682      10.74723614      -0.00648252       0.00597408       0.01222453
H        9.40886350       2.90534307       9.55665028      -0.00674000       0.00970963       0.00884636
H        6.87870232       4.05196105       9.38929746      -0.00433991       0.00731219       0.00621310
O       10.97442927      11.69721910       7.12001744       0.01608694       0.00339350       0.00300086
C       11.15391767      10.80711688       8.22935188       0.00858502       0.00262776       0.00363904
C        9.97268212      10.89113644       9.17876086       0.00162989       0.00421045      -0.00387040
C       11.39081575       9.38292747       7.77039893       0.01046505       0.00259918       0.00602719
H       12.04545386      11.19203038       8.73544632       0.01039481       0.00266512       0.00013795
H       10.13561554      10.24041225      10.03936932      -0.01097912       0.00023655      -0.00451899
H        9.81712737      11.91482878       9.52314393       0.00114334       0.00340541      -0.00279848
H        9.06337991      10.54986072       8.67643000       0.00295129       0.01006200      -0.01079067
H       11.55254226       8.71848267       8.61960568       0.00504094       0.00099130       0.00598845
H       12.25357299       9.31414516       7.11118581       0.01672707       0.00594195       0.01432259
H       10.53426664       9.00132317       7.21145616       0.01505350       0.00370759      -0.00143792
H       10.23493503      11.35997864       6.60349045       0.01785906       0.00700434      -0.00113136
O       11.00636846       6.07537480       7.15411900       0.00890541       0.01297694       0.00153506
C        9.84821255       5.60956254       7.82381538       0.01222301       0.01016503       0.00230801
C        9.47187463       6.53037197       8.98052130       0.00552751       0.01151532      -0.00095433
C        8.67721916       5.41113726       6.87223560       0.01324004      -0.00055401       0.00326967
H       10.12630947       4.63556351       8.24099952       0.01784322       0.01341438       0.00638798
H        8.64376283       6.11507590       9.55677928       0.00746301       0.00859061      -0.00048520
H       10.32632456       6.66766615       9.64585535       0.00385360       0.01865865      -0.00045875
H        9.17939538       7.50945768       8.59387512       0.00005106       0.00839724      -0.00427088
H        7.86972179       4.87381940       7.37193511       0.01578862      -0.00178373       0.00575988
H        8.97754271       4.85555498       5.98378446       0.01706909      -0.00410075       0.00682569
H        8.27711306       6.37319332       6.54696474       0.00957712      -0.00430425      -0.00236463
H       10.74721452       6.66286130       6.40732212       0.00528881       0.01415470       0.00032057
O        4.10492602       5.00046674       0.97945303       0.00682959      -0.01236731      -0.00997871
C        4.49802192       6.31589616       1.40652370       0.00654368      -0.01343161      -0.00721456
C        5.91901228       6.62491366       0.97449604       0.00442958      -0.01047398      -0.01132631
C        3.49461639       7.34878315       0.91830999       0.00377965      -0.01311058      -0.00016075
H        4.44998623       6.27560979       2.49753038       0.01059118      -0.01671199      -0.00737864
H        6.19855220       7.64091617       1.25687794       0.00318491      -0.01005796      -0.01263215
H        6.62692360       5.93561435       1.43493001       0.00690900      -0.00903431      -0.01319864
H        6.01847963       6.53218950      -0.10995289       0.00126739      -0.01086318      -0.01129001
H        3.76212600       8.34589823       1.27196194       0.00389018      -0.01395041       0.00152653
H        2.49128979       7.10658900       1.27074456       0.00563987      -0.01528957       0.00337298
H        3.47230702       7.37730460      -0.17269599      -0.00051337      -0.01019773       0.00018480
H        4.17904948       4.97350504       0.01668133       0.00437626      -0.00954656      -0.01023573
O        7.52450131       9.81176144       1.82860920      -0.01250917      -0.00007549      -0.02749246
C        8.89329490       9.88548941       1.47443320      -0.00495416      -0.00425667      -0.00122082
C        9.33912308       8.66220133       0.68743620       0.00788765      -0.00557542       0.00931737
C        9.00603807      11.17175097       0.68010010       0.01081359      -0.00390810       0.00175287
H        9.50239359       9.96421889       2.39157968      -0.02335876      -0.00650767       0.01009327
H       10.36579855       8.77598403       0.32270733       0.01936648      -0.01182474       0.04078706
H        9.30052685       7.76852717       1.31302931      -0.01478026      -0.00573409       0.00735694
H        8.68521200       8.52644475      -0.17727772       0.03208674      -0.00109684      -0.00928463
H       10.04084291      11.37645742       0.28791445       0.00995963      -0.01725408      -0.00941607
H        8.67695490      12.03120962       1.26263310       0.01878204      -0.00260231       0.00435048
H        8.42318612      11.10403329      -0.23957452       0.00548030       0.00450826       0.00443096
H        7.43523242       9.19559226       2.56952588      -0.02596239       0.01102184      -0.02005341
