148
Lattice="12.161110094382789 0.0 0.0 0.0 12.161110094382789 0.0 0.0 0.0 12.161110094382789" Properties=species:S:1:pos:R:3:forces:R:3 energy=-226589.1875 stress="-0.0015919458819553256 -5.885475911782123e-05 0.00032230152282863855 -5.885475911782123e-05 -0.0001685533788986504 -0.0010570218437351286 0.00032230152282863855 -0.0010570218437351286 -0.0013157129287719727" pbc="T T T"
Ag      13.10802647      13.40111608       0.67119229      -0.00684162       0.00359903       0.00792983
Cl      10.60660071      11.77115553       1.10259576      -0.01976556       0.00819802       0.00387758
O       12.16808174      11.46420155       1.18696370      -0.01946425       0.00177161      -0.02582346
O       10.39272236      12.98826556       0.14589789      -0.04176199      -0.00086802      -0.00078624
O        4.21211368       7.44803584       6.77883156       0.00796926       0.00063008      -0.00247552
C        5.11622042       8.52730090       7.01257302       0.00143868       0.00220895      -0.00233853
C        6.29589697       8.31273506       6.08407764       0.00229019       0.00210166      -0.00204241
C        4.47441398       9.88864722       6.81300460       0.00180286       0.00140196      -0.00339521
H        5.46921236       8.47029898       8.05297881       0.00249861       0.00307191      -0.00235873
H        7.07420510       9.05847951       6.25116093       0.00257979       0.00263944      -0.00124695
H        6.71571596       7.31579121       6.24125863       0.00240610       0.00262204      -0.00250988
H        5.96234863       8.38079785       5.04693204       0.00345975       0.00318010      -0.00197008
H        5.18607578      10.68033254       7.05312653       0.00050277       0.00189963      -0.00317796
H        3.60473843      10.00534923       7.46165256       0.00068484       0.00091287      -0.00472662
H        4.14525050      10.00955618       5.77843239       0.00292141       0.00017512      -0.00394319
H        3.30351677       7.76165928       6.90515321       0.00073300       0.00056056       0.00320792
O        1.64564728       8.35645404       6.35619174       0.00265324      -0.00599194       0.00303459
C        1.67814024       8.19826895       4.92443970      -0.00066617      -0.00108364       0.00748894
C        1.30570731       6.77338225       4.55551642       0.00433199      -0.00012106      -0.00085326
C        0.81359030       9.25681012       4.26690744      -0.00089890      -0.00099659       0.00823027
H        2.72366216       8.37455939       4.66739988      -0.00018179       0.00210942       0.00868338
H        1.33045876       6.62544181       3.47630092       0.00689522       0.00471304      -0.00140257
H        1.99631468       6.07022251       5.02371529       0.00471900      -0.00078344      -0.00244871
H        0.29350788       6.54148297       4.89519189       0.00403842      -0.00336463      -0.00415341
H        0.84828321       9.19669092       3.17881944       0.00153179       0.00289099       0.00815907
H        1.14042258      10.25452378       4.56169014      -0.00489195      -0.00117587       0.01297651
H       -0.22761474       9.13780882       4.58352399      -0.00089496      -0.00564411       0.00580114
H        0.75196615       8.15967204       6.65453566      -0.00453427      -0.00953070       0.00463678
O        3.35983441       1.93469420       4.23843929       0.00012004      -0.00745133       0.01109537
C        2.87140771       1.72544056       2.91766440      -0.00167046       0.00261997       0.01057500
C        2.79170551       3.04658747       2.16366323       0.00242620       0.00728852       0.01890577
C        3.69391588       0.68752403       2.16556330      -0.00753772       0.00353932       0.00339767
H        1.85893382       1.32899413       3.06746187      -0.00303206       0.00576825       0.00959834
H        2.37115150       2.93097873       1.15182569      -0.00377663       0.01544253       0.02097446
H        2.17013299       3.76722638       2.69471735       0.00995354       0.00726569       0.02752875
H        3.79425848       3.46990452       2.03762985       0.00434479       0.00219722       0.01745396
H        3.23425992       0.43845869       1.19863524      -0.00957716       0.01201164       0.00221030
H        3.77826202      -0.23709486       2.73542642      -0.01191118      -0.00043108      -0.00268781
H        4.69971336       1.06349680       1.95901816      -0.00586176      -0.00046413       0.00443637
H        4.21134460       2.38042438       4.17705788       0.00345837      -0.01256558       0.01290460
O        8.27710079       7.25565134      11.32778212      -0.00561681      -0.00012279       0.00324326
C        7.94083343       8.48646704      10.66860135       0.00133407       0.00103563       0.00289151
C        8.13858214       8.36635792       9.17085643       0.00575931       0.00169685       0.00348616
C        6.53126601       8.92690642      11.02382714       0.00228029       0.00667188      -0.00117345
H        8.65570976       9.21031915      11.07032563       0.00291711      -0.00215754       0.00572547
H        7.89273393       9.30472392       8.66932136       0.01224218       0.00344154       0.00384291
H        9.16867979       8.09609514       8.94152305       0.00505134      -0.00319631       0.00668441
H        7.47984594       7.59245776       8.76578406       0.00335491       0.00548907       0.00036043
H        6.30361493       9.89239740      10.56828235       0.00808167       0.00828183      -0.00038535
H        6.41601540       9.00428517      12.10582005      -0.00052493       0.00565846      -0.00138697
H        5.80621289       8.19921999      10.64408681       0.00034796       0.01047280      -0.00438942
H        7.69679522       6.57234552      10.97576572      -0.00846286       0.00212133       0.00109252
O        4.13713835       2.36979533      11.17979003      -0.01447192      -0.00516689       0.01273674
C        4.38239800       3.60528077      10.48691575      -0.01053960      -0.01132882       0.00581383
C        3.24988818       4.59033013      10.71194553      -0.00808233      -0.00693503      -0.00207660
C        5.72871846       4.18470417      10.89177082      -0.00968480      -0.01137584       0.00197476
H        4.40993650       3.32208362       9.43410817      -0.01079562      -0.01913463       0.00769681
H        3.40873509       5.50058390      10.12877836      -0.00699852      -0.01254803      -0.01022162
H        2.29392071       4.15424746      10.42152929      -0.00946264      -0.00728822       0.00339008
H        3.19578092       4.87009419      11.76529610      -0.00559984       0.00237502      -0.00451671
H        5.92593637       5.10591038      10.33500171      -0.00648292      -0.01700288      -0.00573956
H        6.53422746       3.47848652      10.69944544      -0.01096202      -0.01482533       0.00949170
H        5.73477467       4.43539616      11.95561336      -0.01078482      -0.00180382      -0.00038414
H        4.31702009       2.52628503      12.11180132      -0.00871047       0.00035794       0.01388550
O       10.53561518      12.15163469       7.39342366       0.01779696       0.01675665      -0.01054680
C       10.72337048      11.15229425       8.40536678       0.00632429       0.01843044      -0.00852481
C       11.36733629       9.92085300       7.79694091      -0.00358507       0.01081467      -0.00249097
C       11.53872032      11.68343587       9.56907503       0.00597620       0.01348725      -0.00623906
H        9.71013044      10.92045344       8.74216040       0.00257337       0.02834097      -0.01219089
H       11.48343280       9.13074197       8.54391067      -0.01247170       0.01295641       0.00077716
H       10.76596028       9.54501615       6.96800742      -0.00494379       0.01285268      -0.00231773
H       12.36307319      10.17161295       7.42211325      -0.00069761       0.00058676      -0.00133026
H       11.65912383      10.91924804      10.34076744      -0.00638136       0.01566124      -0.00266944
H       11.05619269      12.54195332      10.03032273       0.01371652       0.02085076      -0.01222245
H       12.53886250      11.96905139       9.22695595       0.01094003       0.00056752      -0.00215088
H       11.41117412      12.40532502       7.08538008       0.02442762       0.01247396      -0.00483641
O        8.96096281       5.00784797       5.24819060       0.00647855      -0.00842461       0.00224391
C        9.85409222       5.36689925       6.30963665       0.00383982      -0.00345537       0.00230989
C       10.08579002       6.86584502       6.33588609      -0.00021737      -0.00286859      -0.00021591
C        9.35089827       4.85286670       7.64504377       0.00504106      -0.00279117       0.00285745
H       10.78871508       4.85854679       6.05466714       0.00565127      -0.00109160       0.00374859
H       10.82299076       7.12152153       7.09963295      -0.00129448       0.00077043      -0.00055687
H       10.43898844       7.22262989       5.36779928      -0.00108549      -0.00376155      -0.00073643
H        9.16291697       7.39629661       6.57919812      -0.00174510      -0.00496793      -0.00142764
H       10.05370844       5.08964133       8.44598407       0.00368440       0.00117133       0.00279336
H        9.20480326       3.77533202       7.61622516       0.00908595      -0.00331998       0.00493898
H        8.39445879       5.32257623       7.89288514       0.00335541      -0.00569959       0.00163852
H        8.11010796       5.42183227       5.43215589       0.00304326      -0.01345511       0.00346275
O        4.08432546       8.92781204       1.62310536      -0.00528799       0.00691110       0.00658500
C        3.76333169       7.54730680       1.81758521      -0.00849610       0.00637263      -0.00015989
C        2.44924646       7.19751319       1.13907586      -0.00488520       0.01144686      -0.00924540
C        4.89326382       6.64701616       1.35188476      -0.00712603       0.00664696       0.00316593
H        3.65995004       7.44814795       2.90118145      -0.01514995       0.00221837      -0.00178885
H        2.16126256       6.16427483       1.34698510      -0.00786133       0.01136018      -0.01424751
H        1.64871082       7.85720587       1.47139758      -0.00548430       0.01175708      -0.01156418
H        2.54509237       7.29694658       0.05449478       0.00165123       0.01480718      -0.00816527
H        4.70030169       5.61238031       1.64443131      -0.01174365       0.00555789      -0.00409289
H        5.84229383       6.95672257       1.78367232      -0.00993285       0.00192172       0.01245269
H        4.98253112       6.67703873       0.26414688       0.00164521       0.01248730       0.00420122
H        4.13819152       9.08090826       0.67392861       0.00157574       0.01045314       0.00937827
O        6.95296466       0.09281868       7.98497786       0.00514032      -0.00722182      -0.00714481
C        6.92892082       1.32089616       8.71975141       0.00100058      -0.00913501      -0.00226872
C        8.28652862       1.58289705       9.35778473      -0.00027829      -0.00896160       0.00033033
C        6.48720589       2.46656064       7.81951570       0.00268658      -0.00745964      -0.00138754
H        6.18186580       1.16955430       9.50533301       0.00052023      -0.01075950      -0.00524074
H        8.30845274       2.54249488       9.88027388      -0.00311110      -0.00992356       0.00210098
H        8.53823822       0.80488041      10.07891367      -0.00108617      -0.00949201       0.00013520
H        9.06220571       1.59156954       8.59062177       0.00124300      -0.00620567       0.00232311
H        6.44815153       3.41024269       8.36431574      -0.00237109      -0.00978118       0.00261351
H        5.50230166       2.26389674       7.39484504       0.00503141      -0.00820278      -0.00605756
H        7.19330787       2.58240644       6.99742119       0.00591657      -0.00207752       0.00279523
H        7.37736034       0.27780790       7.13342523      -0.00531445      -0.00449897      -0.00661725
O        9.49414295       9.63917092       2.89709746       0.00794563       0.00442353       0.00854248
C        9.28586431       8.51190034       2.03326375       0.00399226       0.01050323       0.00281275
C       10.60542865       7.92791380       1.56227724       0.00107455       0.00919819      -0.00311664
C        8.40959357       7.47078102       2.70399106       0.00040352       0.01015866      -0.00275266
H        8.75103500       8.92747213       1.17805824       0.00447035       0.01826015       0.00599968
H       10.42931450       7.13683252       0.83267805      -0.00293050       0.01364630      -0.00680241
H       11.22848990       8.69889050       1.10558725       0.00217599       0.00990798      -0.00028524
H       11.15054205       7.49752589       2.40888137       0.00155928       0.00272342      -0.00675467
H        8.14769921       6.69106720       1.98813678      -0.00226887       0.01477562      -0.00653969
H        7.49578128       7.92967367       3.08216796       0.00213630       0.01172803      -0.00069861
H        8.93334895       6.99751068       3.53773812      -0.00117062       0.00474660      -0.00475529
H       10.10437917       9.37108954       3.59035795       0.00960486      -0.00207485       0.00653969
O       11.61481103       3.05103112       0.85676022      -0.01851602      -0.01252320      -0.02441898
C       10.93249390       3.71549719       1.94580681       0.00441569      -0.00452933      -0.01598959
C        9.50579870       3.98460578       1.50070878       0.00255400       0.01330105       0.00543763
C       11.00040047       2.89672575       3.22562636       0.01290254      -0.00377616      -0.01676452
H       11.45874486       4.66344885       2.09179624       0.01731640      -0.01090056      -0.02573372
H        8.93979316       4.47111986       2.29468276       0.02379443       0.02460828       0.01297644
H        9.49486245       4.62330131       0.61674698      -0.00351801       0.00970449       0.00329661
H        9.01366946       3.04146276       1.24943338      -0.01445202       0.01913819       0.01954685
H       10.36206079       3.34641615       3.99000126       0.02949134       0.00391821      -0.00804365
H       12.01917717       2.84798237       3.61399507       0.01762760      -0.01579527      -0.03166367
H       10.65635774       1.87575493       3.03979067      -0.00164014       0.00014016      -0.00987937
H       11.00327338       2.31683150       0.57910132      -0.02610263      -0.01139921      -0.01459015
O        7.79302055       0.95823212       5.25025484      -0.00163519      -0.02222932       0.00052783
C        6.96329792       1.28024480       4.12471281       0.00331928      -0.01942435      -0.00217062
C        6.70589110       2.78098804       4.04971433       0.00602908      -0.01907051      -0.00118074
C        7.58027141       0.74816745       2.84484833       0.00642815      -0.01840290      -0.00090033
H        6.02413845       0.76019710       4.33159744       0.00211513      -0.01844364      -0.00592099
H        6.09525696       3.02592579       3.17450899       0.00701287      -0.01743776      -0.00125863
H        6.20397829       3.14376525       4.94892623       0.00608379      -0.01909150      -0.00124711
H        7.64520168       3.32742717       3.95397639       0.00686876      -0.02037029      -0.00046761
H        6.94490826       0.95835674       1.98266363       0.00581571      -0.02224690      -0.00134648
H        7.75342207      -0.32564206       2.90715925       0.01099982      -0.01749900       0.00056817
H        8.53901394       1.23820211       2.66186600       0.00433347      -0.01460648      -0.00118182
H        8.69594051       1.22753169       5.05079318      -0.00071232      -0.02023131       0.00699107
