149
Lattice="12.490238053454895 0.0 0.0 0.0 12.490238053454895 0.0 0.0 0.0 12.490238053454895" Properties=species:S:1:pos:R:3:forces:R:3 energy=-277444.15625 stress="-0.0002619608130771667 -7.135341775210691e-06 0.0011528158793225884 -7.135341775210691e-06 -0.0014606566401198506 0.0001676228130236268 0.0011528158793225884 0.0001676228130236268 -0.0006686684209853411" pbc="T T T"
Ag      12.37720208      11.65690525      -1.14550667       0.02092454      -0.01026614       0.00432679
Cl      12.36871635       9.18764436       1.05430507       0.02112281      -0.00733483       0.00573742
O       11.17745916       8.72623957       1.77610450       0.02575743      -0.01027155       0.01233649
O       13.09420824       8.03402457       0.51570967       0.01740944      -0.00553751      -0.00264025
O       11.74666246       9.93565830      -0.18113627       0.01214004      -0.00321329       0.01369607
O        9.08392437       2.09750915       4.62517266      -0.00178817       0.02274507       0.01474136
O        8.00336000       4.06394199       4.70140998      -0.02891791       0.00774139      -0.00531083
C        9.74631612       3.73802591       3.05996388      -0.01816577       0.01933759       0.00485265
C        8.83873907       3.36989577       4.18566444      -0.01780063       0.01560146       0.00438356
H       10.72175871       4.01220454       3.47068947      -0.01839374       0.02006478       0.00441089
H        9.89607583       2.88639727       2.39713684      -0.01596607       0.01996113       0.00469200
H        9.33855691       4.58244653       2.51195737      -0.02067724       0.01820642       0.00520883
H        8.42833149       1.93206226       5.31740312      -0.00278920       0.01730753       0.01267689
O        7.84265415      10.53731338       0.65935915      -0.00222278      -0.00372490       0.01007751
O        7.31659387      11.77822505       2.43899221       0.00254422       0.00195768       0.00759196
C        9.59262038      11.73948014       1.70851542       0.00173384      -0.00695989       0.00487763
C        8.15116271      11.37825833       1.65189727       0.00049776      -0.00223780       0.00814089
H       10.11077251      10.94473625       2.24982709       0.00306086      -0.01273529      -0.00506108
H       10.02149691      11.79294616       0.71105862      -0.00342190       0.00042919       0.00313003
H        9.70569979      12.67168885       2.25475116       0.00726960      -0.01165225       0.01134495
H        6.86746620      10.42778244       0.64293230      -0.00225672      -0.00071633       0.00967862
O        5.31381987       0.98743032       2.76813836      -0.00484347       0.00071841       0.00020164
O        6.21391024       2.99409240       2.29230785       0.00997257      -0.01061159      -0.01996732
C        3.83730302       2.67493161       2.08918708       0.00644648       0.00981957      -0.00486620
C        5.24857477       2.27104719       2.40158095       0.00269759      -0.00254011      -0.00938447
H        3.74915983       2.68531746       1.00071420       0.00338609       0.01489306      -0.00442922
H        3.12387269       1.96288016       2.49396056       0.00108626       0.01559153      -0.00437479
H        3.62989252       3.68195449       2.43972045       0.01582815       0.01050466      -0.00136383
H        6.23807784       0.65796593       2.77522908      -0.00678891      -0.00456954      -0.00080955
O        4.11026586       5.13869971      -0.00450313       0.00480872       0.00354888      -0.03596982
O        3.55254996       7.25240570      -0.42019265       0.00819862       0.01090959      -0.00314087
C        5.79846068       6.74855075       0.29823528       0.00610447      -0.00410049      -0.00792328
C        4.39000406       6.44488840      -0.05998381       0.00607947       0.00400025      -0.01515219
H        6.12825539       6.17063540       1.15758581       0.00055163      -0.01202133      -0.01122621
H        6.43929593       6.45045984      -0.53372704       0.00835840       0.00011428      -0.00752361
H        5.91568098       7.81123690       0.48515322       0.00918004      -0.00642943       0.00200564
H        3.20363650       5.01134336      -0.32494101       0.00537038       0.00868968      -0.03977636
O       11.93416224       0.23412505       7.57288632       0.00011796      -0.00238687       0.00145948
O       12.47333473       0.54297350       9.70746269       0.00879611      -0.01275499       0.00060825
C       10.34855254       1.34281761       8.92818514       0.00549641      -0.00989577       0.01311556
C       11.67793187       0.68810193       8.77237460       0.00490822      -0.00863849       0.00453147
H        9.94879094       1.69299900       7.98084808      -0.00165039      -0.01547937       0.01464799
H        9.66903528       0.58869581       9.33227284       0.00977871      -0.00819588       0.02297270
H       10.41013726       2.15866110       9.64340494       0.01007573      -0.00544590       0.00761259
H       12.66093570      -0.44796966       7.63212406       0.00378424       0.00227046      -0.00563739
O        7.05814629       0.83621093      12.38689699       0.00324798      -0.00557017       0.00021646
O        5.66696670       2.33472044      11.46240111      -0.00157154      -0.02490444      -0.02010775
C        7.94714766       2.97112402      11.91884846      -0.01606423       0.00253576      -0.00068237
C        6.75947876       2.05720705      11.89478713      -0.00597215      -0.01134402      -0.00896072
H        8.80224196       2.49951087      12.39696764      -0.01075907       0.01030342      -0.00351176
H        8.19537846       3.23852007      10.88987546      -0.02046738       0.01716306       0.00227061
H        7.69226448       3.88667618      12.45042365      -0.02967065      -0.00713658       0.00894856
H        6.26498930       0.27304200      12.34648680       0.00884259      -0.01397610      -0.00269829
O       12.01552211       3.17890736       7.28402653      -0.03083885       0.01073381      -0.02380478
O       10.81991850       4.92616184       6.54464424      -0.00874001       0.04031646      -0.01144689
C       11.90093127       5.06431223       8.69394498       0.00602977      -0.00390431      -0.00740886
C       11.51365535       4.43479187       7.39736071       0.00443238       0.01073721       0.00865608
H       11.27224239       4.64048932       9.47975568       0.01121943      -0.00678155      -0.00352167
H       12.93709201       4.84575116       8.95145220       0.00770965      -0.01380889      -0.01466796
H       11.71130380       6.13346625       8.64942383       0.01729155      -0.00118601       0.00940067
H       11.67287573       2.80872695       6.45563740      -0.03534707       0.02361602      -0.02538103
O        2.88037887       5.94072587       3.19884256       0.00683486       0.01271355      -0.00299096
O        4.38172913       7.56270953       2.84829921       0.01454249       0.00377631      -0.00097281
C        4.90968636       5.79399933       4.40138814       0.00826830       0.00095722      -0.00557077
C        4.07231010       6.54675223       3.42042916       0.01041849       0.00780022      -0.00407580
H        4.30653710       5.42947340       5.23244992       0.00702819      -0.00870568      -0.01119652
H        5.36106497       4.93042405       3.90283743       0.01485147       0.00761217      -0.01083285
H        5.71753495       6.42316802       4.76147264       0.00459558       0.00082171       0.00272869
H        2.39239034       6.47539127       2.55179768       0.01076938       0.01544416      -0.00397307
O        4.79694826      10.42043505       7.73678104       0.00179112      -0.01817468      -0.00832379
O        3.66844050       8.61800476       8.40796752       0.00284469      -0.01403451       0.00471862
C        5.73444342       9.14604791       9.50526840       0.00152135      -0.00547989       0.00155425
C        4.63558510       9.33762990       8.51254787       0.00313562      -0.01178610      -0.00062579
H        6.69376673       9.42323142       9.07560448       0.00099906       0.00049332       0.00466996
H        5.54306120       9.76287507      10.38698210      -0.00478867      -0.00709102       0.00119244
H        5.73848521       8.10919588       9.82871104       0.00683898      -0.00550239       0.00124429
H        4.09678743      10.36352174       7.05793160       0.00123471      -0.02240682      -0.00816613
O        3.05141519       9.74472852       0.22645101       0.00571098       0.01319742      -0.00625589
O        5.13915358      10.55392089       0.06844506       0.00214028       0.02380718      -0.00415955
C        3.31420159      12.02884111       0.58608017      -0.00690210       0.01633662      -0.01775557
C        3.93840509      10.70981139       0.27518857      -0.00001121       0.01810902      -0.00926196
H        2.55818155      12.25811624      -0.16747000      -0.01713131       0.00273769      -0.01149695
H        2.83066500      11.95211974       1.55887766       0.00362466       0.02276178      -0.01209539
H        4.06049693      12.81251916       0.61100107      -0.01297517       0.02256171      -0.03512390
H        3.44094271       8.85364555       0.01105290       0.00976253       0.01389840      -0.00034194
O        2.20362002      10.98585465       9.75712862       0.01410425      -0.00319481      -0.01195657
O        0.96184522      10.57951992       7.94053499       0.01662786       0.00197777      -0.01459932
C        1.02837012       8.92644173       9.68855559       0.00246316       0.00373805      -0.01289999
C        1.38266529      10.21179232       9.02650737       0.01218617       0.00087679      -0.01338696
H        1.43247078       8.11885243       9.07980921      -0.01886329      -0.00034171      -0.02092190
H        1.42983279       8.85310776      10.69524911       0.01351213      -0.00642150      -0.01829940
H       -0.05701297       8.82992637       9.72506938       0.00161737       0.01981643       0.00094684
H        2.37762471      11.80063197       9.25618145       0.01986417      -0.00429332      -0.01204365
O        9.86881055       7.70722626      11.48598919       0.00119257      -0.00537974       0.00998857
O        8.82147726       6.33179116      12.91730964       0.00460041       0.00151445       0.01987714
C       11.00972877       5.74263713      12.13655871       0.00037140      -0.00579458       0.01074294
C        9.78312006       6.59124946      12.23548098       0.00409794      -0.00260958       0.01339108
H       11.64960254       6.04227751      11.31301125      -0.00194120      -0.00851886       0.00793280
H       11.57217770       5.89364236      13.05904750       0.00434713      -0.00725945       0.00841993
H       10.72805012       4.69315382      12.07093547      -0.00277388      -0.00505824       0.01239958
H        9.15627580       8.30274982      11.76685138       0.00185883      -0.00487946       0.00986964
O       12.59129364       9.48282720       4.47738396       0.02562235      -0.01672566       0.01442659
O       10.37698744       9.79963540       4.61692004       0.03084320       0.00862402       0.00726255
C       11.22846847       7.54507196       4.49941730       0.00169022      -0.00077963       0.01314627
C       11.30231686       9.03324333       4.52792951       0.01957422      -0.00065124       0.01161747
H       11.86117723       7.14469493       3.71107052       0.00431488      -0.01171519       0.02115290
H       11.56850880       7.13419984       5.45156268      -0.01664534      -0.00249609       0.01827617
H       10.20144792       7.22791492       4.34754313      -0.00077853       0.01382910       0.00204485
H       12.53598111      10.44993987       4.46626337       0.03431338      -0.01598614       0.00831934
O        6.67172759       2.28459966       8.28630885      -0.01009941      -0.01745778      -0.01148957
O        4.72461911       1.15328982       8.24718415      -0.01278138      -0.01257054       0.00904168
C        6.68748452       0.06856817       9.08421677      -0.01095721      -0.01166916       0.00406411
C        5.91072904       1.20550273       8.51331441      -0.01170695      -0.01410511       0.00106758
H        7.05733281      -0.55095690       8.26306399      -0.02067912      -0.02025864       0.00651577
H        7.52404849       0.42184251       9.67973537      -0.00445762      -0.00980613      -0.00644289
H        6.02861054      -0.55424148       9.67881105      -0.00843321      -0.00286679       0.01593049
H        6.10010838       3.01098724       7.96716848      -0.01046482      -0.01784748      -0.01083556
O        4.29081949       3.68996774       7.81268013      -0.01250558      -0.01415670       0.00634450
O        2.58550064       3.76611069       9.26906299       0.00113690      -0.00568283       0.01884520
C        3.91915759       5.73598793       8.91477514      -0.00902872      -0.00675803      -0.00718579
C        3.50749306       4.32015106       8.71892673      -0.00811327      -0.01033688       0.00853449
H        4.97071751       5.77953896       9.20365988      -0.00955519      -0.00183823      -0.00662343
H        3.82785035       6.28625430       7.97993114      -0.00940822      -0.01764159      -0.01318781
H        3.30801086       6.22428571       9.66582003      -0.01057927      -0.00002459      -0.01310904
H        4.11121772       2.71713240       7.86408162      -0.01068622      -0.01449993       0.01390609
O        1.61564323       5.18723651       5.87729864       0.00035396       0.00731808      -0.01131554
O        0.39230736       4.64683600       4.07485735       0.00757277      -0.02407694      -0.00850224
C        1.86599231       3.00049167       5.02447089       0.01521301      -0.00239593       0.02121415
C        1.20180130       4.33450760       4.90967022       0.01137012      -0.01020122       0.00247324
H        2.93624857       3.11445226       4.85158287       0.01430440      -0.00097616       0.01623863
H        1.73879580       2.59784483       6.02882724       0.01932636       0.01504905       0.02858555
H        1.44773090       2.32808198       4.28144592       0.01530018      -0.01721209       0.03485489
H        1.18621348       6.03610864       5.69656449      -0.00264090       0.00176060      -0.02699453
O        9.74175303      10.71213192       7.46359651       0.00342226      -0.00367492       0.00652087
O        7.96059907       9.45048573       6.94885422       0.00567877       0.00122757      -0.00479764
C        9.98791755       8.38175686       7.70649423      -0.00673237      -0.00355774       0.01467815
C        9.10684440       9.52328035       7.31241042      -0.00143820      -0.00125883       0.00381681
H       11.02891235       8.61457540       7.48716859      -0.00510108      -0.01028890       0.01687748
H        9.90002818       8.22335380       8.78496808      -0.01073630       0.00304181       0.01507488
H        9.67607130       7.47448550       7.19637118      -0.00916770      -0.00471655       0.01859169
H        9.16066821      11.37907407       7.07252547       0.00946462      -0.00252578      -0.00127357
O        3.35694986       9.51187441       5.44405526      -0.01968521       0.03087658       0.00325303
O        3.23885497      10.58704496       3.48191450      -0.01673067       0.00145528      -0.01171708
C        5.41084121      10.06287579       4.40582498      -0.01885027       0.01240181      -0.00274868
C        3.92366458      10.10183566       4.34426455      -0.01936460       0.01545614      -0.00545651
H        5.77618412      10.53282356       5.31984118      -0.01806672       0.01096381      -0.00259386
H        5.74531208       9.02641829       4.43313069      -0.02297909       0.01103058      -0.00338724
H        5.83148446      10.55982114       3.53973074      -0.01675972       0.00959417      -0.00313322
H        2.39464424       9.51974638       5.31499016      -0.01988488       0.02662420       0.00396629
