142
Lattice="12.19281666476026 0.0 0.0 0.0 12.19281666476026 0.0 0.0 0.0 12.19281666476026" Properties=species:S:1:pos:R:3:forces:R:3 energy=-473576.25 stress="-0.001674448954872787 -0.00028505141381174326 0.0002480786934029311 -0.00028505141381174326 -0.0016836092108860612 0.0004878119798377156 0.0002480786934029311 0.0004878119798377156 -0.0019424218917265534" pbc="T T T"
Ag      12.05797107      12.42492724      -0.55601954      -0.00361528      -0.00756364      -0.00329868
I       12.51716582      10.46079393       1.16933019       0.00546194       0.00080992       0.00181088
O        5.84094283       8.72997513       8.98903674      -0.00562672       0.01010293       0.00392869
O        6.36517726      10.67715832       9.95298920       0.00695878       0.00776330      -0.00190828
O        5.03029031       9.20913963      11.04534980       0.01607454       0.02695981      -0.02018631
C        6.79988936       9.33910884       8.12648234      -0.00446182       0.00122243      -0.00212157
C        6.80865014      10.78432646       8.59514430       0.00914946       0.00405848      -0.00193252
C        5.67116729       9.50909591      10.09937445      -0.01848429       0.00414962       0.02895230
H        6.48519422       9.19904030       7.09583616      -0.01049386       0.00464790       0.00194964
H        7.76902759       8.85403375       8.27354301      -0.00854686      -0.00546449      -0.00464915
H        7.79394601      11.24921189       8.59229514       0.01156515      -0.00679050      -0.00166426
H        6.09342422      11.39165696       8.03842735       0.01386079       0.00841719      -0.00164407
O        5.13569304       1.67688767      10.20719760      -0.02793416       0.01084308      -0.01969501
O        5.16176159       1.35577615       8.00435206       0.01537399       0.00627501      -0.01798853
O        3.64162466       0.28139722       9.26843206      -0.00007474       0.00298548      -0.02751002
C        6.19395067       2.53482356       9.74352397      -0.01439583       0.00225112       0.00429028
C        6.27750265       2.22391526       8.24278972       0.00753555       0.01212153       0.00329930
C        4.56377548       1.03341232       9.17920576      -0.00528079       0.00787735      -0.02727849
H        7.10306097       2.28147159      10.28785285      -0.02639234      -0.01025344       0.01766762
H        5.90818130       3.56156318       9.96539528      -0.00798097       0.00268066       0.00723176
H        6.17455713       3.09824062       7.60214546       0.01153950       0.01583111       0.00820133
H        7.19103061       1.68430589       7.98566868       0.01441267       0.01971239       0.01227266
O       10.45420731      10.21379716      10.10894808       0.00897321       0.00535032      -0.00230087
O       12.29655852       9.29370996       9.28597038      -0.00213242      -0.00432357      -0.01553917
O       12.02889373      11.52553704       9.19144284       0.00724092      -0.00312090      -0.01651877
C       10.28139870       8.79455997      10.31479285       0.00395030       0.00621510      -0.00151251
C       11.66972126       8.23449219      10.05747506       0.00080350       0.00179011      -0.00482291
C       11.63449488      10.42965165       9.50147607       0.00540391      -0.00053859      -0.01233420
H        9.53583544       8.43910299       9.60231065       0.00133368       0.00935704      -0.00034526
H        9.91976093       8.63033703      11.32444398       0.00543890       0.00799622      -0.00099018
H       12.25815975       8.09842169      10.96244907       0.00480050       0.00802071      -0.00657043
H       11.69953636       7.32066751       9.47506300      -0.00350169      -0.00248167       0.00194106
O        8.24389444       7.33943578       6.02043347      -0.00062805      -0.00792229      -0.00007724
O        9.88689293       5.87215373       6.33493901       0.00100558      -0.00540930       0.00027966
O        7.75392226       5.17366509       6.39726988       0.00129515      -0.00757688       0.00848263
C        9.43863396       8.11273639       5.85629878      -0.00163044      -0.00808477      -0.00751311
C       10.56844457       7.11853585       6.15806077      -0.00025469      -0.00554842      -0.00566541
C        8.55281538       6.04672123       6.24596858       0.00234789      -0.00555402       0.00323524
H        9.41129504       8.94335033       6.56299523      -0.00032280      -0.00459678      -0.01158485
H        9.45549262       8.49445703       4.83812002      -0.00522817      -0.01325558      -0.00926799
H       11.28148314       7.00215436       5.34282732      -0.00167874      -0.00827953      -0.00641364
H       11.10364944       7.35102155       7.08004279       0.00116682      -0.00163566      -0.00771505
O        7.86319449      12.97988016       0.82407375       0.00808600       0.01429226       0.00557674
O        7.09775966      10.92239706       1.18594944      -0.01054172       0.02842465       0.03559423
O        5.64922502      12.65222203       1.10136585       0.01127172       0.03767347       0.01606720
C        8.99913122      12.10933695       0.65775566      -0.00495201      -0.00056779      -0.00942233
C        8.52505973      10.80916743       1.27625940      -0.01036963       0.00859201       0.00623414
C        6.75709806      12.22427659       1.03242632      -0.00944507       0.03331468       0.02509471
H        9.85276315      12.55241517       1.16518580       0.00945520      -0.00891486      -0.02739352
H        9.21407429      12.01784895      -0.40348011      -0.02385493      -0.00865238      -0.01260227
H        8.83942666       9.92043969       0.73679531      -0.03490754       0.00156885       0.00421815
H        8.79861836      10.70475910       2.32850283       0.01059113       0.01065068       0.00032836
O        3.27599068       7.83481490       6.12201112       0.00815180       0.00421885       0.00853464
O        2.18428668       8.14369076       4.20640821      -0.00932924      -0.01684687       0.01581987
O        4.09719045       6.94052929       4.22529820      -0.00870275      -0.01510501       0.01060307
C        2.01779418       8.43356581       6.48846645       0.01104371       0.00719284       0.01356298
C        1.55205660       9.01025766       5.16217533      -0.00070249      -0.00703421       0.01206642
C        3.26480215       7.56614287       4.79922004      -0.00371355      -0.00981224       0.01156166
H        2.19072054       9.16921059       7.26803922       0.01751728       0.01538560       0.00424889
H        1.36679222       7.64094560       6.86058713       0.01503211       0.01082855       0.02757511
H        0.47701362       8.97277724       4.99921376      -0.00203460      -0.00921601       0.02301756
H        1.90561905      10.03107438       4.99872325      -0.00244860      -0.00902915      -0.00236355
O        9.54618231       6.42910209       3.14078208       0.00114894      -0.00506064      -0.01350480
O       11.54934840       5.60047324       2.66234039       0.00349516      -0.00289994      -0.00554265
O       10.02826594       4.30324834       3.68067239       0.00172490      -0.00414586      -0.01070476
C       10.14146641       7.42444357       2.28146505       0.00355738      -0.00453502      -0.01079017
C       11.57396784       6.92146202       2.08901598       0.00437742      -0.00350009      -0.00623865
C       10.35464965       5.34874389       3.18832820       0.00192624      -0.00381285      -0.01042099
H       10.09008868       8.39161848       2.77902208       0.00136607      -0.00492176      -0.01046091
H        9.55217909       7.45063041       1.36813013       0.00687602      -0.00419454      -0.01260260
H       11.85603902       6.82105254       1.04451781       0.00781307      -0.00371233      -0.00516832
H       12.32330771       7.50770109       2.61874061       0.00209668      -0.00279126      -0.00425312
O       11.63591536       1.93498320       4.71680064       0.00428635       0.00736654      -0.00531210
O       12.71499882       2.98349718       3.07763800       0.01585230       0.00394069       0.00081500
O       12.83950224       3.78275386       5.18378546       0.00483954       0.00516808       0.00100237
C       11.42143428       1.13278604       3.54603545       0.00442514       0.00946382      -0.00633216
C       11.83908392       2.06066718       2.41535617       0.02004170       0.00435984      -0.00470042
C       12.43605582       2.99218692       4.38837568       0.00774223       0.00483936      -0.00170124
H       10.37078041       0.84842106       3.50773428       0.00190765       0.01990802      -0.01326760
H       12.04371072       0.23863083       3.60079182      -0.00469068       0.00372681      -0.00153584
H       12.39714823       1.54137548       1.63366111       0.02675530      -0.00064117       0.00387631
H       11.00719011       2.62349737       1.98981126       0.02683172       0.00550508      -0.01601633
O        6.31903008       0.47391573       4.39922463       0.00307122      -0.00477292       0.00729437
O        6.38633081       2.67358710       4.74603383      -0.01267907      -0.00313560      -0.00122920
O        4.44087875       1.70513563       4.14131967      -0.00168502      -0.01973259       0.00334841
C        7.61687910       0.73433417       4.94134130       0.00034994       0.00610343       0.00755142
C        7.75504635       2.24580929       4.80233051      -0.00996432       0.00657028       0.00265426
C        5.59456178       1.63209612       4.40076990      -0.00988108      -0.00992763       0.00173956
H        8.35107647       0.17227227       4.36531772       0.00508125       0.00976290       0.01072489
H        7.63099304       0.39855981       5.98199326       0.00146751       0.01030327       0.00874448
H        8.22844317       2.75217403       5.63895882      -0.01527724       0.01210585       0.00178096
H        8.26401928       2.54327343       3.88595645      -0.01068239       0.00678037       0.00258482
O        5.19481199       8.88368197       2.04970389       0.00295174      -0.01278234      -0.00245621
O        7.07978809       8.74241348       3.22311621       0.00246951      -0.00080465      -0.00136262
O        6.93413113       7.69694963       1.23944557       0.01211494       0.00216603      -0.00451732
C        5.03329505       9.82188612       3.12734240      -0.00667056      -0.01753098      -0.00031313
C        6.15641866       9.43355683       4.07905059      -0.00352448      -0.00913668      -0.00116330
C        6.42614504       8.38253383       2.07842059       0.00525418      -0.00248864      -0.00212675
H        4.04394706       9.68592106       3.55010845      -0.00563219      -0.02877306      -0.00141545
H        5.13020724      10.82992792       2.72936641      -0.01598774      -0.01527870       0.00324321
H        6.65944757      10.29386419       4.51269395      -0.01058161      -0.00512537      -0.00089937
H        5.83106325       8.74089952       4.85498358       0.00264885      -0.01255351      -0.00179961
O        1.70211455       3.72541622       9.60581541       0.01119440      -0.01481402       0.01432920
O        1.96803006       4.80467191      11.52908624      -0.01676745       0.00164924       0.00819951
O        1.33019904       5.94511983       9.69469310      -0.00699991      -0.01680100      -0.00631958
C        1.81189261       2.70615446      10.61941392       0.00536017      -0.00622809       0.02356088
C        2.46499733       3.46262649      11.75166310      -0.01077488       0.00665396       0.02363843
C        1.64640602       4.92362662      10.23411777      -0.00436834      -0.01073277       0.00465226
H        2.37785344       1.86860872      10.22179132       0.01416212      -0.00607994       0.03621003
H        0.79165063       2.38736702      10.87804495       0.00384110      -0.00965116       0.01390950
H        2.17079375       3.14568877      12.74799930      -0.01866949       0.01400559       0.02340680
H        3.54819358       3.48388858      11.65990548      -0.01023275       0.01204251       0.03242184
O        6.84288420       4.47674420       0.51600307      -0.00497627       0.00026412      -0.00420666
O        4.98898070       5.19895099       1.50250558      -0.01158434      -0.00317424      -0.01490879
O        5.12389032       5.16680056      -0.74322910       0.00333232       0.00463089      -0.01382649
C        7.03564840       4.19015000       1.91649289      -0.01747370      -0.00916669      -0.00444276
C        5.91752187       4.97478578       2.58738343      -0.02002871      -0.00960356      -0.00937933
C        5.60477700       4.98295591       0.34251648      -0.00364992       0.00095552      -0.01113909
H        8.03051892       4.51948672       2.19886113      -0.01842397      -0.01496148       0.00594264
H        6.93752846       3.11143151       2.04018314      -0.02293196      -0.00939113      -0.01163916
H        5.39985036       4.43390137       3.37045351      -0.02591342      -0.01117909      -0.01433033
H        6.25047340       5.93906755       2.96059827      -0.02146244      -0.01193440      -0.00248110
O        9.70694178       1.17073309       8.64974423       0.00674674      -0.00115377      -0.01250868
O       11.39177971       2.54977172       9.03172952       0.00445206      -0.00208513      -0.00102010
O       10.39341789       1.55031555      10.75837380       0.00056770      -0.01207656      -0.00938517
C       10.35589656       1.34105612       7.36421791       0.00804536       0.00782081      -0.01046807
C       11.25035461       2.54853352       7.59054958       0.00735104       0.00628889      -0.00132620
C       10.49446697       1.74730002       9.56708763       0.00418314      -0.00543131      -0.00776654
H        9.59089768       1.50470114       6.61618547       0.00913560       0.01300886      -0.01017657
H       10.91826451       0.43109914       7.15935232       0.00831020       0.00945565      -0.01617822
H       12.23746847       2.46878994       7.15410390       0.00784487       0.00860384      -0.00032964
H       10.79247376       3.48763026       7.28299353       0.00775012       0.00764307       0.00321819
O        8.69403392       6.33818220      11.15764963       0.01828578      -0.00247155       0.00089580
O        9.24989908       4.30064351      10.47451695      -0.00853489      -0.01134744       0.00734414
O        9.97859261       5.03916874      12.47607642      -0.00050491      -0.01559134       0.00483793
C        7.86548544       6.07135001      10.00036178       0.01504755       0.00500387       0.00202316
C        8.64350202       4.95279282       9.34299945      -0.00058320      -0.00751805       0.00574610
C        9.35411891       5.20540589      11.47012242       0.00356326      -0.01046433       0.00542325
H        7.78553814       6.97741837       9.40714673       0.02891903       0.00384486      -0.00163259
H        6.87517888       5.77536518      10.34690360       0.01080447       0.02023646       0.00189060
H        8.03856019       4.23805605       8.79565291      -0.01097393      -0.00110686       0.00960787
H        9.44357295       5.31616916       8.69462844       0.00356653      -0.02095924       0.00386578
