142
Lattice="12.509615811680737 0.0 0.0 0.0 12.509615811680737 0.0 0.0 0.0 12.509615811680737" Properties=species:S:1:pos:R:3:forces:R:3 energy=-262990.59375 stress="-0.00022591686865780503 -6.54787290841341e-05 -7.262473809532821e-05 -6.54787290841341e-05 -0.00031262802076525986 0.0001059174828696996 -7.262473809532821e-05 0.0001059174828696996 -0.0010101882508024573" pbc="T T T"
Ag      10.68928061      14.05444990      -0.26536111       0.00199702       0.02949560      -0.00099535
Br      11.83143623      12.09224562       0.52062409      -0.02244061       0.02914196       0.03167963
C        5.25346188       3.40224795      11.73480601       0.00034776      -0.00139391       0.00572813
C        6.63361930       4.04714338      11.71855997      -0.00077292      -0.00758713       0.01366242
C        4.11326115       4.41298575      11.77670262       0.00134784      -0.00634664       0.01683634
C        7.76791276       3.02772656      11.65806701       0.00001074      -0.00329089      -0.00242424
C        2.73975345       3.75579597      11.80531066      -0.00076303       0.00282900       0.01170294
C        9.13142803       3.70162901      11.62148117       0.00030586      -0.00738311      -0.00275137
H        5.14289358       2.76834518      10.84706755      -0.00114237      -0.00130729       0.00900045
H        5.17357609       2.72805928      12.59480322       0.00211548      -0.00866333       0.00898442
H        6.75483269       4.67920553      12.60652721       0.00211184      -0.00783384       0.01111704
H        6.71131553       4.71862692      10.85552714      -0.00321970      -0.00098017       0.01074970
H        4.23374392       5.05671351      12.65502076       0.00281939      -0.00585605       0.01485553
H        4.18906229       5.07360228      10.90688317       0.00072457      -0.00028244       0.01269293
H        7.69599440       2.35673985      12.52100041       0.00990677      -0.00842528       0.00137874
H        7.64098973       2.40072625      10.76992651      -0.00247796      -0.00055426      -0.00196278
H        2.59911711       3.10482630      10.94061942      -0.00585000       0.00374626       0.01156597
H        1.93833013       4.49610475      11.79528809       0.00410867       0.00147843       0.01906773
H        2.61613736       3.14153899      12.69943000      -0.00069804      -0.00416419       0.01273654
H        9.21129459       4.40218136      10.78553424      -0.01256170       0.02269018       0.01861535
H        9.35833517       4.24562326      12.53895204       0.01744604      -0.03186242       0.00388612
H        9.98528739       3.00647035      11.39131063      -0.01054452      -0.00243835      -0.04818484
C        5.24198921       8.22768306       3.36374806      -0.00623882       0.00117540      -0.00480403
C        3.91792435       8.57183393       2.69871569       0.01432645       0.00479320      -0.01341728
C        5.26014226       6.86530208       4.04287973       0.01484394       0.01037836      -0.01173635
C        3.92356553       9.93521970       2.01988480      -0.00938416      -0.00040472      -0.00025574
C        6.61927649       6.53770565       4.64466538       0.00345734       0.00118881      -0.00651649
C        2.57307643      10.29853689       1.42205374       0.00383428       0.00738552      -0.00736988
H        6.04698579       8.26846160       2.62100822       0.00694349       0.00805472      -0.01196831
H        5.48058287       8.99755168       4.10794838       0.00246933       0.00580876      -0.00781551
H        3.12019631       8.54884145       3.44584098      -0.00114414      -0.00255282      -0.00429779
H        3.66393749       7.79894975       1.96314595       0.00515668       0.00294405      -0.00986269
H        4.49351564       6.84129714       4.82533651       0.00534208       0.00216198      -0.00735289
H        4.97465544       6.09317578       3.31954325       0.01011541       0.00216532      -0.01084173
H        4.22005944      10.69569000       2.75121625      -0.00139479       0.00383762      -0.00231999
H        4.69472851       9.94682576       1.24271225       0.00213912       0.00751254      -0.00948286
H        7.38131530       6.45200212       3.86663859       0.01050916       0.01008690      -0.00955948
H        6.60301650       5.60056261       5.20300031       0.00996521       0.00996460      -0.01123992
H        6.94102763       7.32463181       5.33023555       0.00662262       0.00966106      -0.00598308
H        2.25095040       9.55092541       0.69364902       0.00011551       0.00575390      -0.00930053
H        1.80227440      10.35269652       2.19389946      -0.00273286      -0.00200601      -0.00128292
H        2.59077129      11.26485856       0.91823269      -0.00319230       0.00422576       0.00327154
C        3.26603111       2.81955981       3.65668542       0.00186697      -0.00096518      -0.00473827
C        4.67170079       2.99560740       4.22078660      -0.00433289      -0.01038268      -0.00900012
C        2.17256243       3.26016422       4.62254880      -0.00405126      -0.01297083      -0.01294774
C        5.76991457       2.60607800       3.23790940       0.00010747      -0.00125563       0.00009972
C        0.76374735       3.07570219       4.07764589      -0.00257927      -0.00322928      -0.01390244
C        7.17510219       2.81430878       3.78662964       0.00031942      -0.01342210      -0.00101393
H        3.17721337       3.39183577       2.72524612       0.00066908       0.00220582      -0.00423107
H        3.11107122       1.76942292       3.38255675      -0.00390005      -0.00362188      -0.01275676
H        4.77815315       2.39832381       5.13430600      -0.00612170      -0.00887512      -0.00641811
H        4.80926705       4.03936780       4.52563010       0.00079883      -0.00648794      -0.00174177
H        2.27545350       2.70296375       5.55751733       0.00026858      -0.01228309      -0.00954089
H        2.33128348       4.31261314       4.87792208      -0.00135169      -0.00638032      -0.00004242
H        5.63508317       1.55815504       2.95081629      -0.00125774      -0.00733042      -0.00663002
H        5.64661339       3.19079093       2.31952454       0.00377924      -0.00384215      -0.00257644
H        0.61781196       3.64726078       3.15887438       0.00351949       0.00333041      -0.01360913
H        0.01307600       3.40858833       4.79767465       0.00362170      -0.01013629      -0.01517951
H        0.56474267       2.02706736       3.84789159      -0.00520740      -0.00134784      -0.02737982
H        7.37024893       3.87029264       3.97535781      -0.00187960      -0.00748748       0.00602608
H        7.31370542       2.28330282       4.73070298      -0.00635844      -0.01296051       0.00172901
H        7.93672870       2.45605310       3.09249204      -0.00130829      -0.00859472       0.00331964
C        8.56439512      10.38766720       4.29531213       0.00457212       0.00057977      -0.00012130
C        9.64486749       9.39487947       3.88459464      -0.00001392       0.00251201      -0.00402454
C        8.48307054      10.60265900       5.80154078      -0.00087816      -0.00024734      -0.00370294
C        9.68612360       9.13860856       2.38260920       0.00090879      -0.00040999      -0.00032100
C        7.34905385      11.53021894       6.21606310       0.00189433      -0.00184715       0.00061382
C       10.77727371       8.15744569       1.97844087      -0.00229743       0.00118759      -0.00615436
H        8.74163692      11.34704659       3.79595276       0.00213410       0.00189331      -0.00077713
H        7.59448818      10.03228778       3.93039853       0.00125867       0.00077584      -0.00298557
H        9.47971516       8.44601072       4.41120608       0.00398055       0.00185385      -0.00094981
H       10.62368495       9.76047924       4.21851148       0.00343356       0.00327641      -0.00428831
H        8.35709216       9.63155136       6.29113334       0.00085572      -0.00112009      -0.00215916
H        9.43729971      11.00114803       6.16147767       0.00113475       0.00028765      -0.00002109
H        8.70959550       8.76189769       2.05862846      -0.00166214      -0.00107640      -0.00018593
H        9.84248512      10.08565253       1.85861044      -0.00246124       0.00056583      -0.00378397
H        7.46821842      12.51832114       5.76645590       0.00036121      -0.00072147      -0.00133760
H        7.30521769      11.65864036       7.29915469       0.00014843      -0.00319520      -0.00328997
H        6.38283652      11.13780839       5.88961257       0.00010863      -0.00219887      -0.00339097
H       11.76404557       8.55776054       2.21895117       0.00002886       0.00378075      -0.01042679
H       10.66858872       7.20388613       2.50204574       0.00335795       0.00207278       0.00082906
H       10.76069616       7.95678671       0.90629144      -0.00698402      -0.00294536      -0.00174153
C        2.05153649       9.66044761       7.39092615       0.00128666      -0.00197183      -0.00125247
C        2.03439408       8.92462050       6.05789578      -0.00597504      -0.00298895       0.00631908
C        3.02230810      10.83496597       7.42179556      -0.00130776      -0.00706254       0.00687084
C        1.07890065       7.73661624       6.03699213      -0.00266171       0.00150636      -0.00102019
C        3.05910778      11.53402755       8.77296995       0.00615397      -0.00430280       0.00197816
C        1.04737018       7.00990781       4.69987460      -0.00789047      -0.00272778       0.00514042
H        1.04143863      10.01738676       7.62342916      -0.00122610       0.00072074       0.00347938
H        2.31433174       8.95627049       8.18944395      -0.00275961      -0.00497618       0.00300956
H        3.05000941       8.58015917       5.82619243      -0.00347087      -0.00360551       0.00054061
H        1.76367285       9.62471057       5.25830754      -0.00396678       0.00015086       0.00200433
H        4.02526491      10.47779016       7.16541512       0.00209847      -0.00922045       0.00433256
H        2.74684219      11.55206099       6.64064765       0.00516342      -0.00484303       0.00177035
H        1.36294051       7.03789462       6.83226322      -0.00592776      -0.00184873       0.00299993
H        0.07135167       8.08583823       6.28660626      -0.00601089       0.00080679       0.00188680
H        2.08601875      11.96382778       9.01901458       0.00330003      -0.00223824       0.00384346
H        3.79233269      12.34040176       8.78696854       0.00439014      -0.01161017       0.00460899
H        3.31719801      10.83287274       9.56932339      -0.00058345      -0.00956036       0.00548474
H        0.74227826       7.68170081       3.89580414      -0.00567731       0.00104828       0.00152284
H        2.03298690       6.61779902       4.43958395      -0.00382391      -0.00025486       0.00226031
H        0.34966805       6.17031730       4.71231922      -0.00367802       0.00170685       0.00321365
C       10.81209445       7.29817987       8.85928729      -0.00299066      -0.00105308       0.00357386
C       10.00353275       6.49396484       7.84875260       0.01246613       0.00026655       0.00324576
C       10.17640570       8.64678419       9.18117470       0.01438427      -0.00206406       0.00622827
C       10.59246740       5.13136613       7.50175310      -0.00188011       0.00286280       0.00144492
C       10.98281071       9.48095392      10.16435736       0.00475100       0.00175098       0.00384423
C        9.71519432       4.35018685       6.53056335       0.01068959      -0.00200933       0.00072661
H       10.92002609       6.71969364       9.78515722       0.00636814      -0.00189814       0.00299355
H       11.82779048       7.45450443       8.48122416       0.00871643      -0.00124579       0.00105576
H        9.88817333       7.08049586       6.92798632       0.00336448       0.00181307       0.00371811
H        8.99078236       6.35200126       8.23993174       0.00107369      -0.00060927       0.00485073
H       10.03631396       9.20521845       8.24857874       0.00562633       0.00065427       0.00513187
H        9.17209377       8.47784630       9.58470199       0.00564873      -0.00091358       0.00839008
H       11.59340209       5.26367148       7.07692185       0.00668254       0.00307752      -0.00076929
H       10.72996739       4.55201143       8.42155026       0.00611637      -0.00036074       0.00070539
H       11.10971745       8.96104210      11.11542972       0.01383647      -0.00312696       0.00453553
H       10.50118443      10.43394211      10.38484557       0.01325043      -0.00380985       0.00634713
H       11.97957002       9.69833098       9.77549893       0.01146513      -0.00147496       0.00049043
H        8.71647014       4.19409192       6.94678445       0.00427610      -0.00071581       0.00155161
H        9.59317857       4.89334607       5.59044691       0.00440094       0.00266346       0.00014487
H       10.13290896       3.36969513       6.29622985       0.00646508       0.00491904       0.00048579
C        4.74113863       4.60799681       8.08390077      -0.01061389       0.00932992      -0.00083336
C        4.83722302       6.12723988       8.09531286      -0.00471830       0.00162849       0.00241273
C        3.30394440       4.10471747       8.06537099       0.00003690      -0.00161570       0.00703786
C        6.26263303       6.64341726       8.22350366      -0.01556090       0.01170999       0.00244261
C        3.20492625       2.58875925       8.12965066      -0.00436491       0.00249350       0.00086312
C        6.35928839       8.15853535       8.12684815      -0.00799130       0.00719571       0.00144741
H        5.27838607       4.21344006       7.21264511      -0.00501190       0.00597356       0.00218984
H        5.25671844       4.20230817       8.96186015      -0.00365999       0.00634840       0.00480527
H        4.23084680       6.52611580       8.91715574      -0.01100902       0.00520957       0.00222689
H        4.39086320       6.52356244       7.17513175      -0.01091287       0.00474812      -0.00053313
H        2.76148124       4.54317713       8.90927513      -0.00578047      -0.00114208       0.00412282
H        2.80806011       4.47340729       7.16285898      -0.00830288       0.00002049       0.00136304
H        6.68442897       6.30676048       9.17715989      -0.00950255       0.00955682       0.00276232
H        6.87810195       6.18517537       7.44560898      -0.00712770       0.00958100       0.00007701
H        3.73914981       2.12076482       7.30004051       0.00167580       0.00281922       0.00156294
H        2.17021208       2.24304538       8.09462107       0.00373805      -0.00087796       0.00399957
H        3.64648347       2.20888614       9.05245383       0.00376146       0.00134928       0.00413065
H        5.91519763       8.51744043       7.19498674      -0.00807630       0.00744663      -0.00294571
H        5.82754535       8.64122217       8.94963198      -0.02240700       0.00829896      -0.00138158
H        7.39471009       8.49918754       8.15392988      -0.01732329       0.01033789       0.00950783
