146
Lattice="17.464021894151937 0.0 0.0 0.0 17.464021894151937 0.0 0.0 0.0 17.464021894151937" Properties=species:S:1:pos:R:3:forces:R:3 energy=-1664412.25 stress="0.00016487191896885633 -3.84629220206989e-05 -0.0002209193626185879 -3.84629220206989e-05 0.00026806609821505845 4.672994805332564e-06 -0.0002209193626185879 4.672994805332564e-06 0.00014188395289238542" pbc="T T T"
Ag      19.02297738      17.38223827       0.50040103      -0.03050262       0.02726233       0.00438050
Br      17.17778666      14.99534140       0.44012602      -0.02996229      -0.03116031       0.00018431
O       15.79356611      15.08372238       1.25599436       0.01873553      -0.00273751      -0.00737900
O       17.28087022      16.22594267      -0.65715737      -0.00434980       0.01771080      -0.00295305
O       18.45278125      15.27967220       1.45327305       0.01105630       0.01422461      -0.00023210
O       17.34702121      13.57538753      -0.29195475      -0.00675336       0.03089297       0.00477481
Cl       7.78598500       7.04905260      14.84151784       0.00349200      -0.00302140      -0.00964533
Cl       6.30976130       5.01596045      13.38486500      -0.00209518      -0.00537476      -0.00147924
Cl       5.33433660       7.74724652      13.45969181      -0.00226364      -0.00697702      -0.00576878
Cl       5.23845928       6.10684285      15.84911989       0.00783259       0.00188514       0.00119659
C        6.16394161       6.48044778      14.38409208       0.00162138      -0.00306037      -0.00416437
Cl      14.00772163      15.00501604      10.23402535       0.00284088       0.01065909      -0.01250872
Cl      11.70803353      16.72918309       9.97478539       0.00036612       0.00807369      -0.01108570
Cl      11.51223599      14.28456938      11.52379213       0.00671679       0.01085171      -0.00791517
Cl      11.74777504      14.14346175       8.63798053       0.00184481       0.00892529      -0.01075211
C       12.24454900      15.03699641      10.09646217       0.00265840       0.00887660      -0.01064823
Cl       8.74280705       9.73718385       5.59729460       0.00808622       0.01015651      -0.00192674
Cl       6.18204079      11.06610750       5.90708931       0.00791162       0.00791473       0.00134957
Cl       7.98751380      11.86307817       3.77855131       0.01404255       0.02701987       0.01332411
Cl       8.62883864      12.48066541       6.54093720       0.00687325       0.00392219       0.01824799
C        7.88451519      11.28092905       5.45437480       0.00979323       0.01178248       0.00809634
Cl       4.46107255       8.37986114       4.06010864       0.00226021       0.00569218       0.00131658
Cl       3.66652670       6.21984751       5.81704492       0.00902236      -0.00506747      -0.00958413
Cl       2.08830700       6.83550393       3.45908430      -0.00013462       0.00663669      -0.00071627
Cl       2.10857455       8.66258599       5.71814868       0.00832409      -0.00491905       0.00987422
C        3.08480307       7.52231842       4.76448546       0.00435391       0.00055902      -0.00059599
Cl       0.82832392      17.92097897       9.47316988      -0.00267002      -0.00210327       0.00387676
Cl       0.38931646      15.06611823       9.21465352      -0.00912106      -0.00024316      -0.00010335
Cl       2.65299902      16.05207189      10.73175310      -0.01111054      -0.00535425       0.00792664
Cl       2.61366544      16.32607024       7.84333328      -0.00336543      -0.00647655       0.00556570
C        1.61866287      16.34137988       9.31775580      -0.00597592      -0.00346346       0.00380497
Cl      14.30560833       7.80719987       8.75303742      -0.00029870       0.01054746       0.00570029
Cl      13.49424364      10.32005049       7.56024348       0.00182018       0.01018935       0.00166309
Cl      13.50405627       7.90205815       5.96486025      -0.00261781      -0.00071275       0.01047549
Cl      16.01071219       9.09898401       6.79196603      -0.00273675       0.00514442      -0.00414962
C       14.32173124       8.77694764       7.26946422      -0.00051721       0.00809463       0.00470081
Cl      15.35294748      12.70901905      12.77313014      -0.00027644      -0.00787666       0.00237170
Cl      13.50469592      11.06792720      11.25841786      -0.00357580      -0.00387900       0.00206204
Cl      16.04332739       9.97232275      12.12737796      -0.00556397      -0.00895882       0.00208184
Cl      15.98082853      11.95817448      10.03300552      -0.00181343      -0.00602521       0.00248826
C       15.21867768      11.42921789      11.55495764      -0.00262962      -0.00661382       0.00227445
Cl      10.83603586       2.81825405       7.28141395       0.00358579      -0.00006044       0.01083855
Cl      10.84585282       5.63163672       7.98753624       0.00345954       0.00248858       0.00206113
Cl      11.29289261       4.82744158       5.23726724       0.00240606      -0.00601682       0.00457513
Cl      13.31861376       4.30346653       7.24685939       0.00331283       0.00059003       0.00641403
C       11.57343895       4.40243863       6.94091263       0.00314157      -0.00075415       0.00592229
Cl      12.07381264       6.39749496       0.57726625       0.01736975      -0.00244111       0.00281231
Cl      13.38875128       4.08279022      -0.58159563      -0.00320497      -0.01825248       0.01004539
Cl      10.54029947       4.47808447      -0.96541910       0.00235540       0.00885247       0.00202686
Cl      11.57018818       3.74753974       1.64770429      -0.00863947       0.00623298       0.00859377
C       11.88650917       4.67668775       0.16813946       0.00141579      -0.00091389       0.00590029
Cl       2.27565927      11.84067314      10.84903430       0.00724581      -0.00997245       0.00630534
Cl       4.30003401      12.71420727       8.97010226      -0.00809363       0.01437125      -0.00010769
Cl       1.83979135      11.51322421       8.00444803      -0.00693342       0.00551195       0.00705716
Cl       3.82437271       9.88628223       9.36354972       0.01091693       0.00948364      -0.01455006
C        3.06434944      11.48787652       9.30044871       0.00075549       0.00518884      -0.00078471
Cl       5.84276992       0.05367951       5.80984572       0.00329556       0.00778109      -0.01006598
Cl       5.05129959       2.72723168       5.01466038       0.00630370       0.00877595      -0.00827330
Cl       7.55894454       2.31323437       6.40402288      -0.00343388       0.00518519       0.01446768
Cl       5.05068334       1.99091702       7.82142270      -0.01932299       0.00361093      -0.01215583
C        5.87681837       1.77495042       6.26744115      -0.00296535       0.00617202      -0.00391465
Cl      13.18441758      17.53842937      16.38427249       0.01579861      -0.00495952      -0.00502205
Cl      13.77864394      14.72570790      16.00470634      -0.00841770      -0.00574332      -0.00092155
Cl      13.78073330      16.52650074      13.73472354      -0.00411955      -0.01412965      -0.00685918
Cl      11.27714157      15.82550596      15.02811909      -0.00682020       0.01380265       0.00113476
C       13.01019533      16.14961991      15.28894518      -0.00149858      -0.00390287      -0.00262046
Cl      11.76368004      10.23108845       2.55083916      -0.00047618       0.00425169       0.00022557
Cl      14.28790682      11.24188751       3.56145862       0.00217974      -0.00576946       0.00820047
Cl      11.79875851      12.03118858       4.82277063       0.00145102       0.01532464      -0.00426608
Cl      12.46536766      13.02745359       2.19061025       0.01408242      -0.00285885      -0.00427496
C       12.58279623      11.62968960       3.28143298       0.00452847       0.00131251       0.00072111
Cl       7.74338645       3.65739430       1.75013179      -0.00288013      -0.00591314       0.00731076
Cl       5.38460556       5.32578481       2.03887653      -0.00447780      -0.00877686       0.00981042
Cl       7.93228750       6.50993148       1.30372199      -0.01102431      -0.00736499      -0.00850201
Cl       7.52390774       5.49030476       3.98651667       0.00464292       0.00378250      -0.00095463
C        7.14439437       5.25019299       2.27534774      -0.00328538      -0.00418918       0.00213122
Cl      16.82123872       2.05980780       0.81547444       0.02205794      -0.02457116      -0.00920030
Cl      17.05128689       0.63725567       3.32771221       0.00426915      -0.01358619       0.00178626
Cl      14.44160960       1.04076511       2.14636248       0.01009202       0.00823541      -0.00154380
Cl      15.87167263       3.29256317       3.26765217       0.03534338       0.00009668      -0.01888950
C       16.03041556       1.75689283       2.40352700       0.01629145      -0.00769967      -0.00563407
Cl      14.27496609       8.88051498      15.22070251      -0.00736317      -0.00826374       0.00976917
Cl      15.21904090       8.79163173      17.95977942       0.01766129      -0.00322881       0.00328952
Cl      13.93208139      11.18268108      16.94943735       0.00555256      -0.00637656       0.00780782
Cl      16.57414829      10.46922287      16.01592452      -0.00031328      -0.00641471      -0.00918731
C       15.00261781       9.83350939      16.53289527       0.00387132      -0.00628336       0.00281717
Cl      17.30797109      15.17069305       5.36368451      -0.00245190      -0.01055849      -0.00211859
Cl      15.19543728      13.78969161       6.78738041       0.00417598      -0.01586092      -0.00205344
Cl      14.61357393      15.16282022       4.30470349      -0.00761184      -0.01040258       0.00395226
Cl      15.22169225      16.69078591       6.69255330      -0.00302330      -0.01445419       0.00363657
C       15.57854920      15.20440031       5.77702786      -0.00259849      -0.01249272       0.00014146
Cl       1.36970532       4.14260094       8.26712318      -0.01554528       0.00733882       0.00048053
Cl      -0.21448457       5.48979318       6.25206601      -0.01873343      -0.00733948      -0.00553329
Cl      -0.92636827       2.80956121       7.09410451      -0.00671715      -0.00962186       0.00000364
Cl       1.46489282       3.23502730       5.51784997      -0.00548154      -0.00094381       0.00361452
C        0.42661357       3.91999890       6.78060140      -0.01193953      -0.00304660       0.00000241
Cl      11.83665729       3.22184785      11.07320465      -0.00376520      -0.01167078      -0.01122874
Cl      10.35607903       2.08342369      13.29232893       0.00325973      -0.01814473      -0.00880361
Cl       8.94972612       2.97886667      10.91384876      -0.00578779      -0.00204641       0.00311628
Cl      10.14232841       4.91609306      12.70948016       0.01122121      -0.01320404       0.00353616
C       10.32281023       3.30015063      12.00039778       0.00144495      -0.01062378      -0.00334074
Cl       2.93139175       9.99940756       0.50677561      -0.00419444       0.00656882       0.01403482
Cl       5.75052862       9.38888079       0.81323915       0.00803617       0.01771396      -0.01698484
Cl       4.59491067      11.67513034       2.18654225       0.00570248       0.00683367      -0.00197941
Cl       4.93509598      11.73221925      -0.68885733      -0.02039351      -0.00329316      -0.01593515
C        4.54991589      10.69746393       0.70463448      -0.00386181       0.00844097      -0.00378975
Cl       1.71186918       4.87026891      14.74821310       0.00633532       0.00362608       0.00465533
Cl       1.55941965       5.05121939      17.63706432       0.00974263       0.00188550       0.00532654
Cl      -0.81896994       5.48739667      16.02343721       0.00679165      -0.00379851       0.00775653
Cl       1.31619423       7.44215465      16.02004255       0.00060970       0.00323659       0.00652958
C        0.93628083       5.71883360      16.10053181       0.00614476       0.00166568       0.00583252
Cl       7.45664038       9.71468086       9.20412087       0.00237674       0.00642672       0.00401777
Cl       8.63561745       9.68996130      11.84828249       0.01437553      -0.00077593      -0.00231069
Cl      10.33887930       9.52926904       9.50052848       0.00190854      -0.01316606      -0.01155362
Cl       8.65749985       7.28281291      10.23774988      -0.00856403      -0.00198305      -0.00268526
C        8.76833261       9.05889717      10.19878421       0.00275460      -0.00225911      -0.00228065
Cl       3.25283122       1.94282139      13.49740299       0.01373956       0.00065435       0.01355210
Cl       3.01990121      -0.72145049      14.60692851      -0.01528715      -0.00540151      -0.01167952
Cl       0.68220642       0.98455782      14.45523083      -0.00250733       0.00955908      -0.01076972
Cl       2.79948732       1.61135246      16.34435898      -0.01020476      -0.01262212       0.00518330
C        2.42333130       0.94079430      14.69269508      -0.00359941      -0.00276387      -0.00259119
Cl       6.11693042      15.79629533       9.10209793       0.00272526       0.01022483       0.00602609
Cl       5.99678770      17.61578957      11.36078921       0.00094712       0.00832510       0.00833410
Cl       8.43933030      16.17136137      10.78418713      -0.00044692       0.00351179       0.01330803
Cl       6.12548456      14.75193608      11.81025318      -0.00716230       0.00789142       0.00449160
C        6.67611498      16.08099230      10.76419945      -0.00063381       0.00753409       0.00780648
Cl      10.26557339      12.14378712      16.93261905       0.00642540       0.00213927      -0.00886333
Cl      11.03414961      11.38298909      14.24457949      -0.00009805      -0.00945888      -0.00868583
Cl       8.31818759      10.91840397      15.17271154       0.00096619       0.00144911       0.00018042
Cl      10.50824560       9.34028901      16.23314268      -0.00056398      -0.00030375       0.00329663
C       10.03213160      10.95026034      15.64363437       0.00266689      -0.00210673      -0.00420733
Cl       1.67484805       8.41951960      12.35497132       0.00469188      -0.01256859      -0.00331354
Cl       0.73117618       7.93688506       9.64641392       0.00910723      -0.01087928      -0.00433338
Cl      -0.10182183       6.19522410      11.79291811      -0.00532514      -0.00342393      -0.00216818
Cl       2.65953401       6.14393904      10.88168944      -0.00445163      -0.02049506      -0.00132503
C        1.23664897       7.17978480      11.16332936       0.00087595      -0.01216376      -0.00244123
Cl      11.54211708      17.43629586       4.82113845       0.00084060       0.00451419       0.00308439
Cl       9.16767323      17.92990294       3.23336983      -0.00209945       0.01401776       0.01021863
Cl       9.80363102      15.23353553       4.09322461       0.00032330       0.00983369      -0.01091298
Cl      11.42462569      16.53602914       2.06596443      -0.00248119       0.02600740      -0.00533950
C       10.48402271      16.78316258       3.55913601       0.00013852       0.01293576      -0.00129724
Cl       3.45160961      16.94652597       2.94367361      -0.02797335      -0.00394395      -0.01900366
Cl       5.76399434      18.20796227       1.74469556      -0.01397762      -0.00586438      -0.02013414
Cl       4.39140364      16.05330669       0.35761563      -0.00191858      -0.01176758       0.00232702
Cl       5.95579032      15.47873662       2.72422206      -0.01644069       0.01468962       0.03290845
C        4.90890991      16.67051459       1.95028314      -0.01392144      -0.00317925      -0.00011544
