149
Lattice="11.545792552426004 0.0 0.0 0.0 11.545792552426004 0.0 0.0 0.0 11.545792552426004" Properties=species:S:1:pos:R:3:forces:R:3 energy=-218435.765625 stress="0.0018065510084852576 -0.0005215778073761612 -0.0004662175488192588 -0.0005215778073761612 0.001408267766237259 0.00029218121198937297 -0.0004662175488192588 0.00029218121198937297 0.001302796066738665" pbc="T T T"
Ag      11.97032378      13.63223081       0.58924813      -0.01641908       0.00843377      -0.01214968
S       10.46264798       9.79482635       0.57899579       0.01077303      -0.04057875      -0.00829023
O       11.54817259      10.64065553       1.07838087       0.00544280       0.01463246       0.00688028
O       10.92855124       8.53702293      -0.00046377      -0.00172386       0.03002286       0.00954080
O        9.52427796      10.52328743      -0.29644199      -0.00799203       0.00776654      -0.00271726
C        9.50044060       9.34880265       2.01029164       0.00300044      -0.00168321       0.00072199
H        9.13873464      10.25434680       2.49540455      -0.00211426      -0.00751531       0.00181407
H        8.66000622       8.73571100       1.68791100       0.00675295      -0.00854111      -0.00156216
H       10.14768736       8.79015820       2.68546017       0.00655092      -0.00205234       0.00004542
N        8.47035777       6.85528351       4.40921678       0.00144415      -0.00332467      -0.00189707
H        9.14638096       6.20680843       4.01411326      -0.00015209      -0.00850538       0.00395858
H        8.52481203       7.71522140       3.87588793       0.00919178      -0.00571455      -0.00494841
H        7.55449299       6.46907342       4.18579321       0.00021553       0.00116673      -0.00493443
N        3.98013319       1.95301038       0.33213652      -0.00418027      -0.01804218       0.00067538
H        3.39044772       2.15347642       1.13457845       0.00082069      -0.02037205       0.00482392
H        4.92605970       1.86825994       0.68819483      -0.00058751      -0.00898229      -0.00702836
H        3.71319578       1.02160794       0.01596283       0.00055963      -0.02106924       0.00510477
N        9.66789176       1.77661552       0.85513009      -0.00594556      -0.00263105       0.00567801
H        9.41211722       0.94977934       0.31826590      -0.00729243       0.00063953       0.00714931
H        9.53717908       1.55183067       1.83291263       0.00029177      -0.00262049       0.00695679
H        9.06035434       2.55794229       0.63344713      -0.01005560      -0.00089788       0.01107760
N        8.10616972      11.25609700       5.96449739      -0.00405687      -0.00176543      -0.01096442
H        7.62371618      10.98206096       5.11355683      -0.00456528      -0.00854574      -0.00881995
H        7.44905259      11.81447442       6.50072285      -0.00467478      -0.00043075      -0.01340356
H        8.26301453      10.39507969       6.48217003      -0.00146037       0.00121965      -0.00610882
N        2.81051231       7.36738848       2.19444121      -0.01077221       0.00543475      -0.01117715
H        3.63332997       7.91824909       1.95952861      -0.00904150       0.00273880      -0.01025084
H        2.04351848       7.85560103       1.73815632      -0.00871775       0.00513417      -0.01618368
H        2.92654213       6.50715708       1.65196019      -0.01037239       0.00254364      -0.00642683
N        5.65738715       2.68278525       7.64929417      -0.00930628      -0.00704895      -0.00508771
H        5.34576700       3.54372457       7.20934881      -0.00024463      -0.00311370      -0.00404539
H        6.40342549       2.95890925       8.29303998      -0.01485217      -0.01339505       0.00395079
H        4.88349358       2.40311164       8.24440816      -0.01716687      -0.00638671      -0.01539347
N        3.07429638      10.17384243      -0.10007542      -0.00194104       0.01080912       0.00478292
H        3.18776961      10.29107670       0.90400473      -0.00200302       0.00119647       0.00547614
H        3.58081326       9.32448474      -0.33703892      -0.00446111       0.01084074      -0.00306264
H        2.08463926       9.96615245      -0.21200576      -0.00306366       0.01520570       0.00201638
N        6.04776552       6.49455396       6.73243761      -0.00470692       0.00290465      -0.00193074
H        6.22088155       6.34882398       7.72148508       0.00050378       0.00199891      -0.00267209
H        5.25976910       7.13356839       6.68153150      -0.00836294      -0.00115031       0.00287195
H        6.85116517       7.00417933       6.37381435      -0.00856002       0.00726971      -0.00422871
N        1.50707339       2.73883468      10.32188305       0.01215458       0.00523461       0.00485523
H        1.53075203       2.01589413       9.59969953      -0.00349503       0.01678617      -0.00560129
H        2.47860919       2.84406843      10.61458969       0.01298776      -0.02950947       0.01313209
H        1.24123494       3.62149103       9.89461793       0.04339854       0.01895246       0.01468615
N        2.43416246       8.12867106       6.32384683       0.00620508      -0.00289984       0.01422837
H        2.04800571       8.78191909       5.65037598       0.01964504       0.00308280       0.01331392
H        1.80232134       8.13018821       7.11677885       0.00746968       0.01263398       0.01542076
H        2.33272035       7.20961564       5.90285557      -0.01323589      -0.00197063       0.01686496
N        5.72176319       7.66968708      11.27618476       0.00018230       0.00342736       0.00669517
H        6.30967152       6.87566395      11.50608865       0.00193085       0.00591861       0.01251632
H        5.93756013       8.38303324      11.97081068      -0.00409340       0.00669060       0.00418852
H        6.12209479       8.03747385      10.41092256       0.00195590       0.00044481       0.00618085
N        3.47544995       5.21028028       0.09965317       0.00578161      -0.00762546       0.00309017
H        2.89493428       5.26927732      -0.73898508       0.00587164      -0.00968996       0.00273210
H        3.95581326       4.31714917       0.04335717       0.00626693      -0.00698885       0.00432367
H        4.17485450       5.94238131      -0.02179944       0.00468731      -0.00643256       0.00279459
N        6.40409100      10.63634636       0.84686679       0.00046344       0.00592482       0.00478220
H        5.74346452      10.79904881       0.09560182      -0.00021656       0.00727726       0.00484234
H        7.33965914      10.72948683       0.46308222      -0.00100206       0.00474245       0.00548283
H        6.25297225      11.36302172       1.54356129       0.00024134       0.00667561       0.00540329
N        2.28205535      10.20866436       3.26842114       0.00281617       0.00096074      -0.00122783
H        2.56543303       9.24412738       3.40664899      -0.00513929      -0.00203589      -0.00139910
H        1.34321261      10.19082681       2.87601957       0.00284651       0.00817436       0.00076372
H        2.26408388      10.66120961       4.17486407       0.00766731       0.00146055      -0.00095551
N        4.95129631       0.70939569       3.27230254      -0.00173947       0.00720610       0.00594331
H        4.15833694       0.25790550       2.82304098       0.00232618      -0.00493970       0.01098231
H        4.68098641       1.67964473       3.39473496      -0.01418689       0.00429058       0.00245430
H        4.95533714       0.30778840       4.20839916       0.00662029       0.01226571       0.00787145
N        8.21031480       3.90326813       6.05413499      -0.00445986       0.00039727       0.00541162
H        7.66472018       3.04833218       6.08144291      -0.00676645       0.00187278       0.00552991
H        8.54796499       4.04098423       5.10686635       0.00045529      -0.00357785       0.00683172
H        7.55952232       4.66013031       6.24412893      -0.00371566       0.00316154      -0.00070302
N        2.10017870       0.27107228       8.54222481      -0.00011933       0.00191700      -0.00710961
H        1.10048583       0.05538949       8.51450899       0.00055888      -0.00029017      -0.00280222
H        2.51089684      -0.23355711       9.32386516       0.00172674       0.01195796      -0.00143878
H        2.51385932      -0.09915008       7.69500468      -0.00011015      -0.00824878      -0.00284357
N        0.39551186       6.21425384       4.60552557       0.00822289       0.00953174       0.00075698
H       -0.12015384       6.96044065       5.05997125       0.00896075       0.00840420       0.00360738
H       -0.29399195       5.63971805       4.12254322       0.00682832       0.00900000       0.00358005
H        0.98326479       6.64326999       3.89525933       0.00421938       0.01100004      -0.00208239
N        2.58424906       4.04072946       3.71471277       0.00249352       0.00427598      -0.00561018
H        2.60764923       4.49488483       2.80521628       0.00722090       0.00231920      -0.00661357
H        3.46299391       4.28025914       4.16083482       0.00392433      -0.00211005      -0.00478077
H        1.87343150       4.53701054       4.24968850       0.00592556       0.01093395      -0.00686540
N       11.62210823       5.50426817       0.80882279      -0.00456309      -0.00191447      -0.00272930
H       11.16813439       5.08507997       0.00312284      -0.01007084      -0.00626655       0.00333139
H       12.62019985       5.37370380       0.66445787      -0.00668403      -0.00505080      -0.00520589
H       11.45160440       6.50457433       0.71103284      -0.00277396       0.00086120      -0.01048551
N        2.00305102       5.70165807       8.85608261      -0.00318105      -0.01488015       0.00066948
H        2.30596954       5.06592517       8.11806285      -0.00645742      -0.01209797      -0.00257304
H        2.61597853       6.50788446       8.83444763      -0.00012882      -0.01648457       0.00599312
H        1.06962035       6.01898222       8.61655394      -0.00212405      -0.00954041       0.00268214
N        4.56259096      10.59788666       6.14400323       0.00252359      -0.00206873       0.00845733
H        4.80075969      11.24011300       6.89143731       0.00473475       0.00240261       0.00459263
H        5.43402393      10.20641595       5.79825872       0.00195190       0.00176278       0.00327553
H        4.04090143       9.81683119       6.53512021       0.01062249      -0.00349025       0.01579047
N       10.81239390       4.91126538       7.47211811      -0.00019021      -0.00283939       0.00007756
H        9.94402381       4.54103653       7.07445988       0.00000174      -0.00218289      -0.00042504
H       11.32153664       4.12393056       7.85970484      -0.00172789      -0.00247863       0.00352347
H       11.37060609       5.23755102       6.68539988       0.00181445      -0.00433652       0.00110299
N        5.55138158       5.70016518       3.72349106      -0.00072902       0.00540593      -0.00228627
H        4.63822618       6.06223628       3.46770632      -0.00161479      -0.00016247      -0.00737172
H        5.58054882       5.62433182       4.74050218      -0.00428776       0.00994957      -0.00179847
H        5.62803408       4.76814252       3.33479079       0.00446374       0.00364251       0.00276610
N        1.12717549       1.59024939       2.70124719      -0.00273250       0.00612690      -0.00704920
H        0.34850646       1.42631450       3.33622080      -0.00016974       0.00281760      -0.00497095
H        1.72391369       2.29638400       3.14368408      -0.00307941       0.00698322      -0.00625654
H        1.65156388       0.72517296       2.63262719      -0.00077190       0.00780319      -0.00940003
N       10.49751200       0.29350472       8.57973183      -0.00037342      -0.00868315       0.00183359
H       10.19142772      -0.22349505       9.40270165      -0.00138191      -0.00977108      -0.00214180
H        9.85586851       0.07362349       7.82559978      -0.00155570      -0.00332124      -0.00044900
H       10.35747449       1.27590841       8.78731214       0.00357834      -0.00818069       0.00452711
N        5.95138740       9.00145476       3.64507367       0.00222835       0.00939436       0.00110349
H        6.08565063       9.46342201       2.74664899       0.00881723      -0.00131442      -0.00304083
H        4.98624048       9.17354184       3.90492006       0.00275965       0.02070643      -0.00460026
H        6.02629293       8.00142205       3.48068034      -0.00603493       0.00691105       0.01129988
N        2.42691763       3.12174692       6.87118684      -0.00840412      -0.00682947      -0.00731164
H        1.54041897       3.17598543       6.38140834      -0.00148210      -0.00728649      -0.01970933
H        2.35727008       2.34218126       7.52401966      -0.01502185      -0.00967792      -0.01115607
H        3.10308134       2.83214551       6.17237974       0.00196119      -0.00286438       0.00134643
N        7.43029614       9.23827636       9.01887857       0.00084747       0.00312901       0.00516153
H        8.08486998       9.03798433       8.26078571      -0.00166221       0.00456595       0.00134044
H        7.97277396       9.70914812       9.73881930       0.00293537      -0.00039295       0.00391673
H        6.75374146       9.90187566       8.66089913       0.00015759       0.00455753       0.00870117
N        9.62876047       8.37926979       6.90122893      -0.00447568       0.00256157      -0.00235724
H        9.28875317       7.81003441       6.12272985      -0.00386079       0.00047807      -0.00118456
H       10.36647742       8.98306178       6.56007026      -0.00375972       0.00108275      -0.00348203
H       10.04348346       7.74745059       7.57809125      -0.00478292       0.00411700      -0.00027005
N        8.19838861       5.18690880       0.97968580       0.00459679      -0.00850120      -0.00496610
H        7.39394715       5.56562595       1.46956220       0.00106167      -0.01360359      -0.00830238
H        8.30442804       5.68695032       0.08888917       0.00484090      -0.00689624      -0.00511561
H        9.00350580       5.47841244       1.52443699       0.00135651      -0.00292337      -0.00237583
N        8.01543478       3.25041790       9.69481326      -0.00567776      -0.00434399      -0.00771001
H        8.80648859       3.49703193       9.11209442      -0.02815450       0.01842342      -0.02667408
H        8.15753552       2.30111484      10.01712927       0.02462072      -0.00331641      -0.02291062
H        8.04693781       3.86008655      10.50641392       0.00554534      -0.01118984      -0.00232007
N        9.06651562       6.56893245       9.92689126       0.00481501       0.00138202      -0.00159454
H        9.57464285       6.08365949       9.19111893       0.00696251       0.00250285       0.00054559
H        9.71373717       7.22436213      10.36200734       0.00628273       0.00434335       0.00083779
H        8.35315752       7.14071903       9.48426759       0.00582968       0.00110668      -0.00047943
N       10.61048794       1.64260847       5.33693457      -0.00102247      -0.00251624       0.00084794
H       11.38332536       1.27665956       5.88398312      -0.00276250      -0.00820786      -0.00024608
H        9.84183042       0.97913590       5.46571884      -0.00336855      -0.00059841      -0.00416750
H       10.31110659       2.48911105       5.81483969       0.00149973      -0.00410804       0.00573410
N       10.06393848       4.05925863       3.23195773       0.00517255       0.00453508       0.00659515
H       10.69152171       4.32358723       2.46801633       0.00455499       0.00716710       0.00608410
H        9.20475728       3.76793168       2.77795835       0.00643593       0.00166877       0.00571829
H       10.44882448       3.24137165       3.69839353       0.00756526       0.00573917       0.00578701
