147
Lattice="12.693079778135573 0.0 0.0 0.0 12.693079778135573 0.0 0.0 0.0 12.693079778135573" Properties=species:S:1:pos:R:3:forces:R:3 energy=-819526.625 stress="-0.0011917606461793184 8.673392949276604e-05 -0.0004695580282714218 8.673392949276604e-05 -0.0017809461569413543 0.00011807080227299593 -0.0004695580282714218 0.00011807080227299593 -0.0007266747998073697" pbc="T T T"
Au      12.23018671      12.92284611      -0.67302135      -0.00384223      -0.00430283      -0.00316173
Br       2.09448401      12.46140019       5.20855316      -0.01737807      -0.00460722       0.04536345
Br       0.97804792      14.31459699       0.56490148      -0.01446126       0.02089308      -0.02170252
Br       0.41214456      11.45377637       3.98399645       0.03177424       0.00176124      -0.02497457
O        3.91181102      11.79396421       8.81402299       0.00878049       0.00132829      -0.00639850
C        5.00560082       9.91842107       9.76402111       0.00379908      -0.00658625      -0.02788541
C        3.49446151       9.71244060       9.86289794      -0.00110939       0.01931438       0.01867193
C        5.08762702      11.42070239       9.54739551       0.00239046       0.00449896       0.00456552
C        2.97678247      10.70472073       8.82608278       0.00697309       0.00277507      -0.01105747
H        5.54244543       9.61349805      10.65914309       0.00584833      -0.00090358       0.00328165
H        5.41688401       9.38868549       8.90133699      -0.00631122       0.00062653       0.00705770
H        3.17710620       8.68961626       9.65338442      -0.00508917       0.00332008       0.00242925
H        3.14957339       9.97928842      10.86622314       0.00805987       0.00918899      -0.00794297
H        5.09329494      11.95156006      10.50632526       0.01481011      -0.00015417      -0.01743245
H        5.96640410      11.72082313       8.97672926       0.01239359      -0.00589015      -0.01603472
H        2.94705957      10.26111509       7.82485418      -0.00276154       0.00695622       0.00582743
H        1.98571762      11.10264370       9.06239266       0.00340959       0.01373495       0.00260244
O        3.85558152       4.35849587      11.30607982       0.00568619       0.00430268      -0.01522656
C        5.93542333       5.45725073      11.61387142       0.00422680       0.00904179       0.00332040
C        4.87377020       6.46821539      11.18466969       0.00064704       0.00791007      -0.00701612
C        5.26919455       4.13470085      11.24256979       0.00632435       0.00270361      -0.00357777
C        3.60612213       5.73531680      11.59029135      -0.00250345       0.00125724      -0.00688565
H        6.89720808       5.59601648      11.12204360       0.00099459       0.01062003       0.00013672
H        6.10041220       5.52099750      12.69177219      -0.00015182       0.00902760      -0.00382820
H        4.97808658       7.44224716      11.66028376      -0.00402068       0.00443327       0.00002339
H        4.90087753       6.61033553      10.10042443       0.00230061       0.00757587       0.00047833
H        5.52283941       3.84048722      10.21700509       0.01439921       0.00145034       0.00375295
H        5.53512478       3.30911750      11.90894156       0.00211870       0.01025286       0.00432271
H        3.41115654       5.86731831      12.66449695       0.00059304      -0.00498383      -0.00800925
H        2.71229689       6.03985154      11.04209889       0.00284621       0.00151397      -0.00596565
O       10.43528756       8.96152786       9.87866535       0.00016990      -0.00827643      -0.00511040
C       11.35613225      10.96163645      10.69438865       0.01129714      -0.01022859      -0.00849399
C       11.79580921       9.81650802      11.60159562       0.00474708      -0.01599131       0.00360608
C       10.12263851      10.35054522      10.00664566      -0.00372422      -0.00826854      -0.00004286
C       11.57860065       8.63243375      10.67405189      -0.00076015      -0.01962289      -0.00911987
H       10.94972282      11.90437235      11.21876810       0.00284553      -0.01612595       0.00559931
H       12.11828291      11.21571362       9.95571880      -0.00311956      -0.01127781       0.00339901
H       12.82149414       9.90143415      11.95624006       0.00574261      -0.01944099      -0.01184618
H       11.13370824       9.75639547      12.46801478       0.01273111      -0.01622453      -0.00561333
H        9.22323925      10.46961985      10.62333891       0.00573137      -0.01052872       0.00499874
H        9.91542614      10.76665529       9.02322626      -0.00112716      -0.00491706       0.00614524
H       12.44846393       8.49467376      10.01759047      -0.00487775      -0.01986759      -0.00722963
H       11.38460056       7.69486724      11.19755106      -0.00588998      -0.01193660      -0.00708008
O        7.55653751       7.89503871       6.48451102      -0.00706500       0.00125182      -0.00074974
C        9.45695402       6.63552720       5.86817104      -0.00067568       0.01056939      -0.00252286
C        8.31410900       5.67415814       6.18216167       0.00457388       0.00173312       0.01094584
C        8.99290924       7.89669594       6.58083044      -0.00728980       0.00946361       0.00394115
C        7.10757084       6.59186430       6.09917573      -0.00259790      -0.00048536       0.00108688
H       10.42690100       6.29098627       6.22792939       0.00113587       0.01497377       0.00460099
H        9.53080481       6.81741117       4.79376316      -0.00228193       0.00667375       0.00650775
H        8.22852085       4.83773087       5.49186636       0.00878521       0.00242792       0.00848716
H        8.41254338       5.26730856       7.19116672       0.00599865       0.00915607       0.00474164
H        9.28245179       7.88801775       7.63788453      -0.00864705       0.01295590      -0.00137126
H        9.36737176       8.81334319       6.12144321      -0.01181486       0.00963244      -0.00202936
H        6.72350151       6.63514792       5.07030623      -0.00055411      -0.00677905       0.00498104
H        6.29122173       6.27901728       6.75350841       0.00069991      -0.00359617       0.00451976
O        5.39886942      10.54801051       0.33244683      -0.01941060      -0.00159244       0.00662127
C        4.74223695      12.01312626       2.06246303      -0.00699436       0.00135756       0.01111519
C        4.29088875      10.59942259       2.43071319      -0.02163768       0.00003382       0.01025611
C        4.91815919      11.88327250       0.55879653      -0.00656683       0.00512791       0.00374156
C        5.15482767       9.75452785       1.50438988      -0.01439440      -0.00267161       0.00604606
H        4.01799559      12.78050255       2.33149060      -0.00782859       0.00296453       0.00851855
H        5.69828166      12.24891368       2.54035414      -0.01347005      -0.00537774       0.00972194
H        4.42308248      10.34441955       3.48151286      -0.01918622      -0.00000742       0.00282940
H        3.23237467      10.47641460       2.19112698      -0.01480758       0.00633398       0.00474864
H        3.95762291      12.02145104       0.04688697      -0.00724792       0.00953678       0.00764954
H        5.63899839      12.58357830       0.13038082      -0.00570104      -0.00540990       0.01234578
H        6.11515590       9.51579517       1.97046938      -0.02253538      -0.00307801       0.00441146
H        4.68308725       8.81523763       1.20300769      -0.02275392       0.00053877       0.00631347
O        3.25565341       9.08163990       5.73441290      -0.01455986      -0.00097257      -0.00399908
C        3.14663959       6.79609292       6.30550547       0.00461985      -0.00420749      -0.00568683
C        1.74637701       7.39568683       6.42673986      -0.00220025      -0.01142427       0.00725177
C        4.00641453       8.04898141       6.37995112      -0.00166564       0.00468165      -0.00887276
C        1.88618990       8.67610971       5.61655571      -0.01309332      -0.00775421       0.00254910
H        3.37959567       6.08309808       7.09502168       0.01353011       0.00065880      -0.00649442
H        3.26954705       6.29594896       5.34149367      -0.00088941       0.00008312      -0.00345433
H        0.95232934       6.75174179       6.05008347       0.00357875      -0.01336873       0.01410464
H        1.52596621       7.62854967       7.47231086       0.00824056      -0.01020757       0.00694177
H        4.18376858       8.32344713       7.42810403       0.00295148       0.00397016      -0.01280874
H        4.97289926       7.97426197       5.88720021      -0.00693864       0.00831719      -0.01719469
H        1.66022582       8.50577477       4.55737138      -0.01685180      -0.01293568       0.00623912
H        1.24573743       9.48406683       5.97157128      -0.01506472      -0.01400295       0.00527865
O        8.76330399       0.16154985       8.43987417       0.00312359       0.01160574       0.00489433
C        9.74669747       2.26331100       8.84997723       0.00424564       0.00622523       0.02610403
C        8.31896382       2.47970616       8.35562700       0.00749300       0.01288086       0.00166526
C       10.01556077       0.85539165       8.34519516       0.00312134       0.00992519      -0.00045021
C        7.70300611       1.11456188       8.61439470       0.00293593       0.00996178       0.01342739
H       10.46535022       2.98915807       8.47108535       0.00805610       0.00993368       0.01680408
H        9.78156826       2.28884332       9.94277835       0.00475332       0.00231571       0.00820011
H        7.78453838       3.28430141       8.85866439       0.00627017       0.01160358       0.01960579
H        8.30680945       2.69825633       7.28648613       0.00695319       0.01636570       0.02165362
H       10.34152317       0.86617764       7.29777328       0.00215764       0.01444686       0.01100868
H       10.76446467       0.31819898       8.92834697       0.00417671       0.00493075       0.00612092
H        7.32049959       1.03754785       9.64036197       0.00250721       0.00728587       0.00223535
H        6.89158036       0.86523459       7.92717101       0.00439414       0.01641563       0.00251967
O        9.27475675       6.01605396       1.11705204      -0.00482944      -0.00587720      -0.00807419
C       10.09643997       3.80611637       1.28240156       0.00333571       0.00351888       0.00942889
C       11.22745481       4.72639104       0.83082654      -0.00906521       0.00389391      -0.03476703
C        8.87849178       4.64971936       0.94268906       0.00054914      -0.00452769      -0.02485875
C       10.69928168       6.07083208       1.30056068      -0.00742957      -0.00440794       0.00807138
H       10.09757780       2.82907332       0.80290082       0.00453644      -0.00699900      -0.02400595
H       10.15722453       3.64285651       2.35914259       0.00170054      -0.00710348      -0.02770582
H       12.19614750       4.46974237       1.25461271       0.00535175       0.00203427      -0.00821786
H       11.32346906       4.70049069      -0.25827774      -0.00096790       0.00628410      -0.00041971
H        8.57537612       4.49677848      -0.10090473      -0.00118426      -0.00215196      -0.00566423
H        8.01341023       4.45124358       1.58228821      -0.00263551      -0.01124486      -0.00774324
H       10.91725995       6.23446353       2.36266988      -0.00848991      -0.00379881      -0.01334828
H       11.08332488       6.92632939       0.74118068      -0.00702296       0.00588623      -0.00741819
O       10.90438934       1.61471094       3.72949207       0.00696537       0.00127277      -0.00979823
C       10.56149981       3.36655276       5.28602909       0.00723627      -0.00834972       0.00850391
C       12.03400795       2.96761178       5.28126688       0.01277095      -0.00480099      -0.00327814
C        9.91158933       2.16702028       4.60115102       0.00677404      -0.00271067      -0.00768074
C       12.13587629       2.32414195       3.91051621       0.01094496      -0.00523883      -0.00677133
H       10.15309415       3.56526639       6.27447328       0.01235899      -0.01270508      -0.00264162
H       10.42366848       4.26720448       4.68281487       0.01182105      -0.00271776       0.00359315
H       12.71375392       3.81137167       5.40359935       0.00938423      -0.01591022       0.00376056
H       12.24355269       2.23647554       6.06673663       0.00774626      -0.01801282      -0.00665466
H        9.61492628       1.40051379       5.32815530       0.00939401      -0.00705084      -0.00897607
H        9.02481077       2.43475799       4.01632331       0.00920579       0.00021252      -0.00217071
H       12.24075087       3.09174386       3.13388603       0.00672093       0.00552070      -0.00157559
H       12.95569361       1.62017441       3.79610113       0.00501090       0.00145495      -0.01216034
O        5.94814685       3.47620621       6.39815623       0.00291352       0.00114226       0.00569321
C        4.13121039       1.94554597       6.47255614       0.01371133      -0.01069665       0.00611088
C        4.67619524       2.03242035       5.04532217      -0.00087184       0.01389042      -0.00103307
C        4.73420052       3.19027835       7.11261554       0.00173268       0.00205743       0.00310446
C        6.07214559       2.57017683       5.29850801       0.00663167       0.00310436       0.00455588
H        3.04312035       1.95898725       6.52584138       0.00421143      -0.00365189       0.00315722
H        4.47294612       1.03450632       6.96985677       0.00729994       0.00126082      -0.00458172
H        4.67848531       1.07918178       4.52153689       0.00523752       0.00282469      -0.00182842
H        4.09031711       2.74280991       4.45592528       0.00519255       0.00134966       0.00791837
H        4.06537541       4.04975724       7.00718717       0.00531894      -0.00742695       0.01176610
H        4.95982217       3.06037627       8.17327209       0.00732481      -0.00844181       0.00748664
H        6.75640118       1.75168934       5.56620205       0.00528148       0.00993800      -0.00347221
H        6.49965076       3.11351217       4.45277820       0.00061896       0.01226643       0.00241479
O        9.82519039       8.53529384       3.09228900      -0.00736964      -0.00000206       0.00374293
C       10.13136882      10.80811235       2.58337278      -0.00711834      -0.00008351       0.00087774
C        8.85473409      10.33673808       1.88592432      -0.00555506      -0.00365534      -0.00644147
C       10.84443279       9.47966205       2.79548574      -0.00191243      -0.00373989       0.00533276
C        8.56047524       9.02197595       2.60811254      -0.00958084      -0.00346518       0.00604546
H       10.71310296      11.53048085       2.01036230      -0.00466862      -0.00505002      -0.00472714
H        9.89793860      11.26945475       3.54640036      -0.00585213      -0.00102098      -0.00696844
H        8.03299321      11.04789482       1.95718117      -0.00390776      -0.00492777      -0.00764097
H        9.04174536      10.15757163       0.82410031      -0.00315428      -0.01170222       0.00151566
H       11.39048763       9.18033662       1.88872607      -0.00698382      -0.00564648       0.00321656
H       11.55599114       9.47157187       3.62423571      -0.00870988       0.00276927      -0.00040838
H        7.90699413       9.17409188       3.47507947      -0.00386095       0.00644124       0.00470304
H        8.12600110       8.25757281       1.96090990      -0.01020207      -0.00082439       0.01098585
