142
Lattice="12.921106618934436 0.0 0.0 0.0 12.921106618934436 0.0 0.0 0.0 12.921106618934436" Properties=species:S:1:pos:R:3:forces:R:3 energy=-647482.4375 stress="-0.0016336498083546758 -0.00021610128897009417 0.001966818585060537 -0.00021610128897009417 -0.00024953673710115254 -0.0009024919709190726 0.001966818585060537 -0.0009024919709190726 -0.0017336832825094461" pbc="T T T"
Au      13.12562020      12.98131754      -1.24196399       0.00672525      -0.01964618      -0.02619255
P       11.34747301      10.91908091       5.00090360      -0.01456913      -0.03377169       0.03334349
O       11.07573571      10.53647993       3.41844428      -0.01617183      -0.02961335       0.01242304
O       12.69953105      11.83118920       4.91516101      -0.00661469      -0.01427764      -0.01595710
O       10.22337702      11.80275305       5.41255046       0.01546180      -0.02251148       0.00260234
O       11.71972357       9.64833711       5.67955463      -0.00187624       0.01470220      -0.00458324
H       10.43358342      11.17727069       3.09680197      -0.01389694      -0.03049247       0.01048145
H       12.42605563      12.75346113       4.93548770      -0.00692958      -0.01404101      -0.01346349
P        1.97191024       8.55564170       7.71558889      -0.00350991      -0.00495407      -0.00543995
O        0.44994596       8.16092190       7.39564658       0.00034320      -0.00381804      -0.00099401
O        2.00573592       9.99299390       6.94338210      -0.00464590       0.00062227       0.00559407
O        2.20718541       8.77218952       9.17922749       0.00121140      -0.01582262      -0.00447679
O        2.85481447       7.56282586       7.02346618      -0.00088692       0.00093424      -0.01381850
H       -0.07865679       8.80219109       6.86711897      -0.00117868      -0.00491795      -0.01248968
H        2.67343952      10.57078052       7.32077165       0.01384717      -0.01193377      -0.00973085
P       10.05489772      12.60172765      11.67239023      -0.00392106       0.01738225       0.02116838
O       10.55977730      11.09698731      11.84142325      -0.01194793       0.01310700      -0.00262916
O        9.81681574      12.98775204      13.20406149       0.01438195       0.00179482       0.02778953
O       11.24793439      13.45989994      11.13817481      -0.00724983       0.01694195       0.01791313
O        8.82887478      12.79118341      10.89283254      -0.01300514       0.03095530       0.03565449
H       10.83136092      10.67623471      11.00633478      -0.01835179       0.02377881      -0.00778419
H       10.63144811      12.97108542      13.71577463       0.01629275      -0.01411105       0.01788498
C        9.92650786      10.84842342       8.36288841       0.00559938       0.02522591       0.01518836
C       11.11981360      11.56581671       8.42505797       0.00391871       0.02697778       0.01119888
C        9.93169100       9.53342337       8.82751187       0.01023400       0.02348486       0.01117174
C        8.67029001      11.43213759       7.81332107       0.00202206       0.02332094       0.02090064
C       12.26223617      10.99566011       8.97064231       0.00874180       0.02764057       0.00092748
C       11.07172003       8.95459300       9.36375789       0.01467134       0.02476898       0.00263456
C       12.24595517       9.69486606       9.46437987       0.01419267       0.02552733      -0.00343144
H       11.14572961      12.56962271       8.02651919       0.00002120       0.02926406       0.01536614
H        9.01656250       8.95599444       8.77291514       0.01180163       0.02210059       0.01290674
H        7.82687834      11.16680121       8.44803571       0.00440958       0.02402157       0.02365033
H        8.73371649      12.51443334       7.74111878       0.00001453       0.02322194       0.01889442
H        8.49234917      11.06170905       6.80262290      -0.00020927       0.02118800       0.02281451
H       13.19247238      11.54925449       8.98687462       0.00768690       0.02980766      -0.00538293
H       11.05337376       7.92472398       9.69238132       0.01805708       0.02408740      -0.00010235
H       13.15721592       9.25405208       9.84973871       0.01742861       0.02443957      -0.01170882
C        3.94677428       3.59419238       8.08629582      -0.01147193      -0.00796545      -0.00854488
C        3.46213476       2.48924133       8.78893795      -0.01278181      -0.00800583      -0.00836191
C        3.19100232       4.76725706       8.07564182      -0.01123419      -0.00770819      -0.00768097
C        5.27603811       3.54125885       7.38650594      -0.01297078      -0.00906686      -0.00927509
C        2.26091507       2.56618763       9.48460504      -0.01234313      -0.00811069      -0.01041688
C        1.99054470       4.84507243       8.77249891      -0.01201053      -0.00863597      -0.00917102
C        1.52565723       3.74557149       9.48637970      -0.01220827      -0.00967521      -0.01103826
H        4.04229727       1.57347593       8.81351318      -0.01182052      -0.00719073      -0.00918931
H        3.51426628       5.66261844       7.55075845      -0.01103026      -0.00764707      -0.00788562
H        5.75914328       4.51843804       7.41247873      -0.01099360      -0.01013371      -0.00961277
H        5.94352216       2.81575283       7.85295243      -0.01349901      -0.01049004      -0.01083501
H        5.16955020       3.26345946       6.33493859      -0.01436727      -0.00840472      -0.00922599
H        1.90163313       1.70884577      10.04960742      -0.01308070      -0.00945552      -0.01048654
H        1.44687430       5.78155691       8.76661933      -0.01282267      -0.00938761      -0.00970819
H        0.60170020       3.80512817      10.04828847      -0.01358443      -0.00971473      -0.01225066
C        5.26397462      10.37774331       8.27908975      -0.00485898       0.00790565       0.00588287
C        5.26782449      11.69098622       7.80162856      -0.00647634       0.00879741       0.00805104
C        5.11595061       9.34344109       7.36038698      -0.00255287       0.00939330       0.00383832
C        5.35817897      10.07944547       9.74443502      -0.00796847       0.00574622       0.00515026
C        5.11954008      11.95859120       6.44700157      -0.00649909       0.01076941       0.00876149
C        4.94144411       9.60584473       6.00810116      -0.00134484       0.01141594       0.00442716
C        4.94940529      10.91262204       5.54551202      -0.00408548       0.01235713       0.00664681
H        5.41481091      12.50554646       8.50156684      -0.00895299       0.00742720       0.00986034
H        5.04704944       8.32190163       7.70611726      -0.00237700       0.00893080       0.00194596
H        5.82943099       9.10977232       9.90810620       0.00744493       0.01396067       0.00630005
H        5.93074724      10.84202737      10.27410364      -0.02391714       0.01341490       0.00996710
H        4.35071233      10.01155518      10.16535270      -0.00891986      -0.01169274      -0.00124590
H        5.13002473      12.98243642       6.09474699      -0.00988877       0.01154186       0.01098510
H        4.74430637       8.78401123       5.33412877       0.00025601       0.01264027       0.00280766
H        4.79513542      11.11446349       4.49367256      -0.00447518       0.01420584       0.00719947
C        1.01670653       8.41176357       2.91984566      -0.00585417      -0.00120636      -0.01604903
C        1.09895756       8.01350747       4.25410589       0.01305044      -0.00390586      -0.01863092
C        0.83281573       7.42996547       1.94724032      -0.01784011       0.00080947      -0.01567051
C        1.19411810       9.85625870       2.57190385      -0.01559031      -0.00034034      -0.01668104
C        1.02424366       6.67539966       4.61146576       0.01982799      -0.00435100      -0.02183726
C        0.77111377       6.08442596       2.29472686      -0.01218596       0.00059450      -0.01813279
C        0.87033954       5.70583523       3.62787773       0.00613206      -0.00296102      -0.02088498
H        1.23132674       8.76487804       5.01861779       0.02334973      -0.00622100      -0.01791328
H        0.76971482       7.72243068       0.90399489      -0.03199942       0.00334785      -0.01357001
H        0.90940552      10.06213544       1.53922135      -0.01672157      -0.00483190      -0.01686826
H        0.61285343      10.49723787       3.23029417      -0.01912409      -0.00457796      -0.01619315
H        2.24171653      10.13810819       2.70249261      -0.01747921       0.00655671      -0.01894623
H        1.09808912       6.41790894       5.65895741       0.03505214      -0.00677552      -0.02291015
H        0.65669656       5.33079070       1.52318325      -0.02415876       0.00183521      -0.01833583
H        0.81558007       4.65843573       3.90175391       0.01017893      -0.00321081      -0.02235409
C        9.16335502       5.90877532      10.68676613       0.01025793      -0.00488240       0.00136957
C        8.56249465       7.16548691      10.68911077       0.01271614      -0.00349326       0.00192985
C       10.19834824       5.67587063      11.59143483       0.00730664      -0.00770025       0.00366933
C        8.68022057       4.83100289       9.76089130       0.01166739      -0.00227052      -0.00201589
C        8.96389952       8.15654565      11.57334988       0.01231203      -0.00548097       0.00308011
C       10.61096473       6.66612781      12.47519574       0.00684407      -0.00955544       0.00518386
C        9.99004592       7.90999472      12.47540994       0.01018299      -0.00782374       0.00463969
H        7.74503761       7.35636583      10.00367256       0.01529284      -0.00075697      -0.00050315
H       10.67343194       4.70132926      11.61154747       0.00535478      -0.00879159       0.00389409
H        8.88796561       3.83916951      10.16246161       0.01583117      -0.00309594      -0.00676960
H        7.60384772       4.91616083       9.60356331       0.01117766      -0.00543085       0.00048364
H        9.16730349       4.90235845       8.78465682       0.00921015       0.00404062      -0.00246564
H        8.48848961       9.12957059      11.55168407       0.01403072      -0.00443760       0.00343212
H       11.41665808       6.46664129      13.17060080       0.00412534      -0.01177973       0.00742866
H       10.31169691       8.68866097      13.15459199       0.01052178      -0.00906602       0.00550425
C        8.80018217       7.07051894       5.15994999       0.00839642      -0.00170993       0.00442874
C        8.98468362       5.73021899       5.49542906      -0.00873973      -0.00594665      -0.00565234
C        9.45462813       7.57048007       4.03446625       0.01843689      -0.00116393       0.01111861
C        7.95816869       7.97297492       6.00105267       0.01778147       0.00269690       0.00880504
C        9.79645286       4.90766813       4.72364476      -0.01486156      -0.00896206      -0.00888661
C       10.25984699       6.75226316       3.25971401       0.01401576      -0.00317827       0.00879031
C       10.42721172       5.41505098       3.59621537      -0.00203812      -0.00742599      -0.00047764
H        8.49347674       5.33102161       6.37628704      -0.01706851      -0.00746268      -0.01142316
H        9.35996020       8.61816344       3.77827641       0.03216433       0.00116548       0.01844567
H        7.43924735       8.71645593       5.39840098       0.01935176       0.00558187       0.01152466
H        7.20918919       7.41957918       6.56748820       0.01802124       0.00745563       0.01454926
H        8.58545050       8.52576536       6.70153087       0.02620429      -0.00042735       0.00303322
H        9.94649469       3.87402579       5.01101837      -0.02847243      -0.01239018      -0.01667589
H       10.77768251       7.16964372       2.40839244       0.02314439      -0.00216538       0.01555710
H       11.06796000       4.78267176       2.99700392      -0.00535788      -0.00932609      -0.00212742
C        4.93217631       9.84446041       1.58410497       0.00547455       0.00731716      -0.00400838
C        5.90502288       9.34317673       2.45151855       0.00369045       0.00579827      -0.00511147
C        3.98301435       8.95852637       1.07524384       0.00183028       0.00506388       0.00272511
C        4.89605436      11.29963243       1.21080824       0.00652890       0.00510195      -0.01569933
C        5.90681306       8.00277898       2.82174862       0.00333497       0.01352632       0.00673188
C        3.98076842       7.62280389       1.44851465      -0.00001706       0.00504902       0.01139221
C        4.93262314       7.14375879       2.33438278       0.00072104       0.01271626       0.01372395
H        6.65826658      10.01056722       2.85633679       0.00737391       0.00714195      -0.01290286
H        3.23228123       9.32264430       0.38282350       0.00463359      -0.00112642       0.00254959
H        3.88522571      11.60716644       0.93425331      -0.00264406       0.00463091      -0.03126383
H        5.22907316      11.92477759       2.04025849      -0.00027784       0.00860684      -0.01883268
H        5.55006752      11.51525607       0.36230905       0.01149452      -0.00328515      -0.01115745
H        6.67236388       7.62675404       3.48754935       0.00154328       0.01600390       0.00871581
H        3.24725910       6.94875593       1.03377067      -0.00133061       0.00577752       0.01748750
H        4.93277422       6.09810881       2.61283904      -0.00120038       0.01464814       0.02215295
C        5.67857616       4.04634319      11.87907433      -0.00210268      -0.01579687       0.00315329
C        4.74979026       4.83277518      11.19532754       0.00043833      -0.01554842      -0.00015341
C        6.62102117       4.68560331      12.68389478      -0.00259635      -0.01538663       0.00296611
C        5.70437175       2.55724607      11.70311475      -0.00663823      -0.01645878       0.00990684
C        4.79605417       6.22182181      11.25718481       0.00121439      -0.01576096      -0.00078662
C        6.65814955       6.06795976      12.77082727      -0.00099204      -0.01561581       0.00144899
C        5.76291403       6.83788982      12.03980199       0.00002516      -0.01541442       0.00031994
H        3.98839568       4.35600082      10.59587460       0.00070085      -0.01510777      -0.00048501
H        7.34607729       4.09242852      13.22974425      -0.00465024      -0.01559312       0.00578656
H        6.26041816       2.06534331      12.49989030      -0.01219131      -0.01402588       0.01477414
H        4.69641026       2.14342338      11.66217411      -0.00803092      -0.01292857       0.00760247
H        6.19893372       2.29121691      10.76463478      -0.00257342      -0.02374441       0.01445743
H        4.07814977       6.81449292      10.69772809       0.00215808      -0.01590754      -0.00188299
H        7.40111998       6.55023430      13.39223376      -0.00130971      -0.01558726       0.00190134
H        5.81088652       7.91711269      12.09860156      -0.00031840      -0.01567848       0.00037464
