143
Lattice="12.641176984187132 0.0 0.0 0.0 12.641176984187132 0.0 0.0 0.0 12.641176984187132" Properties=species:S:1:pos:R:3:forces:R:3 energy=-647939.6875 stress="-0.00019788797362707555 5.1954084483440965e-05 4.570249257085379e-05 5.1954084483440965e-05 -0.00014775877934880555 6.197325546963839e-06 4.570249257085379e-05 6.197325546963839e-06 -0.0005827344139106572" pbc="T T T"
Au      11.93127751      12.97132925       0.27245779      -0.01220459       0.00451937       0.00300021
O       10.42633429      12.49761229       1.53905173      -0.01589784       0.00110954      -0.00230744
H        9.59218221      12.79602559       1.16024763      -0.01636227      -0.00323372      -0.00452842
O        0.66802714      13.35754551      11.58441760      -0.00706859       0.00837813       0.00972817
H        1.51379040      13.44993095      12.03791060      -0.00888944       0.00606168       0.01378122
O        3.90004398      12.01332278       2.16609304      -0.00863256       0.00178558      -0.01345468
H        3.86936775      11.54752954       3.00596040       0.01154439      -0.00562447      -0.01684010
O        7.66393464       3.00056500       2.02437951       0.00271630      -0.00121534       0.01441884
O        6.16366353       4.44262064       2.87446038       0.00401306       0.01278204      -0.00730261
C        8.50443728       4.91294853       3.07240977       0.00513697      -0.00022584       0.01028952
C        7.30519052       4.09486114       2.65755916       0.00404990       0.00442788       0.00519238
H        9.17928550       4.30801952       3.67747713       0.00666018      -0.00431929       0.00418683
H        9.04702034       5.21805317       2.17750767       0.00290498       0.00624058       0.01112634
H        8.17560927       5.78910518       3.62499492       0.00716133      -0.00337080       0.01636564
H        6.88073273       2.54030871       1.53199145       0.00636021       0.00410033       0.00434425
O       12.53681523       0.63424354       8.31197766       0.01713508      -0.01380223       0.00370109
O       13.01312620       2.76525061       7.88500031      -0.00103015      -0.01828140      -0.03290504
C       11.46728928       2.24551879       9.65887856       0.01397604      -0.00152090      -0.01442349
C       12.39927485       1.94360185       8.54517085       0.00833011      -0.01198506      -0.01563570
H       10.63862668       1.53856478       9.68520067       0.01452982      -0.00184190      -0.00427062
H       12.04445827       2.09229300      10.58116189       0.01755744       0.00636360      -0.01527750
H       11.12753307       3.27523819       9.59634370       0.01216556      -0.00277059      -0.02278787
H       13.21641047       0.54740775       7.62696303       0.01103127      -0.01890001      -0.00172582
O       11.12458962       3.96293800       6.44975585      -0.00511575       0.00664604       0.00619797
O       12.16854813       5.81890721       7.14025418      -0.00183964       0.00274399       0.01039341
C        9.80329284       5.89048249       6.73320020       0.00106996       0.01140544      -0.00232662
C       11.15582930       5.25477644       6.79023891      -0.00154555       0.00628385       0.00515954
H        9.23368615       5.54506668       5.87340668       0.00637251       0.01577380      -0.00754982
H        9.24054849       5.58019339       7.61782380      -0.00695832       0.01011388      -0.00806770
H        9.89064712       6.97198697       6.73668964       0.00436551       0.01104850       0.00187328
H       11.98214232       3.57008923       6.73583702      -0.00737542       0.00202924       0.01000148
O        2.50694521       7.28683003       2.90897005      -0.00374281       0.00678036       0.00637951
O        3.78886693       9.05822061       3.38861075      -0.00306815       0.00919461      -0.00086880
C        4.72405499       7.22808758       2.14130627      -0.00500453       0.00329351       0.00496548
C        3.65599545       7.96379988       2.86872280      -0.00499746       0.00509548       0.00193375
H        5.00786671       6.32251770       2.68365534       0.00292362       0.01170111       0.01463961
H        4.34697623       6.89198316       1.17727506      -0.00858913      -0.01166707       0.01188658
H        5.59313907       7.85473804       1.98817016      -0.00846438       0.00484011      -0.00714207
H        1.80645054       7.82945682       3.32428400      -0.00438612       0.00795074       0.00482999
O        4.50488324      10.46081661       9.18748406      -0.00369000      -0.00617187       0.00795624
O        5.80558089       8.64445997       9.30760375       0.00271125      -0.00092101      -0.00411883
C        6.57465474      10.71382873      10.26243168      -0.00055999      -0.00422978       0.00213426
C        5.61174547       9.82424677       9.55354405       0.00060079      -0.00545186       0.00126103
H        6.86013855      11.54538169       9.61788521       0.00267000      -0.00675209       0.00025221
H        6.08329775      11.13068504      11.14096919      -0.00123207      -0.00019884      -0.00016466
H        7.46038890      10.16324233      10.55711734      -0.00217715      -0.00515835       0.00499188
H        3.81154857       9.80585561       8.96880629      -0.00204713      -0.00754070       0.00719653
O        2.17760872       7.86981388      -0.21377461       0.00024938      -0.01746988      -0.00093617
O        3.59987313       9.36923616      -1.06946515       0.03421307      -0.01870424      -0.02751207
C        1.97526149      10.10459884       0.54599079       0.00659215      -0.01159710      -0.01507121
C        2.68970470       9.12799480      -0.32198854      -0.03355587      -0.02177340       0.02804250
H        1.27367891      10.65434494      -0.08960723       0.01056419      -0.00940022      -0.01867353
H        1.40931634       9.61430871       1.33482774      -0.00625250      -0.00302876      -0.01228360
H        2.67846711      10.82427615       0.97245977       0.00238624      -0.01066107      -0.00917250
H        2.48841292       7.30480892      -0.95514291      -0.00653005      -0.01855424       0.00537872
O        4.21876728       2.65383303      12.39859296       0.01218700      -0.00667429       0.00219131
O        6.17385748       1.79437894      13.11368983       0.02541959       0.00945330      -0.01451755
C        5.75216270       1.84982843      10.78397901      -0.00363725      -0.01152597      -0.00890291
C        5.34526932       2.11482824      12.22744851       0.01244953      -0.00237486      -0.00599265
H        4.92620996       1.41631040      10.22010805      -0.01098820      -0.01178055       0.00251429
H        6.00659729       2.80372111      10.31344773      -0.00548169      -0.01443198      -0.01550569
H        6.62852492       1.20525642      10.75269096      -0.00585644      -0.01400550      -0.01551793
H        3.75557046       3.15987306      13.71557310       0.01181177      -0.00400432      -0.00028130
O        2.28294711       8.79243295       8.56808132      -0.00076458      -0.00672661       0.00410789
O        0.94360255       8.62839227       6.77686462      -0.00372756       0.01320756       0.01004100
C        3.31344881       8.36069892       6.48734360      -0.01117539       0.00013037      -0.00248575
C        2.05157920       8.60374777       7.25444225      -0.01267934       0.00351509       0.00082697
H        3.36605676       9.02769243       5.62808162      -0.01553155      -0.00375724      -0.00563872
H        4.19445997       8.46338418       7.11589368      -0.00814077       0.00184590      -0.00779679
H        3.27548709       7.34375269       6.09465376      -0.01409243      -0.00196415       0.00286414
H        1.43273690       8.78095978       9.07792492      -0.00049952      -0.00530102       0.00630725
O        8.65377225       7.80847809      11.15634063      -0.00757998       0.00181967       0.00306922
O        7.12540773       7.75314495      12.79118977       0.01078421      -0.01480079       0.01818836
C        7.19147745       5.95023182      11.21593725      -0.00440893      -0.00027168       0.00046137
C        7.62008664       7.26590218      11.79972487       0.00103422      -0.00578034       0.00862730
H        7.15051276       5.98166930      10.12914591      -0.01121624       0.01080301       0.00133675
H        7.92922055       5.19339110      11.49564416      -0.00352247      -0.00389887      -0.01226138
H        6.23181778       5.65580994      11.62863082      -0.00163299      -0.00370734       0.00441869
H        9.02908669       8.58752325      11.72301903      -0.00533311       0.00024319       0.00495161
O       10.40053143      10.13679252       1.97344285      -0.00480598       0.00105622       0.00141764
O        9.68733019       9.66167800      -0.08564696      -0.00628439      -0.00009000       0.00230110
C       10.04531409       7.87172762       1.48233010       0.00311721      -0.00011337       0.00041685
C       10.03693419       9.32071397       1.05873778      -0.00226814       0.00019753       0.00268638
H       11.00565411       7.63616777       1.93869333       0.00007054       0.00443834       0.00878352
H        9.26056898       7.72945317       2.22466780      -0.00336246      -0.00562773      -0.00765747
H        9.87045466       7.20434674       0.64629085       0.01417272      -0.00002299      -0.00175244
H       10.37469677      11.34837315       1.67155865      -0.01044326       0.00402588      -0.00090642
O        7.07020399       4.03927519       5.69459039      -0.00693423       0.01514691       0.01323718
O        6.68500923       4.19723031       7.89985945       0.03871197       0.02288538       0.02080166
C        7.81971502       2.26182959       7.03391353      -0.00287080       0.00787419       0.00198315
C        7.12091787       3.58690893       6.95288018       0.01275891       0.01509041       0.01104969
H        7.54057449       1.62088267       6.20010741      -0.01381177       0.01503085       0.00066780
H        8.89451979       2.44141068       6.95786948      -0.00158525      -0.00234992      -0.00184886
H        7.60929185       1.78352909       7.98488123      -0.00241853       0.00604611       0.00116880
H        6.67344040       4.93027977       5.67828935       0.00850156       0.02234563       0.02082498
O        2.21426751       5.54594253       8.07861739      -0.00354880      -0.00399175      -0.00310647
O        2.01924570       6.12226514      10.23972503      -0.00615788      -0.01095991      -0.00414634
C        4.19819607       5.77556654       9.31983802      -0.00570583      -0.00472420       0.00119892
C        2.71256333       5.84509732       9.27788106      -0.00850600      -0.00608431       0.00122160
H        4.46797145       4.88374564       9.88905415      -0.00523668      -0.00072673       0.00684583
H        4.64402408       5.70249742       8.33351401      -0.00406732      -0.00783677       0.00244197
H        4.58690752       6.64639519       9.84438867      -0.00831028      -0.00140797      -0.00256620
H        1.23725557       5.57683363       8.05633362      -0.00422245      -0.00282556      -0.00508641
O       11.64666168      11.07013042      10.22158662      -0.00042224       0.00134319       0.00263417
O        9.73488166      12.14052891       9.71855442       0.00384569       0.00554407      -0.00640154
C       10.18757420       9.99756345       8.73437625       0.00132033       0.00067687       0.00177664
C       10.47887595      11.19021531       9.59807210       0.00291991       0.00172126      -0.00113595
H       11.10585709       9.56215029       8.34418149       0.00093667       0.00171204      -0.00060531
H        9.69592766       9.24042613       9.35025947       0.00487050       0.00076401       0.00455065
H        9.50524234      10.27541210       7.93556376      -0.00138925      -0.00178345       0.00334072
H       11.80594079      11.84144195      10.80441377       0.00017370       0.00309382       0.00063995
O        6.92772709       8.90896421       6.84017334      -0.00730278       0.01197955      -0.00373006
O        6.75154869       7.00190240       5.67035337       0.00179842       0.00028551       0.01720046
C        6.99304427       9.09971495       4.50798094       0.00630957      -0.01493496      -0.00516129
C        6.88719259       8.20766396       5.70387816       0.00019320      -0.00185645       0.00385101
H        7.42172509      10.06246465       4.77126804       0.02339465      -0.01978485      -0.01762831
H        7.57095395       8.62350405       3.72094159      -0.00745363      -0.03244372      -0.00391011
H        5.98057504       9.26222507       4.12285678       0.00642571      -0.00188104       0.00071003
H        6.69714520       8.36576085       7.62107180      -0.00952246       0.01926398       0.00065354
O        3.56787104       1.94604087       3.20239658       0.02282053      -0.00253892      -0.00121701
O        3.35455717       3.73024083       1.84467417       0.00694945      -0.00558543      -0.00164700
C        2.91155549       4.05038332       4.11925349       0.00643209      -0.00691998      -0.00176072
C        3.31403425       3.12496623       3.00270701       0.01284659      -0.00503385      -0.00110132
H        2.06022935       4.66317200       3.82527092       0.01056974      -0.00433621      -0.00725994
H        2.69782165       3.48699781       5.02397609      -0.00150576      -0.00756762      -0.00406595
H        3.74495109       4.73125852       4.30332259       0.00676782      -0.00951062       0.00612130
H        3.86459377       0.31628486       2.40050970      -0.00066611      -0.00053746      -0.00466150
O       10.88770852       8.31058166       4.80957325      -0.00567389       0.02080274       0.00459725
O       12.76697427       8.31254371       3.62103489      -0.00618631       0.00625741       0.00761181
C       12.09004471      10.33425527       4.74785828       0.00431753       0.01442343      -0.00537291
C       11.99221557       8.91051712       4.33164112      -0.00043035       0.01113027       0.00021175
H       11.31088179      10.88688100       4.22243891       0.00476412       0.01468104      -0.00543740
H       11.92750744      10.41369928       5.82017304       0.00798317       0.01958222      -0.00542104
H       13.06450669      10.72390476       4.47308935       0.00503564       0.00901633      -0.01034687
H       10.90580561       7.40255160       4.47463111      -0.00998148       0.01908016       0.00856587
O       12.32455362       7.18923485      12.02688050      -0.00599855      -0.00474441       0.00013840
O       12.88145248       8.40715526      10.23782268       0.00286448       0.00181913       0.00563377
C       11.34663847       6.57260966       9.99477718      -0.00830901       0.00966954      -0.00104809
C       12.25391889       7.49285293      10.73627763      -0.00429404      -0.00052804       0.00468254
H       11.87206153       5.61993590       9.90621730      -0.01338762       0.00729337      -0.00493338
H       10.42327196       6.42038345      10.54670190      -0.00909051       0.01237482      -0.00161038
H       11.15237180       6.96243001       9.00433899      -0.00623766       0.01439994       0.00066994
H       13.12919888       7.62742414      12.39307200      -0.00267468      -0.00861266       0.00362299
