148
Lattice="11.36268216831524 0.0 0.0 0.0 11.36268216831524 0.0 0.0 0.0 11.36268216831524" Properties=species:S:1:pos:R:3:forces:R:3 energy=-866103.75 stress="0.00038586751907132566 -0.00017284534987993538 0.0018803743878379464 -0.00017284534987993538 0.0022455151192843914 0.000634244381217286 0.0018803743878379464 0.000634244381217286 0.0011110557243227959" pbc="T T T"
Au      11.01129375      12.01055259       0.43193949       0.01282912      -0.00098677      -0.00938277
Br       2.58723177       4.12898086       1.73470715       0.00250133      -0.01183388      -0.00860069
O        2.59626876       5.76224929       1.76584204       0.01553346      -0.01112580       0.00066440
O        3.55440164       3.63035535       0.52969376       0.01050919      -0.01041132      -0.00338364
O        3.16325297       3.57797425       3.13803391      -0.01271874      -0.02430165      -0.00605500
O        1.06914261       3.62062638       1.47975585       0.00309837      -0.00042313      -0.02317201
Br       8.75202772       9.20692937       2.32074680       0.00261256       0.00110996       0.00523020
O        9.89589344       9.34862710       1.18900798      -0.00564075       0.02575801       0.00394344
O        9.42567122       9.45310917       3.79778276       0.00247413      -0.00026036       0.00504696
O        7.60712957      10.32862354       2.11360397      -0.01505339      -0.00457752       0.01865375
O        8.11519664       7.71247355       2.23742803       0.01286477      -0.00035751      -0.00295463
Br       2.17137070       6.68300027       7.97224126      -0.00173441       0.00438035       0.00791940
O        2.69274384       6.84225987       6.45790985       0.00217980       0.00360055       0.00798929
O        3.38127089       6.04859554       8.90113233      -0.00218797       0.00645104       0.01014423
O        1.77444482       8.12530447       8.59615384      -0.00422639       0.00345445       0.00682667
O        0.91923988       5.66884831       8.07637840       0.00021660       0.00203168       0.00534888
O        3.74078973       9.19251110       3.90016409      -0.01321577      -0.01481593      -0.01733518
H        4.12801611      10.08748577       3.70863223      -0.01110795      -0.01573282      -0.01775531
H        3.62734420       9.16067458       4.85883079      -0.01821313      -0.01168022      -0.01719010
O        9.47630844       5.58068144       6.98942086       0.00185466       0.00495392      -0.00605763
H        9.73338053       5.76432047       7.91764733      -0.00093257       0.00087553      -0.00397739
H       10.30546263       5.66778933       6.46236474       0.00452346      -0.00101290      -0.00220257
O       -0.79844567       9.29488154       9.81119306      -0.01334324       0.00553828      -0.00874919
H       -0.67679626       9.65357511       8.91738765      -0.02101249       0.01070750      -0.00818324
H       -1.04813347       8.35172992       9.71325141      -0.00888605       0.00421798      -0.01118342
O        5.53196746       5.16732763       5.43605935      -0.01561511      -0.00591534       0.01020604
H        6.28906689       4.55958428       5.41980966      -0.01036623      -0.00090015       0.01084659
H        5.52350185       5.68484332       4.60918820      -0.01348218      -0.00114906       0.01363999
O        1.90675518       0.90169838       2.49553152      -0.00552400      -0.01206416      -0.00764567
H        1.57193264      -0.01242258       2.58067960      -0.01237336      -0.00967395      -0.00600154
H        1.53571887       1.35643282       3.27192536       0.00595744      -0.00940841      -0.00424871
O        8.06622974       1.41053960       7.90136457      -0.01018785       0.00976390       0.00068131
H        8.01956495       2.01373367       7.13011347      -0.00553703       0.01633213       0.00465545
H        8.56217024       0.61865708       7.62004294      -0.01057380       0.01184654      -0.00227013
O        6.41241773       8.20823018      -0.23793180      -0.01424257       0.01369077       0.00818378
H        6.94667809       7.96678076       0.52899640      -0.00980765       0.01035953       0.00756145
H        5.64806169       8.73212274       0.12072602      -0.01277950       0.00915155       0.01303996
O        3.64944844       3.38156127       8.06575585      -0.00456646       0.01230363      -0.00217079
H        3.27965342       3.46246505       7.16000861      -0.00885506       0.01518863      -0.00120059
H        3.65651202       4.29297153       8.40541078      -0.00153162       0.01041117       0.00128888
O        7.55042793       9.29665491       8.97690071       0.00594759      -0.00628346       0.00355625
H        8.39310535       9.65836584       9.28185905       0.00457174      -0.00574404       0.01019610
H        7.14464537       8.89054028       9.78587105      -0.00292948       0.00099277       0.00149307
O        8.47445239       8.16355837       6.73997294       0.01078790       0.00794334       0.00181282
H        8.01874456       8.37133572       7.59048596       0.01003316       0.00428949       0.00248596
H        8.81735602       7.24847479       6.81024673       0.01272357       0.00827163      -0.00023711
O       10.46679466       5.52094840       0.57182586      -0.00273395       0.00822203       0.00046670
H       11.13041906       4.82888018       0.70068138      -0.00029811       0.00151324      -0.00710520
H        9.62216896       5.16241286       0.95047593      -0.00077483       0.00489751      -0.00349040
O        8.24931784       2.92466468      10.13941321       0.00453257       0.00307053       0.00644645
H        7.91547209       3.82770564       9.94430409       0.00065938       0.00222215       0.01163916
H        8.29874635       2.42039597       9.29718470      -0.00174814       0.00573476       0.00632194
O        9.72470321       6.61100260       9.57208118      -0.00344497       0.00233498      -0.00435081
H        8.77533192       6.41180411       9.71456554      -0.00373662       0.00243445      -0.00332040
H       10.14681474       6.18112160      10.34855953      -0.00305095       0.00677615      -0.00247818
O       12.08718281       1.62607213       5.01082887       0.01216710      -0.00135517      -0.00113671
H       12.43240362       0.83630025       5.49510375       0.00651336      -0.00524199      -0.00278498
H       11.23018844       1.34140486       4.59731177       0.01156348       0.00362787      -0.00256942
O        9.75150137       2.19202846       0.74313316       0.02069712       0.00323939      -0.00026972
H        8.91079692       1.84615335       1.14012043       0.02074024       0.00590317       0.00507957
H        9.37720218       2.58326898      -0.10532111       0.01499090       0.00363657       0.00150545
O        2.18970855       7.93464901      11.37004623       0.00194952      -0.01260449       0.00592858
H        2.40056199       7.02512759      11.61181169       0.01255761      -0.00844461      -0.00184102
H        2.06943576       7.94839000      10.40720503      -0.00082960      -0.00648584       0.00335646
O        5.81125106       6.45008410       7.73399789      -0.00460356       0.00070125       0.00403766
H        4.93516052       6.31493131       8.14205403      -0.00471595       0.00533698       0.00581312
H        5.74758526       5.99224686       6.85077665      -0.00853588      -0.00259402       0.00592533
O        1.25888002       0.05280879       8.77774986      -0.00447500       0.01156336      -0.00779004
H        1.11111773       1.02447417       8.81865242      -0.00277212       0.01120347      -0.00485408
H        1.84813366      -0.13125065       9.52206132      -0.00309521       0.00840673      -0.00892279
O        4.27660380       0.59920070       6.26506028      -0.00573862      -0.00474274      -0.01283178
H        3.46220031       0.06210386       6.29028055      -0.00258943      -0.00834328      -0.00794054
H        4.53599395       0.77937843       7.19000659      -0.00533819       0.00260279      -0.01340437
O        9.94672750      12.24428344       3.69579460       0.00823751      -0.00107359       0.00172359
H        9.05376090      12.67296892       3.71413818       0.00869784      -0.00161301       0.00510233
H        9.77163280      11.29178803       3.79235454       0.00956535      -0.00164568       0.00576283
O        5.38439198       1.37001853       8.67964988      -0.01381826       0.00227159      -0.01520857
H        5.03925077       2.25271004       8.44494046      -0.02001118       0.00525174      -0.00804060
H        6.33510064       1.33256380       8.44505145      -0.01464069       0.01088516      -0.01011573
O        0.21084578       7.20631536       2.58438570      -0.00255769      -0.02675271       0.00082731
H        1.02190731       6.68921546       2.47200818       0.01042312      -0.00496495       0.00462902
H       -0.32864005       6.92697727       1.82314262       0.00391623      -0.04935367       0.00124952
O        7.17989688       1.53201107      12.38562913       0.01308089      -0.03149059       0.03128925
H        7.10384831       1.91786288      11.49897342       0.01596227       0.00909173      -0.00143287
H        6.95671530       0.59340911      12.33163871       0.03236464       0.02967840       0.02192422
O       11.69324632       8.67435147       5.37564931       0.00250438      -0.01320718      -0.00170457
H       11.06472051       8.82350573       4.65379145      -0.00063473      -0.01219772       0.00152802
H       11.83693088       7.71171316       5.37267660       0.00387043      -0.01341057      -0.00246260
O        0.18000960       5.82984543       5.29328381       0.00912566      -0.01099627       0.00244492
H       -0.18510020       5.51504155       4.45140943       0.01591548      -0.00246975      -0.00312760
H        0.90712955       5.21554251       5.52043307       0.00885111      -0.01260236       0.00213786
O        5.87109342       5.39425668       0.95768574       0.00552511       0.00855553       0.01077694
H        5.57603557       6.02644037       1.65646299       0.00561634       0.00602305       0.01255904
H        5.15388236       4.75882578       0.82399365       0.00695869       0.00622514       0.01050262
O        9.82474496      10.47236223       7.26684048       0.00367890       0.01069868       0.00462657
H        9.44595350       9.63878303       6.90389215       0.00853233       0.01023439      -0.00082375
H       10.62432546      10.62269047       6.75248343       0.00058502       0.02352181       0.00464293
O        1.41637251       9.60290470       2.46855919      -0.01933528      -0.01290908      -0.01338905
H        0.85910113       8.79130842       2.53095230      -0.02133077      -0.01124117      -0.01128341
H        2.26150665       9.38110255       2.92182448      -0.01745850      -0.01622357      -0.01957561
O        2.12659929       3.81326559       5.76014168       0.00878061      -0.00312883       0.00157204
H        1.59569777       3.02025713       5.51157559       0.01061979      -0.00417900       0.00177443
H        2.69054810       3.96276440       4.98737929       0.01325947      -0.00531209       0.00357276
O        7.79836550       3.47914465       6.06204904      -0.00498518       0.00979707       0.00283238
H        7.92108970       3.15493086       5.14907555      -0.00764595       0.00428186       0.00409779
H        8.45311072       4.17211346       6.27900414      -0.00427780       0.01069701      -0.00155244
O        8.26430736       4.47584678       1.64239634       0.00524089      -0.00282332      -0.00744355
H        8.41332859       4.45116429       2.59404938       0.01636556      -0.00624590      -0.00964689
H        7.35469205       4.81798858       1.47748320       0.00473684       0.00177568       0.00233531
O        1.13844686       2.71375025       9.01885186       0.00108397       0.01273961       0.01109827
H        0.61811943       3.40907664       8.60605200       0.00464189       0.02485672       0.01930213
H        2.06301589       2.93633928       8.78164361      -0.00002605       0.00871885       0.00934450
O        6.81365965      11.38579500       5.31555610      -0.00000644       0.00232737      -0.00227523
H        5.89779042      11.44818413       5.65131721      -0.00162077      -0.00066824      -0.00459307
H        6.87893109      10.49284254       4.91706582       0.00246985       0.00432813      -0.00511554
O        1.71737188      10.81917238       6.27132406      -0.00728998      -0.01048411      -0.00410974
H        1.57839856      10.89940495       7.25280108      -0.00710979      -0.00424223      -0.00462440
H        1.34921361       9.95829808       5.97144249      -0.00898823      -0.01133469      -0.00046958
O        5.10322905       8.98071854       6.92113592       0.00610244       0.00407475       0.00287756
H        5.38453580       8.11168740       7.28237395       0.00316535       0.00353670       0.00428748
H        5.65242847       9.61531134       7.39774829       0.00682068       0.00348109       0.00354311
O       10.19348814       3.94020885       3.66401737       0.01354600      -0.00028298      -0.00641600
H       10.40639340       3.34557489       4.39216033      -0.00623036       0.00423637      -0.01665235
H       10.51782203       3.47674078       2.88046495       0.02734320      -0.00454734      -0.01451352
O        3.73391042       0.61951123      -0.59691725      -0.00688484       0.00269184      -0.01183496
H        4.39256911       0.91379130      -1.25627077      -0.00528902       0.00146747      -0.01302457
H        3.53762628       1.38790924      -0.04882701      -0.00367342       0.00289392      -0.01313195
O        5.37035003       6.92626616       3.13703449       0.00153688       0.00110444       0.01256226
H        4.61532175       7.53459094       3.22461000       0.00281611       0.00387263       0.00963337
H        6.10643191       7.49306614       3.45717430       0.00102487      -0.00059831       0.01771806
O        4.30188261       9.56054615       0.66547410      -0.01939389       0.00789287       0.01902533
H        3.52795517       9.01135126       0.42746135      -0.01408005       0.00032726       0.01423189
H        4.13270978      10.43555968       0.26665797      -0.01775119       0.00122660       0.00499809
O        7.52213350       1.99807793       3.79748051       0.01066317       0.00456440       0.00569323
H        7.11558936       1.22466262       4.29228223       0.00638925       0.00471875       0.00321639
H        7.12724455       2.01259520       2.91279221       0.01899800       0.00512046       0.00303119
O        6.73276186       8.67355615       4.72900688       0.00036806      -0.00276395       0.00641233
H        7.47987778       8.43905826       5.32439276       0.00407726      -0.00117655       0.00261216
H        5.98945374       8.73087171       5.36558215       0.00502527       0.00397154       0.01242396
O        4.42726064       0.41493854       3.41968978      -0.00166082      -0.01948800      -0.01049507
H        3.58006656       0.69890955       3.01012631       0.00058150      -0.01775733      -0.01346272
H        4.42557106       0.82707238       4.29525215      -0.00390356      -0.01835161      -0.01039177
O        7.23165724       5.46817473       9.80728366      -0.00370362       0.00523496       0.00608876
H        6.69688076       5.73461798      10.57711874      -0.00064561       0.00861031       0.00715125
H        6.75222883       5.80128710       9.01013264      -0.00637812       0.00107696       0.00640416
O        0.87278328      10.46610350       0.04569184       0.00192377      -0.00942320      -0.01513049
H        0.30199097       9.84629323      -0.51230887      -0.00535285      -0.00237657      -0.01657116
H        1.14665037      10.01286103       0.89633057      -0.00677130      -0.01330819      -0.01383343
