143
Lattice="12.625899732681754 0.0 0.0 0.0 12.625899732681754 0.0 0.0 0.0 12.625899732681754" Properties=species:S:1:pos:R:3:forces:R:3 energy=-649320.0625 stress="-0.001366536132991314 0.00038544030394405127 -0.0011157325352542102 0.00038544030394405127 -0.0006219368660822511 0.0014828068669885397 -0.0011157325352542102 0.0014828068669885397 -0.0007645739824511111" pbc="T T T"
Au      12.45044378      11.81117245      -0.38800080      -0.02509964      -0.06640431      -0.02858628
N        9.83960861      12.37312093       4.37129717       0.07086476      -0.06540120       0.02031660
C        9.76076901      11.44641141       3.66272076      -0.01919736      -0.00882697      -0.04231244
N        1.42972640      12.72628399      11.64443526      -0.06797409       0.00325644       0.00361401
C        2.52263641      13.08599348      11.41353930      -0.08222312       0.02305764      -0.02180593
N        5.08315408      12.86065691       3.01599072      -0.02459759      -0.04508042       0.04980882
C        5.91733428      13.66362256       3.01393987      -0.05012262      -0.06058836      -0.04347142
O        7.76368136       2.81200484       2.88123838       0.00627899      -0.00140166      -0.00778300
O        6.07606780       4.27811310       3.10296914       0.02760911       0.00272632       0.04493678
C        8.32572990       5.08440335       2.99157675       0.01956022       0.02566016      -0.01197802
C        7.26872379       3.98263784       2.98633622       0.02782512       0.00008428       0.01190745
H        9.00474205       4.89273042       3.82558601       0.01996490       0.03468724      -0.01190648
H        8.91353852       5.03107868       2.07440389       0.02370954       0.02644783      -0.00887799
H        7.85511042       6.06020031       3.10027407       0.03882375       0.04040610      -0.01634099
H        6.81177605       1.89798296       2.94169400      -0.06614961      -0.06760821      -0.03185679
O       11.20466800       1.18058162       8.15038221      -0.02723676      -0.01526552       0.00519025
O       12.72323208       2.79627114       8.51046703      -0.02671748      -0.00599039      -0.03720149
C       11.09342065       2.28285406      10.21237322       0.02228075      -0.01156732       0.00588584
C       11.78583507       2.13685827       8.89297461      -0.01253772      -0.01162195      -0.01169139
H       10.02979477       2.45884332      10.04023392       0.01976770      -0.00033417       0.03226415
H       11.19151183       1.35824895      10.78464055       0.02872762      -0.01470906      -0.00094248
H       11.51948893       3.10549270      10.77554047       0.04252429      -0.01626578      -0.00281829
H       11.62030993       1.14760891       7.27519818      -0.05371726      -0.01599356      -0.00753778
O       11.11477478       3.87064774       6.60505630      -0.00658029      -0.01104009      -0.02513807
O       12.09513538       5.88369644       6.54335660       0.01280832      -0.01771498       0.03983889
C        9.70735754       5.75545218       6.76523093       0.00786906      -0.00312987      -0.00818506
C       11.09384474       5.21781545       6.61368136       0.00585300      -0.01169029       0.00441933
H        8.97670603       5.13556827       6.24824713       0.00714900       0.00263469      -0.01343936
H        9.46012015       5.73504660       7.83009707       0.00167914      -0.00417903      -0.00949088
H        9.67136000       6.78169522       6.41614723       0.01586077      -0.00184676      -0.00474478
H       12.03995414       3.59451461       6.75036416      -0.01481694      -0.02512677       0.00474604
O        2.63185102       6.64679031       3.01729138      -0.00614369      -0.00752306       0.01472482
O        3.66749333       8.60353850       3.33440323       0.00913402      -0.01821280       0.02712154
C        4.74065599       6.92502954       1.98609564      -0.00650531      -0.01915124       0.01921374
C        3.66077527       7.49515473       2.84080774      -0.00071201      -0.01305705       0.02125096
H        5.16762996       6.03148224       2.45476681      -0.00151123      -0.01434019       0.02628537
H        4.34509253       6.62311127       1.01723146      -0.01597638      -0.03000090       0.02626094
H        5.51467910       7.67332218       1.84310336      -0.00926708      -0.01872754       0.00661520
H        1.92385880       7.12065407       3.49722746      -0.00831673      -0.00913206       0.01320399
O        4.36586633      11.10061774       8.85269962       0.02289891       0.00789195      -0.02286634
O        5.17583306       9.10807814       9.48570014      -0.00803331       0.00342023       0.00374643
C        6.42041381      11.11097579       9.96066465      -0.00310385      -0.00501478       0.02278182
C        5.27693973      10.31690564       9.41890962       0.00333935       0.00203663       0.00002287
H        6.69415270      11.88952586       9.25109788       0.03036326      -0.02026594       0.01869495
H        6.09458559      11.59064097      10.88523612      -0.02622147       0.01401556       0.00486709
H        7.26493132      10.46106790      10.16165847      -0.01934554      -0.01440814       0.05962615
H        3.61278038      10.57637670       8.51560346       0.02044556       0.01459938      -0.02830045
O        2.13804492       8.21988313       0.21376014       0.01548335       0.02940500      -0.02747524
O        4.12360984       9.01700279      -0.45015137       0.03163719       0.01838264       0.01265800
C        2.75674848      10.33441486       1.04135764       0.02791002       0.01317775       0.01373887
C        3.12255796       9.16035718       0.20451924       0.02381450       0.02008554       0.00065190
H        2.01605916      10.91181830       0.47856278       0.02641100       0.02413096       0.02814094
H        2.32754089      10.01440797       1.98895882       0.02761150       0.00602407       0.01132570
H        3.61244640      10.97644632       1.22348252       0.03141743       0.00687154       0.01932868
H        2.38554482       7.53687133      -0.42912388       0.02740204       0.03163642      -0.02578929
O        4.05657497       3.11997528      11.03701872       0.00555086       0.01816893       0.01125091
O        5.24609603       2.52905333      12.85396436      -0.01939613      -0.03908890       0.00832605
C        6.21336486       2.27779611      10.66544314      -0.00092089       0.00699985       0.00437546
C        5.15410869       2.64195626      11.66329154      -0.00511855      -0.00686556       0.00989270
H        5.79166813       1.61228701       9.91244053      -0.00649769       0.01228452       0.00029968
H        6.54892837       3.17060047      10.13596378      -0.00612141       0.01560870       0.01191359
H        7.04267231       1.80782625      11.18707713       0.00589835      -0.00101637      -0.00867480
H        3.36529033       3.21366830      11.70835524      -0.00320205       0.00716568       0.00387365
O        2.30831747       9.99157365       7.36119499      -0.00184762      -0.00638974       0.02314040
O        1.36296933       8.06469250       6.70747923       0.00118399      -0.00788277       0.02696568
C        3.76283595       8.27258767       6.65035912      -0.00110078       0.01096421      -0.01642515
C        2.36020512       8.70141890       6.88143459       0.00029331      -0.00249872       0.01325589
H        4.27107718       9.00383623       6.02465556      -0.02443110       0.01319003      -0.03282487
H        4.27985437       8.23169674       7.61250751       0.02017216       0.01988270      -0.02747548
H        3.77583896       7.30297756       6.16700429      -0.00280065       0.00933209      -0.01281986
H        1.37443149      10.20727570       7.49014973      -0.00099838      -0.01711852       0.04558891
O        6.93520711       7.78038009      11.26224829       0.01256502       0.01156831      -0.00281388
O        5.89699849       5.82998459      11.70326533      -0.01034069       0.02307123      -0.00847574
C        8.28893792       5.94734522      11.81889243      -0.01035744      -0.00639319       0.00384079
C        6.90244735       6.48585814      11.60998695      -0.00236976       0.01194224      -0.00303134
H        8.77519257       5.87068158      10.84519045      -0.00958949      -0.02102336       0.00539617
H        8.88845481       6.62797159      12.42011226      -0.00087242      -0.01348753       0.00252841
H        8.24232959       4.96680065      12.28066858      -0.02673678      -0.00322561       0.00894602
H        6.04511095       8.09888933      11.00363915       0.01524842       0.01993632      -0.00360645
O       12.02759581       9.19587257       1.29987797      -0.02641517       0.01915407      -0.02668202
O       10.81120453      10.77437092       0.26631111      -0.03094131       0.00770140      -0.04487704
C        9.67921869       9.03982519       1.42041803      -0.01206279       0.04490909       0.00285514
C       10.88548864       9.73739480       0.94007704      -0.02503967       0.02347678      -0.02551179
H        9.85576185       7.97683533       1.56693854       0.04893118       0.05854867       0.00931307
H        9.45705447       9.52070711       2.39063850       0.00280383       0.09417480      -0.01087040
H        8.84536044       9.21841781       0.74908778      -0.03070112       0.01640859       0.01731707
H       12.77004820       9.74411505       0.96847657      -0.01947412       0.00870538      -0.03067639
O        6.94044585       4.00724313       5.78879306       0.03656447       0.00913113       0.00967032
O        5.74721039       3.07454980       7.44774898      -0.01841211      -0.03104548      -0.05116928
C        7.84419948       2.08671018       6.79032402       0.00770271      -0.00788426      -0.00580523
C        6.72914174       3.07957044       6.74785347       0.00563478      -0.01021174      -0.01714402
H        7.67836911       1.34994013       5.99908979       0.01794498       0.00246839      -0.01764649
H        8.80702445       2.54261582       6.57332483       0.00887217      -0.00159568       0.01366122
H        7.85623395       1.57563665       7.74868353      -0.00477611      -0.02218267      -0.01365250
H        6.11355612       4.47372818       5.58153618       0.03944391      -0.00421067      -0.03295742
O        2.75730061       5.13618695       7.36770668      -0.02700067       0.04357156      -0.02034372
O        1.99409319       6.07084650       9.25894196       0.00920856      -0.00542194       0.01916730
C        4.33999596       5.68807055       9.03671637       0.00388563      -0.00571275      -0.03344077
C        2.91901169       5.66776668       8.58963387      -0.00441766       0.00962180      -0.00918546
H        4.57472620       4.70706076       9.44924649      -0.00342642      -0.00564870      -0.02885674
H        5.02173589       5.88174404       8.21263500      -0.00704102      -0.02088811      -0.04595341
H        4.45122408       6.42057750       9.82865370       0.02560200      -0.00290814      -0.03894113
H        1.81554550       5.18156081       7.13138953      -0.03044453       0.05538698      -0.00624998
O        9.92460970      11.70670191       9.86918346      -0.01075557       0.00438809      -0.00127366
O        9.13751018      11.13317319       7.84569014      -0.00903618       0.01479197      -0.00468051
C       10.60172987       9.62226045       9.02387966      -0.02299386       0.00203001      -0.00435854
C        9.80683620      10.86604346       8.80575828      -0.01400101       0.00814658      -0.00313240
H       11.66379168       9.85601948       9.09667112      -0.02224508      -0.00448167       0.00398847
H       10.34181646       9.17550622       9.98244924      -0.03153824      -0.00183352      -0.00852789
H       10.43087792       8.91946174       8.21487037      -0.02335182       0.00766114      -0.00902872
H        9.44987762      12.51147946       9.61853154       0.00117272       0.01095143      -0.00226471
O        7.41284322       7.93461681       6.30843537       0.00189236       0.02899337       0.03656238
O        6.12489457       7.18735891       4.65209520       0.03594893      -0.00602210       0.02547979
C        6.80645207       9.50737700       4.64405413       0.00595737       0.00221682       0.00921315
C        6.71574229       8.11277298       5.15463957       0.01599658       0.00716460       0.02431810
H        6.80290037      10.22835380       5.45958098      -0.00299358       0.01266446      -0.00036781
H        7.77310763       9.64258431       4.14664166       0.00668655       0.00247957       0.01081723
H        6.00210728       9.70644302       3.94089855       0.00644003      -0.01185893       0.00459637
H        7.31622756       6.99339168       6.51620838       0.00230011       0.03174305       0.04877542
O        1.15528308       3.74384823       4.75184653      -0.01592088       0.00237447       0.00098538
O        1.35668338       2.85851977       2.70561726      -0.02950001       0.02059716      -0.00090098
C        3.35399882       3.28238252       3.98922122      -0.01784420      -0.00077898      -0.00434926
C        1.89754329       3.24517108       3.70849753      -0.01911312       0.00722691      -0.00026327
H        3.66179730       4.32231151       4.09935969      -0.01421160      -0.00390823       0.00333844
H        3.57497384       2.76626203       4.92376498      -0.01136174      -0.00538867      -0.00993846
H        3.91442819       2.83759339       3.17671946      -0.02171470       0.00369852      -0.00747308
H        0.24537339       3.75077257       4.42520349      -0.01504172      -0.00831341      -0.00298221
O       10.69555807       7.79921599       4.45391879       0.01401156      -0.01608241      -0.01403233
O       12.85105505       7.82045128       3.87608043       0.01142406      -0.03156799      -0.01454610
C       11.92511167       9.69030741       5.09824858       0.03215307      -0.02809149      -0.00730449
C       11.92767236       8.36627699       4.43393530       0.01620233      -0.02549475      -0.01266253
H       11.19061088      10.34151327       4.59781070       0.04889745      -0.01389509      -0.00579344
H       11.58580374       9.58903259       6.12907523       0.02413449      -0.02730102      -0.01018180
H       12.91303649      10.13591277       5.05110830       0.03920726      -0.04332719       0.00212710
H       10.78021229       6.94409542       4.00932764       0.00840020      -0.01458034      -0.01855582
O       12.26791984       6.56021811      12.13279386       0.02050719      -0.00958198       0.01899827
O       12.68514585       8.22221009      10.69094276      -0.03061229       0.01574886       0.03477265
C       11.82865539       6.13437872       9.85378084      -0.00016403       0.01020175       0.01936352
C       12.31436440       7.09294503      10.89047601      -0.00516847       0.00557613       0.02566522
H       12.42017743       5.22104171       9.88847301      -0.00141001       0.00952306       0.01315130
H       10.78709007       5.87994010      10.05641675      -0.00068268       0.01091334       0.01756749
H       11.94293376       6.57695431       8.87093022      -0.00045323       0.01647076       0.02223246
H       12.59424880       7.23408062      12.75170215       0.01921254      -0.01274502       0.02255097
