142
Lattice="12.935195590280205 0.0 0.0 0.0 12.935195590280205 0.0 0.0 0.0 12.935195590280205" Properties=species:S:1:pos:R:3:forces:R:3 energy=-613478.0625 stress="-0.0013862381456419826 -0.000370018053217791 0.00019618459919001907 -0.000370018053217791 -0.0004046016256324947 4.382692168292124e-05 0.00019618459919001907 4.382692168292124e-05 -0.0005143745802342892" pbc="T T T"
Au      13.69979905      12.61322089      -2.68444316       0.00125302       0.00253642      -0.00586468
O        8.77474884      11.26553329       4.21817376      -0.02350283       0.01466465      -0.03965068
O        9.00803320      13.15063479       5.42173932      -0.01372147      -0.02138495       0.00862169
C       10.94113023      12.24299517       4.36098514      -0.01683676      -0.00211382      -0.01340017
C        9.43612654      12.22642689       4.69169635      -0.01640320      -0.00391353      -0.01502383
H       11.10502434      12.04327121       3.30015584      -0.01777190      -0.00011772      -0.01360916
H       11.43648448      11.44514603       4.92346493      -0.01618045      -0.00283749      -0.01550163
H       11.40228917      13.19328037       4.63257928      -0.01623767      -0.00347352      -0.01010688
O        2.03592325      10.63452348       8.01346761       0.00280520       0.01686978      -0.00308177
O        2.20079691      12.72600494       8.84333432      -0.00097892       0.00373620      -0.00922692
C        2.76450665      12.41304947       6.59085433       0.01865262      -0.00746167      -0.00251496
C        2.30554473      11.82179893       7.90845193       0.00074229      -0.01869482      -0.00295353
H        1.87570468      12.81152981       6.09469301       0.02300437      -0.01613078      -0.01794447
H        3.21258662      11.64866202       5.96237723       0.03022732      -0.01060304       0.00969727
H        3.45925217      13.23658586       6.73633436       0.01236331      -0.00293174       0.00018933
O       12.03888760      12.86765747      11.34278532       0.00572133       0.00091314       0.00316530
O       11.85773210      10.73195107      12.04368091       0.00165451       0.02603221      -0.01131263
C        9.93659300      12.16037947      12.09094503       0.01874650      -0.00060688       0.02623791
C       11.39977042      11.84325702      11.83558215       0.02512503      -0.03200144       0.01195341
H        9.37896558      11.80711041      11.21961303       0.00706576       0.01090857       0.02918747
H        9.76067736      13.22869142      12.19244630       0.02094039      -0.00290540       0.04069728
H        9.57428732      11.62664485      12.96667720       0.02253545      -0.01231091       0.02099817
C       10.90033661      10.75872983       8.26149681      -0.00363221       0.00484475      -0.00207597
C       12.01179458      10.02731847       8.67140366      -0.00417235       0.00758677       0.00145613
C        9.72933506      10.06263719       7.95429308      -0.00108102       0.00306401      -0.00689574
C       10.93689348      12.25074466       8.12855564      -0.00729758       0.00522941       0.00081595
C       11.95953376       8.64223982       8.76961375      -0.00148155       0.00707523       0.00138407
C        9.67331642       8.68293294       8.05303708       0.00126655       0.00257948      -0.00692908
C       10.79101006       7.96448937       8.46352561       0.00104529       0.00507820      -0.00282461
H       12.93698687      10.53375333       8.91473394      -0.00589475       0.00897051       0.00452261
H        8.85821794      10.61419141       7.62796144      -0.00053434       0.00116569      -0.01036526
H       10.10286364      12.71241066       8.66054416       0.00416961       0.00291890       0.02016283
H       11.86467938      12.65563796       8.53790812      -0.00013870       0.00497729      -0.01632013
H       10.82559012      12.56110821       7.08807608      -0.03024814       0.00781459       0.00431952
H       12.84030805       8.10088331       9.09366628      -0.00176105       0.00928234       0.00501978
H        8.75315353       8.16857018       7.80725975       0.00332899       0.00075270      -0.01080484
H       10.74298545       6.88695569       8.55153863       0.00279140       0.00483723      -0.00257550
C        4.08780048       3.65181195       8.25689687      -0.00131039       0.00366168      -0.00042410
C        3.31125757       2.67208053       8.87426163      -0.00358589       0.00447160      -0.00156602
C        3.66955968       4.97934242       8.34366555       0.00136173       0.00414684       0.00098290
C        5.33621593       3.28677845       7.50943762      -0.00234184       0.00157002      -0.00066528
C        2.14807949       3.00678368       9.55509474      -0.00292188       0.00631090      -0.00202023
C        2.50984695       5.32285098       9.02927116       0.00217272       0.00598198       0.00083903
C        1.74544952       4.33472088       9.63931010      -0.00031206       0.00677696      -0.00061938
H        3.59455241       1.62882193       8.82346957      -0.00576081       0.00410582      -0.00283470
H        4.26212312       5.75173653       7.86624140       0.00308660       0.00340017       0.00171172
H        6.02204046       4.13019091       7.45442355      -0.00151119       0.00072435      -0.00190453
H        5.85605812       2.45434190       7.98304195      -0.00304342       0.00146557      -0.00026156
H        5.11142664       2.97933797       6.48474891      -0.00336407       0.00092746      -0.00015852
H        1.56049198       2.21598068      10.01259237      -0.00485547       0.00704566      -0.00312853
H        2.20274594       6.36035883       9.08192225       0.00419255       0.00634146       0.00213468
H        0.84132475       4.59553178      10.17535776       0.00014333       0.00826686      -0.00095958
C        5.22376326       9.73097721       8.34474250       0.00257327       0.00333884       0.00168761
C        5.26329868      11.07463636       8.71798133       0.00690192       0.00274669       0.00364265
C        5.91831159       9.34641561       7.19644920      -0.00258695       0.00400811      -0.00168683
C        4.41823709       8.74970747       9.14406802       0.00385198       0.00381514       0.00282261
C        5.96502296      12.00239628       7.95819016       0.00564581       0.00236760       0.00275663
C        6.62327336      10.27547338       6.43816939      -0.00456690       0.00394166      -0.00296400
C        6.64720158      11.61574480       6.81012076      -0.00046576       0.00337319      -0.00104508
H        4.71797835      11.39440489       9.59882921       0.01090813       0.00212652       0.00635438
H        5.91618204       8.30138130       6.89966027      -0.00570653       0.00450023      -0.00316264
H        4.76001741       7.72610393       8.99122872       0.00125777       0.00341785      -0.00026911
H        4.47270280       8.96892234      10.21187885       0.00839704       0.00188701       0.00292292
H        3.36537300       8.82103661       8.85874065       0.00303414       0.00632727       0.00666039
H        5.98546850      13.03962020       8.27265721       0.00959484       0.00166829       0.00463533
H        7.20945200       9.98093240       5.57446695      -0.00963339       0.00393723      -0.00625688
H        7.24732145      12.31738805       6.22929560      -0.00026166       0.00267598      -0.00187820
C        1.08054933       8.28948379       3.89448815      -0.00715718       0.00470755       0.00410306
C        1.81891630       8.48279376       5.05989275      -0.01329243       0.00211975       0.00825046
C        0.74992218       6.98153766       3.53148273      -0.00111379       0.00526914      -0.00285473
C        0.63828967       9.44527882       3.05040680      -0.00658636       0.00645369       0.00688985
C        2.23044415       7.40258971       5.83207029      -0.01332444       0.00019359       0.00553466
C        1.15383031       5.90151192       4.30133347      -0.00075880       0.00340212      -0.00580964
C        1.90374019       6.10663610       5.45530230      -0.00695063       0.00081623      -0.00155184
H        2.06635381       9.48608794       5.38439779      -0.01815850       0.00127892       0.01413041
H        0.14973577       6.81635170       2.64372275       0.00419756       0.00713477      -0.00668868
H       -0.41938651       9.36763956       2.79566373      -0.00588685       0.00588564       0.00352319
H        0.79783342      10.39394223       3.56036550      -0.00956342       0.00517455       0.01018228
H        1.19179263       9.47399007       2.10947779      -0.00423208       0.01029136       0.00823730
H        2.80042016       7.58720019       6.73454300      -0.01869353      -0.00199428       0.00918604
H        0.87410776       4.89571516       4.01116707       0.00468677       0.00381152      -0.01187663
H        2.21346608       5.26621531       6.06284863      -0.00649554      -0.00060331      -0.00379624
C        9.68202614       5.86865253      11.07094526       0.00103037      -0.00274970      -0.00018398
C        8.50023994       6.32887766      10.49376055       0.00009111      -0.00268210       0.00199437
C       10.40505952       6.74136967      11.88421619       0.00422230      -0.00199623      -0.00441584
C       10.18503123       4.48327571      10.78454396      -0.00177746      -0.00417078       0.00197157
C        8.05864822       7.62532863      10.71510151       0.00219731      -0.00155885       0.00055747
C        9.97286053       8.04330439      12.10545739       0.00671270      -0.00086454      -0.00611348
C        8.79341326       8.48473859      11.51981499       0.00552071      -0.00101876      -0.00377681
H        7.91346792       5.65718152       9.87608060      -0.00236831      -0.00314989       0.00530216
H       11.32985022       6.40139866      12.33810441       0.00511999      -0.00197112      -0.00621194
H       10.72614616       4.06508027      11.63343141      -0.00318001      -0.00392546       0.00289500
H        9.36533230       3.80872930      10.53720084      -0.00310501      -0.00259117       0.00244937
H       10.87305132       4.48363971       9.93404294      -0.00133680      -0.00693516       0.00249517
H        7.14227748       7.96973641      10.25215160       0.00133513      -0.00178289       0.00226050
H       10.56937290       8.72820541      12.69429890       0.00932513      -0.00033110      -0.00988050
H        8.45850282       9.50114855      11.68032207       0.00715781      -0.00018543      -0.00497211
C        8.91365826       6.24447030       5.22419274      -0.00140078      -0.01108728      -0.00884849
C       10.21734375       6.67309011       5.45566657      -0.00402287      -0.00551178      -0.00528212
C        8.13732136       6.95807094       4.30835632      -0.00436428      -0.01052251      -0.00570861
C        8.32839920       5.11077497       6.01410741       0.00424650      -0.01848510      -0.01548699
C       10.71027943       7.82127391       4.85010245      -0.00939828      -0.00011045       0.00071023
C        8.63526315       8.09233236       3.68298059      -0.00976503      -0.00462779       0.00057930
C        9.91838073       8.54164770       3.96871168      -0.01241665       0.00012991       0.00364172
H       10.84295065       6.13269127       6.15623289      -0.00205956      -0.00560974      -0.00719809
H        7.12561492       6.62997957       4.09990078      -0.00233284      -0.01471020      -0.00842168
H        7.47962073       4.65962406       5.50140022       0.00177693      -0.01477989      -0.01429112
H        9.05684948       4.32684255       6.21984900       0.00618455      -0.01933689      -0.02617245
H        7.96878122       5.47875177       6.98084700       0.00967103      -0.02750871      -0.01037967
H       11.70154165       8.16822046       5.10589377      -0.01152651       0.00351908       0.00322283
H        8.01604311       8.66144346       3.00282292      -0.01170912      -0.00459649       0.00263520
H       10.24865227       9.47918057       3.54605367      -0.01735782       0.00375524       0.00760147
C        4.83796252      10.00671711       1.90775488       0.00342754       0.00786854      -0.00186797
C        5.19471966       9.20165022       2.98960032      -0.00094289       0.00754371      -0.00090140
C        3.93242871       9.49666511       0.97459058       0.00393318       0.00973552      -0.00320184
C        5.42783765      11.37776511       1.75364349       0.00780466       0.00587830      -0.00108308
C        4.67896847       7.91824765       3.12254294      -0.00403074       0.00890917      -0.00125232
C        3.41410877       8.21462997       1.10948820       0.00071852       0.01101225      -0.00375173
C        3.79453696       7.41517494       2.17934469      -0.00319143       0.01058164      -0.00277301
H        5.87570447       9.59484560       3.73476272      -0.00105913       0.00647093      -0.00044730
H        3.62588057      10.11550750       0.13801839       0.00676167       0.01003185      -0.00381970
H        4.70865715      12.06758669       1.31080657       0.00720194       0.01035557       0.00702974
H        5.76457028      11.77455191       2.71026758       0.01808655       0.00063501      -0.00282210
H        6.30288237      11.35111745       1.09973863       0.00268507       0.00440083      -0.00756451
H        4.95322255       7.31485671       3.97831191      -0.00664789       0.00870048      -0.00072481
H        2.71247511       7.83516429       0.37644622       0.00103578       0.01260681      -0.00467318
H        3.40151869       6.41315199       2.28061128      -0.00562606       0.01158173      -0.00325762
C        6.10732170       3.71863876      12.16151116       0.00384029      -0.00915796       0.00606433
C        5.10624645       4.53672143      11.63519687       0.00585401      -0.00660834       0.00655136
C        7.02338312       4.28038165      13.04966456       0.00383168      -0.01238234       0.00785270
C        6.20237982       2.27837930      11.74909137       0.00185729      -0.00869012       0.00439966
C        5.03799429       5.88081986      11.97315986       0.00736998      -0.00735439       0.00952167
C        6.95399027       5.62456552      13.39478855       0.00568776      -0.01300766       0.01043490
C        5.96427743       6.42994703      12.85140566       0.00717201      -0.01055989       0.01161579
H        4.37602195       4.11632230      10.95490327       0.00604717      -0.00408243       0.00475822
H        7.80787448       3.65914715      13.46739235       0.00205072      -0.01459689       0.00769983
H        6.78344504       1.69602371      12.46355082      -0.00210992      -0.01087243       0.00565422
H        5.21346015       1.82849096      11.65642786       0.00120834      -0.00618762       0.00062070
H        6.68793097       2.18188412      10.77388510       0.00501780      -0.00874861       0.00609699
H        4.25801290       6.49972365      11.54532042       0.00871308      -0.00535278       0.01020990
H        7.68693112       6.05165160      14.06781362       0.00554247      -0.01572851       0.01212324
H        5.91782266       7.47973339      13.10602975       0.00815986      -0.01120615       0.01428350
