149
Lattice="11.707419697258313 0.0 0.0 0.0 11.707419697258313 0.0 0.0 0.0 11.707419697258313" Properties=species:S:1:pos:R:3:forces:R:3 energy=-644222.25 stress="-6.943487096577883e-05 -0.0002930930204456672 -0.0001892369327833876 -0.0002930930204456672 0.0007021730998530984 -1.5036795048217755e-05 -0.0001892369327833876 -1.5036795048217755e-05 -0.0005600451841019094" pbc="T T T"
Au      11.70312826      11.06938038       0.86083509      -0.00168753       0.00176731      -0.00076839
Cl       4.51702375      12.15244903       0.72126292      -0.00489430      -0.01023370      -0.00749230
O        5.84475485      11.84417199       0.12949562       0.00010240       0.00594988      -0.00375569
O        3.50390660      11.38949157      -0.06420670       0.00626695      -0.01106781      -0.02030206
O        4.25105210      13.60177051       0.49774494      -0.00915927      -0.00694823       0.00882959
Cl       8.75422279      11.78991471       0.83139380      -0.00523353      -0.00502267      -0.00123596
O        8.80589129      12.74640719       1.92842994      -0.00356512       0.00383258      -0.00218117
O        8.80359896      10.41151958       1.35911478      -0.00798145      -0.00109041       0.00051832
O       10.07609702      11.95461828       0.00254330      -0.00496471      -0.01091890      -0.00172827
Cl       2.09037058       9.18236289       5.27668703      -0.00786155      -0.00617748      -0.00011921
O        0.99717756       8.19483810       5.06851677      -0.00394070      -0.00950992      -0.00763494
O        3.29160355       8.68562118       4.56536624      -0.00963640       0.00321954      -0.00734735
O        1.67921698      10.44824765       4.59759057      -0.00997096       0.00034213       0.01066017
N       11.31228753       3.17777465       5.67043791       0.00104756       0.01212665       0.00465343
H       10.51091449       3.67236903       5.28912842      -0.00196692       0.01197624       0.00677824
H       11.44074902       2.35828470       5.07074484      -0.00362570       0.01127294       0.00412080
H       12.12812592       3.77127916       5.58660788      -0.00163931       0.01190805      -0.00170973
N        0.94229015       7.30200701       2.16726973       0.01462708       0.00102165      -0.01404443
H        1.72932556       6.67559675       2.01963880       0.01703791       0.00376524      -0.01297602
H        0.12102362       6.76271559       1.90688830       0.01602355      -0.00343763      -0.01125751
H        0.88827082       7.48382428       3.16632563       0.01616184       0.00549670      -0.01526797
N        2.43854213       4.77193666       1.05701541       0.01473901      -0.00161339      -0.01143412
H        2.94869803       4.31104521       0.31026309       0.01012260      -0.02981205       0.00181961
H        1.47463397       4.82295150       0.73271381       0.01701748       0.00228457      -0.01763419
H        2.41949820       4.09414661       1.82377895       0.00012841       0.01352753       0.00123541
N       11.07709199       8.02962779      -0.53132461       0.00196218      -0.00067831      -0.00547397
H       11.52394998       8.35305680       0.32014181       0.00976540       0.00076220      -0.00948857
H       10.80461451       7.06572998      -0.34615992       0.00390093       0.00000924      -0.00377698
H       10.22338543       8.56870380      -0.61994015       0.00137129       0.00062026       0.00127888
N        1.40632961       4.49507942       8.43942316       0.00112652       0.00086202      -0.00430503
H        1.68359201       3.53093540       8.29115167       0.00485335       0.00315550      -0.00316504
H        2.08729587       4.92979277       9.05330135      -0.00095470       0.00313818      -0.00225976
H        1.49609867       4.94984825       7.53591125       0.00359423       0.00257975      -0.00380775
N        4.98112261      11.45443611       4.42298911       0.00312348      -0.00821459       0.00480284
H        4.70144488      12.42781912       4.51177082       0.00074627      -0.00681341      -0.01724167
H        5.06173142      11.12618956       5.38112193       0.01161765       0.01253763       0.01167387
H        4.20079663      10.95667257       4.01431717       0.00119442      -0.01888004       0.02164021
N       10.27198727       6.14850943       7.46747862      -0.00993126      -0.00522012      -0.00168879
H       10.24941622       5.81415780       6.51025718      -0.01889116       0.00985505      -0.00496012
H       10.81735674       5.46349930       7.98441652      -0.00595501      -0.01604670      -0.01567100
H       10.83188765       7.00501552       7.47796519      -0.00747165      -0.00671911       0.00465352
N        0.46817234       8.44511588       8.22475840       0.00436401      -0.00239690      -0.00372343
H        0.27660288       8.35530289       9.22327581       0.00260520      -0.00312714      -0.00283670
H        0.70414768       9.41218700       8.04013852      -0.00211203      -0.00099716      -0.00248961
H        1.29707660       7.89887019       7.99334461       0.00817782       0.00336029      -0.00089897
N        5.07736627       6.33672428       4.13539887       0.00880951      -0.01067020       0.01801701
H        5.42221123       5.79316327       3.34661022      -0.00611521      -0.00361185       0.00631689
H        5.85839225       6.81334747       4.56642322       0.00517094      -0.02590512       0.01661497
H        4.43637027       7.05211779       3.81488208       0.00815459       0.00460297       0.02179846
N        2.13372779       2.26667330       2.93660280      -0.00130903       0.02301812       0.01605251
H        1.21155111       1.85526628       2.84135496       0.00232446       0.00955429       0.02617527
H        2.52888638       1.92861776       3.80781399       0.01090641       0.03155589       0.01244861
H        2.71527960       1.90990712       2.18542829      -0.00396453       0.02596346       0.01174238
N       10.21194639       2.17763612       8.29319923       0.00498246       0.00555217       0.00423858
H       10.68287366       2.54681327       7.45457634       0.00179866       0.01099422       0.00465810
H       10.42627313       2.81171730       9.05496144      -0.00749451       0.00006220       0.00352934
H        9.21784192       2.27444682       8.11814774      -0.00159407      -0.00047415      -0.00142726
N        6.42022169       8.40547206       1.15228553       0.00040397      -0.00139799      -0.00390960
H        5.86393151       9.05020599       0.60217567      -0.00810820      -0.01087743      -0.00620279
H        7.09102370       8.99084524       1.63916117       0.00099505       0.00691843      -0.01237370
H        5.81014155       8.00372859       1.85415058       0.00744681       0.00315821       0.00389592
N        4.71252795       2.76558884       8.50071895       0.00791808      -0.00794484       0.00822030
H        4.42753776       3.73378708       8.58048319       0.01719557      -0.00648847       0.00773255
H        5.28353566       2.56240154       9.31352016       0.01841407      -0.00756776       0.00306529
H        3.88053238       2.18262938       8.53813221       0.00706060      -0.00505076       0.02484181
N        7.39443076      10.14499672       9.78841915      -0.00391672      -0.00323446       0.00240010
H        7.95403359       9.90139067      10.59707651      -0.02088320      -0.01620549       0.00635529
H        7.21784378       9.27371214       9.28451953      -0.01582196       0.00442052      -0.00487483
H        6.52122357      10.50383166      10.15883395      -0.00510353       0.01169977      -0.00182930
N        7.49317386       7.72978403       7.77509378       0.00452614       0.01895775      -0.01024700
H        8.37507019       7.23062933       7.65666417      -0.00658941       0.01484981       0.00621380
H        7.41483147       8.40501880       7.02517831      -0.00608216      -0.00709286       0.00001752
H        6.75710232       7.03849352       7.71076505      -0.00366122      -0.01740369      -0.01426351
N       10.57860917       4.92243921       0.51553151       0.00795709       0.00517628      -0.00355142
H       10.19714976       4.71551905       1.43139654       0.01617154       0.01165954       0.00180805
H       10.99261178       4.05699676       0.16762020       0.01285474       0.00611553       0.00261179
H        9.77767397       5.18279525      -0.06256363       0.00084284      -0.00789311      -0.00023133
N        7.21684501       4.61252415       8.34952612      -0.00111131       0.00122017      -0.01374019
H        8.15940357       4.96124435       8.20290299       0.00279638       0.00517228      -0.01623500
H        6.89579692       4.24524080       7.46215979       0.00170216      -0.00534603      -0.01021340
H        7.27431180       3.81829855       8.98923100      -0.00102257       0.00666344      -0.01323159
N        8.13043178       6.42183977      10.79281166      -0.01314214      -0.01577276       0.00406894
H        8.59135363       6.97497060      10.07687840      -0.00879413      -0.01170494       0.00984022
H        7.68692682       7.08497621      11.42954440      -0.01879586      -0.01835860       0.00273527
H        7.38018622       5.96272167      10.28246290      -0.00868902      -0.01412672      -0.00441140
N       11.02450409       0.56830314       4.11154127      -0.00079652       0.01048237       0.00495311
H       10.07895041       0.46368032       4.47803871      -0.00406948       0.01108855       0.00069399
H       11.60274296      -0.16566209       4.50718811      -0.00966749       0.00686038       0.00543503
H       10.95029675       0.37104830       3.11810401      -0.00239582       0.00194358       0.00536805
N        8.86509169       4.19389389       3.73160152      -0.00869478       0.01731470       0.01117080
H        9.34076422       5.08165376       3.59199660      -0.00454673       0.00128499       0.00486877
H        7.92637569       4.28387197       3.36150534       0.00437829       0.00038233       0.00151180
H        9.32748118       3.47381764       3.19070073       0.00480711      -0.00285929       0.01243323
N        2.71941983       7.04886666      10.68275501       0.00565262       0.00990154      -0.00943716
H        2.85110205       6.60286757      11.58697218       0.00973202       0.00133882      -0.01170053
H        1.72271691       7.22731938      10.59974105       0.00519501       0.00816319      -0.00505570
H        3.15897122       7.96088358      10.72760128       0.00635472       0.00721711       0.00084141
N        3.35182044       7.11440397       7.52605321      -0.00101698       0.00648803      -0.00185436
H        4.01570382       7.80633258       7.20361264       0.01179811      -0.00624642       0.01411690
H        3.55088585       6.26130326       7.01870760      -0.00220005       0.00321868      -0.01157187
H        3.51207284       6.94337844       8.51501508      -0.01515672      -0.01055627      -0.00358474
N        0.29011324      -0.01291385       9.54075904       0.02338395       0.03016891      -0.01537234
H       -0.39456278       0.54644906       9.02439905       0.01968935      -0.00230654       0.00746299
H       -0.03461848      -0.96766548       9.57274394      -0.00259826      -0.01878381      -0.00435825
H        1.17842480       0.03017714       9.05532115      -0.00787753      -0.00732145       0.00452279
N        2.84619474       0.57911921       7.25670081      -0.00438885      -0.00527939      -0.00464787
H        3.28505007       1.10625760       6.50323895      -0.00099380       0.01488861       0.01334670
H        2.09227407       0.06688735       6.81205100       0.00468886      -0.00189716      -0.00218016
H        3.54445441      -0.10359098       7.53418952       0.00605911      -0.00781372      -0.00590231
N        8.10807853      11.10678949       4.62968679      -0.00868230      -0.00182495       0.01370014
H        8.52809884      10.86273749       3.74299546       0.01319420      -0.02377430       0.00272095
H        7.09794197      11.09012925       4.49492507      -0.00112629      -0.00158593      -0.02116176
H        8.39337069      10.43181401       5.33419658      -0.02161320       0.01781297       0.00958449
N        6.38963297       0.29060781       7.20650607      -0.00676569      -0.01032145       0.00795693
H        7.05756335       0.40708102       6.44915925      -0.00982967      -0.00215245       0.01071796
H        6.90265216      -0.05975846       8.00998546       0.00350171      -0.01596703       0.00931469
H        6.02629860       1.20768999       7.45010057       0.00085372      -0.01532319       0.01885623
N        0.79190962       2.55156537      11.13141424      -0.01173628      -0.00078291      -0.00151166
H        0.53535279       1.65544202      10.71161284      -0.00908406       0.00156698       0.00742263
H        1.69640168       2.39821898      11.56305169      -0.00925794      -0.00075408       0.00508881
H        0.94494943       3.20094186      10.36577178      -0.00277971      -0.00418219      -0.00384519
N        7.54404448       2.26219866      10.43891207      -0.00158750       0.00123217      -0.00652620
H        8.10303387       2.77767893      11.11048196      -0.00047486       0.00585684      -0.01265505
H        8.17054136       1.58798890      10.01108992      -0.00257279      -0.00197589      -0.00395365
H        6.87196656       1.71543639      10.97346036       0.00017977       0.00256577      -0.00093883
N        9.85763130       7.37142154       3.99521632      -0.00535266       0.00299592       0.00374866
H       10.64176613       7.74626593       4.52204112       0.00199090       0.00056709      -0.00546537
H        9.03337801       7.57177758       4.55099271       0.00108184       0.01482147       0.00127642
H        9.77933964       7.94792801       3.16458971       0.00038828       0.00290796      -0.00204170
N        2.24140612       5.29913021       5.08618500      -0.00189480      -0.00750343      -0.01143446
H        1.84510183       4.85942999       4.26211853       0.01493110      -0.02637419      -0.00722829
H        3.19799814       5.55931752       4.83744816      -0.00124314       0.00168531      -0.00501346
H        1.74776429       6.17621381       5.23053216      -0.01385497      -0.01018094      -0.02973451
N        5.76219511       4.59627694       1.54413338       0.00383224       0.00032360      -0.00250825
H        5.61767558       3.61625626       1.32008203      -0.00579953       0.00428733      -0.00488227
H        6.53772257       4.92913524       0.98333682       0.00605410      -0.00414182       0.00205109
H        4.93286128       5.08145012       1.21959843       0.00399280       0.00907998      -0.00361208
N        9.43366323      10.09963690       7.35250597      -0.00500913      -0.00198141      -0.00352234
H        8.80750095      10.26142249       8.13913516       0.01582691      -0.01149619       0.01431462
H        9.96062290      10.95700357       7.22808807      -0.01566175       0.00436974      -0.01261368
H       10.09759097       9.38229012       7.62887473       0.00872341       0.00298655      -0.02235010
N        1.62001841      10.14400856       1.63897101      -0.00919768       0.00279123       0.01151007
H        2.42511687      10.41042432       1.06183251      -0.00313142       0.00059601       0.01792151
H        1.47110222       9.11921998       1.65865441      -0.00987851       0.00263005       0.00233282
H        1.77822031      10.42316052       2.60989433      -0.01872080      -0.00221854       0.01297510
N        4.22881459       2.82559803       5.40611038       0.00035434       0.00816587       0.00353093
H        4.72356714       2.82694472       6.29683226      -0.00085089      -0.00861344       0.00376281
H        3.46607288       3.49217410       5.50657289       0.00455421       0.01145552       0.01069471
H        4.85072858       3.22363692       4.71121473       0.00284268       0.01414408       0.00781217
