140
Lattice="12.394908979878332 0.0 0.0 0.0 12.394908979878332 0.0 0.0 0.0 12.394908979878332" Properties=species:S:1:pos:R:3:forces:R:3 energy=-612691.9375 stress="-0.001908592996187508 0.00022624518896918744 0.00046439522702712566 0.00022624518896918744 -0.0004563412512652576 0.0009236120677087456 0.00046439522702712566 0.0009236120677087456 -0.0006841457216069102" pbc="T T T"
Au      13.09501923      11.72163141      -0.89710946       0.02301024      -0.00427564      -0.00224549
O        2.87408681      10.34768301       2.26267020      -0.02833331       0.00191975       0.02689767
N        1.85623410      11.80501700       0.67988473       0.03622603      -0.01914150      -0.00043583
C        2.35834140      11.02835202       1.44149865      -0.00614105       0.00338456       0.00402749
O        5.24383530      12.19812418      11.41223346      -0.03758103      -0.00297761       0.00253272
N        5.04236627      10.38657527       9.83939183       0.00204664       0.00320172      -0.00888491
C        5.12569959      11.27899971      10.63129823      -0.01810687      -0.00018090      -0.00347808
O       11.87454376      11.74476115       9.85383997       0.00754368      -0.00601977       0.00531471
N        9.75540219      10.58494218       9.99281440       0.01910138      -0.01890874       0.02966775
C       10.79119892      11.13344357       9.95586644       0.02424270      -0.00777903       0.01886350
O       10.54418432       6.73079460       7.80816720       0.00192356       0.00403584      -0.02068966
C        8.29043009       6.71100892       7.16975501      -0.00529200       0.00664140       0.01133788
C        8.51144277       7.95112144       8.03908789       0.00513726       0.00315857       0.01358393
C        9.44662879       5.84313545       7.63943143      -0.00020576       0.00466511      -0.00647545
C       10.03354710       8.05983803       8.05957275       0.00567371       0.00026590       0.00336106
H        7.31546295       6.24259017       7.30945721      -0.00372237       0.00630590       0.02010362
H        8.40252406       6.94660633       6.10801290      -0.01710206       0.01115500       0.01132140
H        8.04160127       8.85790267       7.66671215       0.00299774       0.00476083       0.02046837
H        8.12140795       7.78475932       9.04444075       0.01475155       0.00217651       0.01684627
H        9.19681926       5.36500109       8.59683247       0.01272489       0.00263479      -0.00410426
H        9.74689201       5.06214650       6.93598256      -0.00995441       0.00621665      -0.01202145
H       10.40145650       8.71429048       7.26137687       0.00215475       0.01169285       0.01194686
H       10.41431686       8.43744559       9.00659525       0.01206404      -0.01572356       0.00698543
O        6.17658523      10.28362640       1.69250567       0.00618649      -0.00304422      -0.00685425
C        7.79800965      11.87961090       1.01819094      -0.01222971       0.01330686      -0.01402494
C        8.38138707      10.47003346       0.92490709      -0.00185734       0.01814197      -0.02075839
C        6.53122822      11.66483527       1.84353152      -0.00977516       0.00176990      -0.01279011
C        7.10663430       9.65285865       0.81134930       0.00388473       0.00966331      -0.01801158
H        8.47047202      12.59502293       1.48686939      -0.01618125       0.01609460      -0.01270762
H        7.52466044      12.23079348       0.02312327      -0.01639970       0.01551513      -0.01202303
H        9.04913233      10.33294159       0.07423019      -0.00496188       0.02594301      -0.02420571
H        8.91556469      10.21843259       1.84631456       0.00334502       0.01915709      -0.02359170
H        6.70328748      11.85916567       2.91033919      -0.01287560       0.00775360      -0.01382369
H        5.70252565      12.28433962       1.49695560      -0.01632780      -0.00961325      -0.01676214
H        6.72755310       9.66917454      -0.21774407      -0.00280780       0.01400516      -0.01539940
H        7.20705809       8.61488312       1.13718366       0.01317542       0.00821155      -0.02619568
O        3.69002505       5.93427225       6.85404490       0.00279519       0.00826539       0.00799969
C        2.45605425       6.55691928       4.93265591      -0.00984529       0.00055274       0.01470023
C        2.10684014       7.51085046       6.07553808      -0.00852394       0.00060493       0.01492333
C        3.06334475       5.38473401       5.69407584      -0.00294009       0.00369927       0.01346779
C        3.27821275       7.30176182       7.02687375      -0.00452867       0.00569749       0.01099592
H        1.59270745       6.26417122       4.33606837      -0.01144797      -0.00308051       0.01894178
H        3.18806856       7.01046934       4.26232075      -0.01396739       0.00219820       0.01138265
H        2.00939877       8.54695920       5.75381257      -0.01291258      -0.00016153       0.01407068
H        1.16843234       7.20777190       6.54556971      -0.00599292      -0.00157158       0.01835299
H        2.28338865       4.67616832       6.00292213       0.00024348       0.00301114       0.01970170
H        3.81406743       4.83183005       5.12434636      -0.00527483       0.00365616       0.01068780
H        4.11925344       7.95542560       6.78032809      -0.00881743       0.01044726       0.00960588
H        3.03072124       7.46811961       8.07588142      -0.00247966       0.00316731       0.01182145
O        6.22095941       2.05309021       8.89681376       0.01173431       0.00121923       0.00705566
C        8.44008897       2.74778751       9.24968391       0.01409066      -0.01180071       0.01031680
C        8.38208369       1.23248510       9.42477635       0.00676823      -0.01171017       0.00871828
C        6.98019974       3.12386261       9.44201314       0.01611108      -0.00558303       0.01344165
C        7.05810983       0.88448506       8.76077454       0.00408036      -0.00443809       0.01011500
H        9.09951661       3.25013000       9.95663469       0.01808865      -0.01646157       0.00975817
H        8.76997446       3.00596923       8.24105304       0.01295321      -0.01229282       0.00992125
H        9.21959422       0.70384457       8.97788162       0.00361824      -0.01577422       0.00758477
H        8.35438412       0.96984682      10.48314930       0.00754377      -0.01225396       0.00848144
H        6.74614435       3.23870347      10.50947882       0.01731259      -0.01090636       0.01430118
H        6.69090708       4.04788018       8.93170005       0.01976903      -0.00160789       0.01907906
H        7.18682231       0.68702946       7.69160071       0.00198744      -0.00754008       0.01050639
H        6.55249389       0.02933800       9.20142190      -0.00119904      -0.00034785       0.01219654
O       10.51908368       5.28630534       1.86012519       0.00344505       0.01366103      -0.00862098
C       11.11105065       7.48131282       2.53882487       0.00909838       0.00940913      -0.00026536
C        9.70174737       7.47751979       1.94799980       0.00926962       0.01598150       0.00063390
C       11.65467614       6.13811438       2.05555222       0.00521482       0.01118940      -0.00840852
C        9.32594870       6.02327995       2.13165854       0.00468895       0.01619625      -0.00921208
H       11.72484976       8.32151311       2.21758055       0.01090220       0.00926289       0.00328930
H       11.05370428       7.50119536       3.63053306       0.00997509       0.00420733      -0.00037289
H        9.00380431       8.13369508       2.45738741       0.01073645       0.01572490       0.00323841
H        9.72593504       7.73774521       0.88692312       0.01106139       0.01966965       0.00238898
H       12.18059040       6.22823631       1.10018401       0.00263526       0.01524548      -0.00934690
H       12.33263035       5.66741944       2.77383057       0.00691825       0.00707093      -0.01320761
H        8.99597956       5.84432207       3.16506194      -0.00034339       0.01142294      -0.01210666
H        8.54617297       5.66607959       1.45603787       0.00705266       0.02324167      -0.01539561
O       11.52595647       1.60831919       3.88364797       0.00206843      -0.00386271      -0.00402725
C       10.51363378       2.21881161       1.82323499       0.01355612      -0.00785488      -0.01069564
C       11.28443727       0.91664470       1.64768815       0.01007195      -0.01116510      -0.00277382
C       11.09056598       2.74667274       3.13103310       0.00536564      -0.00561880      -0.00820565
C       11.37703130       0.42965968       3.08286864       0.00365252      -0.00608635      -0.00076574
H       10.64099315       2.92786932       1.01026578       0.02161381      -0.01046389      -0.01170759
H        9.45157267       2.01261161       1.93836337       0.01202366      -0.00376742      -0.01812415
H       10.79803003       0.19783388       0.98832646       0.00939509      -0.01214762      -0.00114504
H       12.28112367       1.10731279       1.24825050       0.01175550      -0.01678126      -0.00090604
H       11.95542788       3.38920787       2.93537156       0.00542223      -0.00442290      -0.00345431
H       10.37742811       3.31539191       3.72856014       0.00074491      -0.00594780      -0.01363736
H       10.45679604      -0.09201346       3.37898258       0.00201517      -0.00395188      -0.00274745
H       12.23218960      -0.22390726       3.26861665       0.00204271      -0.00647160       0.00515319
O        8.39906660       1.86518353       4.10873634      -0.00526580      -0.00685915      -0.00840694
C        6.95801359       3.65842326       4.70207386       0.00820199       0.00476927      -0.00906418
C        6.95084393       2.58727826       5.78791817       0.00306231       0.00672136      -0.00695714
C        7.60079016       2.91231924       3.53719048       0.00538599       0.00095907      -0.00847054
C        8.29018393       1.92104471       5.52792445      -0.00252470      -0.00349185      -0.00833359
H        5.96212813       4.02038098       4.45846101       0.00992888       0.00834826      -0.01047059
H        7.57125049       4.50988970       5.00953010       0.01147613       0.00269121      -0.01018505
H        6.82957657       2.97194344       6.79624532       0.00912970       0.00942719      -0.00710887
H        6.14231094       1.87820181       5.59841219      -0.00251514       0.01237640      -0.00329493
H        6.85207695       2.43761016       2.90396773       0.00354564       0.00884676      -0.01212615
H        8.23589253       3.55528034       2.92220442       0.01273501      -0.00310162      -0.00504655
H        9.11673827       2.51583695       5.94607856       0.00247845      -0.00919497      -0.01060088
H        8.38087260       0.90363329       5.90905533      -0.00997693      -0.00342393      -0.00665380
O        7.18477927       8.07555636       3.97449210       0.00205871       0.00775754       0.01218607
C        6.22341565       9.59559978       5.48715929      -0.00159615       0.01254430       0.00455713
C        5.15474154       9.20604562       4.46731013      -0.00005567       0.00761676       0.00493828
C        7.48566270       9.26823608       4.70880678      -0.00064343       0.01152402       0.00662094
C        5.75618925       7.94977055       3.84935289       0.00243792       0.00669229       0.00905600
H        6.17379504      10.63734422       5.80024251      -0.00327868       0.01354617       0.00048348
H        6.15365079       8.97495328       6.38406752      -0.00157609       0.01614213       0.00690794
H        4.17616327       9.02872134       4.90659819      -0.00022337       0.00729690       0.00446199
H        5.04461033       9.96863251       3.70001387      -0.00089666       0.00543052       0.00295794
H        7.72948659      10.07714375       4.01071157      -0.00215721       0.00881684       0.00295609
H        8.35978194       9.06728417       5.33184611      -0.00065050       0.01605737       0.00790313
H        5.45907976       7.04231150       4.39001579       0.00160971       0.00788450       0.01035917
H        5.49764839       7.84234337       2.79342574       0.00530825       0.00431929       0.00873214
O        1.71182444       4.07223342      10.68090866      -0.00711226      -0.01065326       0.01942922
C        3.84182713       3.09842032      10.93010664      -0.00479066      -0.00693019      -0.00428423
C        3.97997121       4.31454730      10.01589826      -0.01410604      -0.00653835      -0.00444260
C        2.36215008       2.79642658      10.78654791      -0.00430912      -0.01001632       0.00456171
C        2.67408005       5.05662052      10.27822914      -0.01526296      -0.01014368       0.00200316
H        4.46809110       2.24862854      10.66204599      -0.00364956      -0.00449055      -0.00842181
H        4.06695778       3.38442970      11.95975236       0.00038950      -0.00641435      -0.00559470
H        4.84663130       4.93607554      10.23912214      -0.01549096      -0.00430025      -0.00678097
H        4.05102794       4.00678904       8.97186059      -0.01718648      -0.00542407      -0.00485593
H        2.17605689       2.20954580       9.87782180      -0.00903696      -0.00344917       0.00136507
H        1.92711606       2.25348552      11.62793809       0.00294518      -0.01696181       0.00325841
H        2.78737747       5.78389225      11.09253963      -0.01192171      -0.00315300      -0.00518149
H        2.30277075       5.58805587       9.39934918      -0.02509850      -0.01839995       0.00117409
O        4.58245994       2.19414593       3.45631509      -0.00412783       0.00681058      -0.00466235
C        2.25917329       2.36494301       3.04705683      -0.00774187      -0.01634625      -0.00013906
C        2.98479502       3.49807043       2.32390745      -0.01705170      -0.01228660      -0.00287448
C        3.30688573       1.90137000       4.04641766      -0.00014919      -0.01448974      -0.00664756
C        4.38872198       2.92329036       2.24047775      -0.01715428      -0.00958592      -0.01161903
H        1.33604312       2.65481585       3.53924939      -0.00600722      -0.02192025       0.00581500
H        2.03123349       1.56608853       2.33860496      -0.00840624      -0.01523611      -0.00095350
H        2.56480305       3.73278722       1.34611580      -0.02439310      -0.01224271       0.00035140
H        2.98710597       4.41241005       2.92436493      -0.01491434      -0.01358239      -0.00085467
H        3.23190615       2.45072330       4.99201383      -0.00390165      -0.02520269      -0.00114363
H        3.25015090       0.83337977       4.26517688       0.01176419      -0.01735264      -0.01773231
H        4.48828485       2.24227656       1.38749442      -0.02689399      -0.01966864      -0.00452501
H        5.17033072       3.68517768       2.17081248      -0.01827323      -0.01055968      -0.02812438
