145
Lattice="11.789189542646367 0.0 0.0 0.0 11.789189542646367 0.0 0.0 0.0 11.789189542646367" Properties=species:S:1:pos:R:3:forces:R:3 energy=-97133.4453125 stress="-2.316444988537114e-05 -0.0005421708046924323 -0.0003384413867024705 -0.0005421708046924323 5.234128548181616e-05 -7.714036837569438e-05 -0.0003384413867024705 -7.714036837569438e-05 0.0010374096455052495" pbc="T T T"
N       10.27016878      11.14827083       0.50588979      -0.00824532      -0.00437050      -0.00238027
H       10.14836959      10.22512836       0.95919301      -0.00582185      -0.00020957       0.01252890
H       10.90482907      11.63832644       1.20285779      -0.00442541       0.00157434      -0.01089025
H       10.68326348      11.06332023      -0.41642232      -0.01177901      -0.01655287      -0.00177002
H        9.37338934      11.62004544       0.44184185      -0.00720227      -0.00474793      -0.00309108
S       11.10491082      10.64661885       3.47752015      -0.00505653       0.00402975      -0.02919327
F        9.77045847      12.43234153       4.91195309       0.00849873       0.01351687      -0.00234041
F        8.78453192      10.51418014       4.77049318       0.00962099       0.01000637       0.00550161
F        8.80799404      11.84813512       3.05300605       0.00335741       0.00670014       0.00203392
O       10.64386980       9.53476760       2.65680722       0.00182588       0.01654032       0.00792724
O       11.82988217      10.29935151       4.66793854       0.00924027       0.00161916       0.00644261
O       11.67061620      11.74200868       2.67983835       0.00087478      -0.00199318      -0.00066303
C        9.53062585      11.39585023       4.10238909       0.00632941       0.01000802       0.00073919
O       10.84373690       3.94089285       5.61935925       0.01429170       0.01192987      -0.03464516
C        9.40721239       3.93334711       5.63072783       0.01487542      -0.00377554      -0.01605205
H        9.08265213       4.83674335       6.14420327       0.01159944       0.00067860      -0.02710338
H        9.01480499       3.07739993       6.17588321       0.03174151       0.00149363       0.00293443
H        9.01178708       3.93975010       4.61030260       0.00242422      -0.02544922      -0.01025799
H       11.14745277       3.04048085       5.47099229       0.02219537       0.01534277      -0.03997699
O        2.07081630       6.60111252       2.05327653       0.00473535      -0.00749058      -0.01476209
C        3.43366143       6.99266893       2.25952048       0.00047852      -0.00499604       0.00545169
H        3.51571623       7.77673582       3.01534935      -0.01240840      -0.01357481       0.01535091
H        3.89799960       7.33639791       1.33041827       0.00996558       0.00790391       0.01551396
H        3.94597639       6.10227688       2.61340500       0.00010966      -0.00651106       0.00180569
H        1.53619386       7.38378624       1.89029086       0.00361480      -0.00782013      -0.01346672
O        4.86169837      12.23758483      10.39269203      -0.00717327       0.01171440       0.00293893
C        4.54591273      11.15268968       9.53037539      -0.00643095       0.01514241      -0.00167549
H        3.49048929      10.87179633       9.58505995      -0.00683039       0.01599208      -0.00469993
H        5.14995124      10.26266419       9.74038948      -0.00766855       0.01391068      -0.00377716
H        4.75246043      11.46922664       8.50887790      -0.00422838       0.01888004      -0.00019291
H        4.58792129      12.00121806      11.28864273      -0.00701578       0.00777970       0.00189018
O        3.93499302      10.02850766       0.51905599      -0.00553308       0.00233698      -0.00612897
C        2.56813292      10.23258502       0.84033278      -0.00465360       0.00278122      -0.00219523
H        2.17638124       9.44423228       1.49533931      -0.00602204      -0.00251392      -0.00958888
H        1.94710427      10.28984044      -0.06114321      -0.00569129       0.01310379      -0.00078514
H        2.50954749      11.17814973       1.37330298      -0.00181426      -0.00215816       0.00662661
H        4.00469459       9.30776175      -0.11463483      -0.00807106       0.00673273      -0.01149696
O        3.74848060       8.70740933       7.74103799       0.00113487       0.00071585       0.00537401
C        4.92870712       8.36740255       7.03594278       0.00291210       0.00280759       0.00666067
H        5.73967643       9.08622585       7.21741610      -0.00118989       0.00845727       0.00149396
H        4.76222677       8.30458835       5.95607033       0.00244431      -0.00508179       0.00727001
H        5.25420351       7.38434931       7.37880071       0.00859820       0.00698227       0.01276079
H        3.28872702       9.39485328       7.22868941       0.00021452      -0.00143789       0.00441939
O        6.74069938       7.07442306      11.14815360      -0.00359160       0.00315596       0.00321211
C        7.78603408       6.90668854      10.19446785      -0.00822067       0.00233879      -0.00156584
H        7.41013134       6.96552027       9.17020861      -0.01339141       0.00322359       0.00018618
H        8.30726622       5.95371142      10.32930498      -0.00916626       0.00140148      -0.00485300
H        8.50246374       7.71563085      10.32784915      -0.00634442       0.00114059      -0.00454582
H        6.15129915       6.28183896      11.13801838      -0.00308124       0.00258492       0.00622332
O        7.74020639       7.86119192       1.64898125      -0.00418440       0.00244081       0.00340979
C        7.21718277       9.17846848       1.60290848      -0.00407746       0.00258330       0.00371953
H        6.12398623       9.18378747       1.59813714      -0.00419909       0.00267558       0.00585906
H        7.54994308       9.70778615       0.69891075      -0.00615759       0.00164287       0.00233874
H        7.56651037       9.71029797       2.48533950      -0.00197808       0.00339510       0.00234964
H        7.37669458       7.40935676       0.84469457      -0.00290930       0.00298131       0.00277381
O        5.25057711       4.88314979      11.25254261       0.00197160       0.00211722       0.00636699
C        6.01852195       3.78178426      11.72640048      -0.00618321      -0.00206237       0.00807897
H        5.46322292       2.84424241      11.64713913      -0.00208944      -0.00177020      -0.01544442
H        6.33654835       3.93307409      12.76494034      -0.02842668      -0.01489348       0.01593933
H        6.90411191       3.69784851      11.09629104       0.00681528       0.00727348       0.02619714
H        4.33960508       4.84708345      11.62422819      -0.00479458      -0.00245900      -0.01097259
O        7.62210953       3.06666041       8.26175168       0.00848502       0.00766426      -0.00522062
C        6.39799271       3.78855205       8.34581640       0.00005844      -0.00854012       0.00482107
H        5.65792531       3.26678266       8.95382388       0.01095882      -0.02033740       0.00781634
H        5.95739127       3.98714203       7.36441237      -0.00843094      -0.01148725       0.00816134
H        6.61415467       4.74391683       8.81703563      -0.00920521      -0.00763249       0.00687842
H        7.43601637       2.19649603       7.88589781       0.01716655       0.00554471      -0.00446707
O        3.50739221       4.97287457       8.46890127      -0.00601063       0.00413120      -0.00705969
C        2.97530534       3.64497937       8.45851915       0.00155891       0.00128394       0.00159252
H        3.43785017       3.02729782       9.23240772       0.00342420       0.00950326       0.00682086
H        3.22734851       3.21761835       7.48922670       0.00609144      -0.00382680       0.00490150
H        1.89076528       3.66071277       8.57859529       0.00135207      -0.00404340      -0.00034314
H        3.37356555       5.34106249       9.34742017      -0.03008588       0.01659567      -0.01598765
O        9.47034043       9.01365415       8.11647226      -0.00306004       0.01083872      -0.00177196
C       10.69375539       9.67358728       7.88078395       0.00233060       0.00043488      -0.00119867
H       10.60104216      10.48789171       7.15110479       0.01029249      -0.00257242      -0.00593534
H       11.47868251       8.99400377       7.53092854      -0.00152194      -0.00686631       0.00437707
H       11.03352083      10.11061877       8.82562197       0.00290172       0.00309574      -0.00284591
H        9.25530284       8.46409348       7.32864740      -0.00333604       0.00601419       0.00158217
O        7.04428684       7.35015694       4.19819833       0.00009377      -0.00050440       0.00421539
C        6.29685798       6.15865242       4.43464990       0.00534716      -0.00370461       0.00361452
H        6.63207537       5.71483725       5.37412595       0.01099092      -0.00559177       0.00077885
H        6.43945979       5.42746552       3.63520707       0.00439879      -0.00072932       0.00066394
H        5.23258615       6.37718443       4.52804592       0.00489593      -0.00757925       0.00908747
H        7.29066807       7.40761150       3.24834660      -0.00069219       0.00117007       0.00370125
O        3.58796709       4.14583277       4.09688045      -0.00470680      -0.01701021      -0.01357203
C        2.60839214       3.13770873       4.26026805      -0.00591835      -0.01387316      -0.00189696
H        1.64175003       3.43931371       3.83877068      -0.00829229      -0.01313949       0.00482698
H        2.47180336       2.87000399       5.31259830       0.00178534      -0.01074938      -0.00004286
H        2.94614801       2.24046128       3.73826785      -0.01361203      -0.01640135      -0.00207157
H        3.39722762       4.83135056       4.77429349       0.00039619      -0.01292172      -0.01652850
O        2.47768738      10.60479771       6.07604637       0.00101721      -0.00329921       0.00114584
C        3.12672900      10.84506149       4.83043730       0.00893667      -0.00097308       0.00486389
H        2.64582305      11.66339636       4.28809129       0.00910126      -0.00273854       0.00225300
H        3.11774879       9.95284012       4.19303271       0.01594016      -0.00100356       0.00515237
H        4.15266106      11.13080473       5.04581560       0.00640777       0.00288430       0.01104707
H        1.54757610      10.45652162       5.86772134       0.00401492      -0.00222305      -0.00322986
O        8.98359169       7.41852272       5.99560282      -0.00066769       0.00069088       0.00514530
C       10.16494802       7.14394518       5.24826904       0.00156033       0.00798164       0.00662133
H        9.91773893       6.62872888       4.31521859       0.00708653       0.00221848       0.00859842
H       10.81153657       6.50149342       5.84295467       0.00645982       0.01583195       0.00971738
H       10.70876363       8.05822959       5.00102535      -0.00575854       0.01150787       0.00302576
H        8.24631158       7.52241514       5.34876631      -0.00009786       0.00056673       0.00370689
O       11.89999979       5.18148190       7.97537246      -0.00352389      -0.00904331      -0.00522912
C       10.88335972       5.53082470       8.89848751      -0.00930026      -0.00719909      -0.01187557
H       10.21332651       4.69062599       9.11051421      -0.00703335      -0.00824180      -0.00948539
H       10.28277955       6.38072399       8.55190996      -0.01106259      -0.01196960      -0.02002415
H       11.37920440       5.82029703       9.82660157      -0.01414916       0.00056528      -0.01196137
H       11.49961856       4.73891745       7.21002348       0.00115444      -0.00239122      -0.01119186
O        5.37050808       1.44593225       5.73247862       0.01362105      -0.00236976       0.00642192
C        6.23933333       2.32214091       5.03247731       0.00993352      -0.00028688       0.00390369
H        7.03902012       1.78015563       4.51310099       0.00612864       0.00079033      -0.00261818
H        6.70036135       3.05955222       5.69468765       0.01457943      -0.00294048       0.00377029
H        5.63278281       2.85939582       4.30465616       0.00577420       0.00202331       0.00917688
H        5.88381739       1.00150809       6.42006940       0.01759078      -0.00383400       0.00255300
O        2.96281864       5.96139154       5.97911197       0.01223713      -0.00392780      -0.01508516
C        1.91870882       6.89490919       5.73511920       0.00729269      -0.00738300      -0.00643225
H        2.31959614       7.90396733       5.60170147       0.00208840      -0.00401819       0.00188880
H        1.20659092       6.90071535       6.55989804       0.00841108      -0.01714981      -0.00533530
H        1.40159146       6.59612180       4.82041154       0.00715059      -0.00231186      -0.00794467
H        3.07239208       5.81120491       6.93878537       0.01226319      -0.00969286      -0.01555686
O        4.30876455       1.07903605       1.51353674      -0.00358731       0.00605184       0.00655572
C        5.44478237       0.59035418       2.22278882      -0.00118226       0.00101225      -0.00076347
H        5.26463980       0.54806141       3.29902022       0.00490257      -0.00023322       0.00028357
H        6.33084623       1.20636358       2.03371922      -0.00033063      -0.00141475      -0.00469317
H        5.62174887      -0.41523278       1.85103522      -0.00659089       0.00110283      -0.00352636
H        4.13978832       1.98120740       1.80149184       0.00288308       0.00706631       0.00683850
O        7.38452352      12.05524947       7.48742663       0.01401585       0.00175974       0.00440472
C        7.79083087      11.69785978       8.81990032      -0.00055771       0.00398516       0.00900406
H        8.77456409      12.13132554       9.03320719       0.00018159      -0.00129330       0.01655953
H        7.84001495      10.61441726       8.92675829      -0.00781971       0.00404873       0.01277084
H        7.05078562      12.11954947       9.49645123      -0.00376186       0.01021641       0.00132771
H        7.91471674      11.54616289       6.86541216       0.01540670      -0.00497779       0.01120177
O       11.35342809       4.45921283       2.35986452      -0.01386292      -0.00436890       0.02443522
C       10.60156395       5.45334855       1.68255129      -0.00256498      -0.00227244       0.01549935
H       10.93172280       6.46825816       1.92772128       0.00203572      -0.00329563       0.01365925
H        9.52923863       5.38507310       1.89885449      -0.00460392       0.00547184       0.00818878
H       10.74506003       5.29083013       0.61406906       0.00347632      -0.00732310       0.01693767
H       11.29984118       4.62321721       3.30848479      -0.02371191      -0.00514556       0.02414609
O        2.66317909       4.75414426       0.13847257      -0.00409754      -0.00296897      -0.01867211
C        2.20628720       3.43234946       0.42530431      -0.00989785       0.00174066      -0.00545499
H        1.15693696       3.30998612       0.14821780      -0.01111358       0.00488927      -0.00228333
H        2.30260697       3.20630794       1.48938047      -0.00857845       0.01134801      -0.00364923
H        2.81295229       2.73821431      -0.15582065      -0.01469511      -0.00669442      -0.00017439
H        2.28144742       5.36580332       0.80114563       0.00542890       0.00269849      -0.01832011
