145
Lattice="12.58136584910451 0.0 0.0 0.0 12.58136584910451 0.0 0.0 0.0 12.58136584910451" Properties=species:S:1:pos:R:3:forces:R:3 energy=-272892.375 stress="-0.0041770245879888535 -0.0004071186267537996 0.000664872961351648 -0.0004071186267537996 -0.0018883085576817393 -0.00026283820625394583 0.000664872961351648 -0.00026283820625394583 -0.004765495657920837" pbc="T T T"
N       12.60992803      12.63085621       0.44878097       0.01431477       0.02369247      -0.01230204
H       11.11292713      12.33525846      -0.11891870       0.02655035       0.00225218      -0.00319793
H       13.25390931      13.20746778      -0.07756507       0.00874710       0.02430940      -0.01717420
H       12.40688059      13.09379462       1.32869928       0.01024676       0.03055274      -0.01696903
H       13.09541663      11.77479059       0.69494770       0.02448148       0.03195590      -0.00402768
I        9.48828508      11.08607995       1.13737180       0.00961453       0.01079030      -0.00831461
O        9.75367973       9.39578255       0.64786452      -0.01849737       0.00362436       0.00392714
O        7.79611671      11.64518072       1.23286629       0.01665308       0.02769874      -0.00669944
O       10.65093757      11.61022711       2.39867900       0.01436512       0.00523254      -0.01133594
O       10.11950720      12.12461015      -0.32754726       0.02862477      -0.00718811      -0.01183960
C        3.37932551       3.24387859       4.54554881       0.00417960      -0.00391982      -0.00455710
C        4.54426301       2.71019349       5.09774677       0.00361352      -0.00143446      -0.00686747
C        3.33899832       4.61415242       4.28917299      -0.00154549      -0.00390446      -0.00229939
C        2.17996690       2.38187183       4.28435938       0.00634375      -0.00651902      -0.00686633
C        5.62229626       3.52559750       5.41909260       0.00346241       0.00137562      -0.00506027
C        4.41260551       5.43579288       4.61369668      -0.00173261      -0.00122635      -0.00007584
C        5.55696614       4.89607428       5.18958077      -0.00278230       0.00066054      -0.00306049
H        4.60342344       1.64220023       5.27781326       0.00799999      -0.00095800      -0.00890872
H        2.45233465       5.04020939       3.83180900      -0.00107498      -0.00554461      -0.00074087
H        1.59057416       2.76047186       3.44852192       0.00514482      -0.00583963      -0.00521687
H        2.46287220       1.34911561       4.07718007       0.00883123      -0.00482270      -0.01014729
H        1.52182352       2.36988200       5.15934375       0.00712895      -0.01116681      -0.00681975
H        6.52097026       3.09208380       5.84094646       0.00346324       0.00293570      -0.00767661
H        4.35398734       6.49945763       4.41598830      -0.00611309      -0.00159532       0.00165457
H        6.39155862       5.53580131       5.45134354      -0.00313774       0.00262436      -0.00196923
C       11.83040115       9.53912261       9.91853673       0.00045738      -0.00808145       0.01749830
C       11.73703397       8.45993992       9.04677199       0.00193816      -0.00773940       0.02433053
C       12.08768277       9.26575657      11.25963764      -0.00135330      -0.00161879       0.02178890
C       11.61271998      10.94261680       9.42986245       0.00089245      -0.00865340       0.01616698
C       11.88651073       7.15312990       9.48792697       0.00037293      -0.00814670       0.02554980
C       12.22826271       7.96233375      11.71602045      -0.00371728      -0.00279859       0.02356111
C       12.13174542       6.89676408      10.82958709      -0.00205974      -0.00229423       0.02988885
H       11.55223930       8.65099212       8.00360983       0.00147127      -0.01271834       0.02172518
H       12.15132685      10.08994727      11.95785848      -0.00180492      -0.00187483       0.01777598
H       12.33703343      11.63701896       9.86183977       0.00441657      -0.00880452       0.00855273
H       11.68903939      11.00025806       8.34388706      -0.00539183      -0.01312849       0.01534964
H       10.62178848      11.30297114       9.71430071       0.00398082      -0.00595552       0.02023496
H       11.79959916       6.33927666       8.77815891       0.00152492      -0.00868137       0.03040528
H       12.39666160       7.77765021      12.76968602      -0.00678348       0.00213401       0.02573636
H       12.23237223       5.87754583      11.18191427      -0.00393623      -0.00213260       0.03132093
C        3.38724239       3.61333155       9.44268613      -0.00521991      -0.00642207       0.00161648
C        2.84973494       4.27786518      10.54551474      -0.00334895      -0.00548798      -0.00055213
C        4.66417662       3.06405088       9.55967940      -0.00946173      -0.01544870       0.00311902
C        2.62477675       3.51787776       8.15398744      -0.00204748      -0.00027136      -0.00071770
C        3.57101588       4.39707189      11.72615422      -0.00670944      -0.01270299       0.00366099
C        5.39460368       3.19416746      10.73462155      -0.01283213      -0.02305311       0.00647586
C        4.85165408       3.86520594      11.82332483      -0.01094978      -0.02362812       0.00504486
H        1.85785548       4.71000479      10.47426285       0.00049579       0.00193178      -0.00144534
H        5.09715001       2.54843464       8.70907156      -0.01070563      -0.01643253       0.00408948
H        2.88664562       2.61170076       7.60777335      -0.00982182      -0.00326146       0.00159486
H        1.54866397       3.51918194       8.33119831      -0.00194851       0.01073711      -0.00360204
H        2.85663477       4.36101372       7.49613172       0.00806867      -0.00377092      -0.00084440
H        3.13233461       4.90815498      12.57399547      -0.00482250      -0.01190358       0.00197133
H        6.39448930       2.78202174      10.79790812      -0.01672648      -0.03179878       0.00827726
H        5.42255513       3.97286831      12.73747295      -0.01421472      -0.03029659       0.00792461
C        4.29885689       9.68855583       8.49960654      -0.00204572       0.00373637      -0.01355521
C        4.29437810      11.07959701       8.37744389       0.00170018       0.00080746       0.01533668
C        4.31136388       8.92424750       7.33757427       0.00289026       0.00601095       0.01299492
C        4.25910465       9.03502757       9.84193348      -0.01088529      -0.00047973      -0.00479889
C        4.29339729      11.68305020       7.12623252       0.00855364       0.01001917      -0.01218659
C        4.30436750       9.52137946       6.09064296       0.00889402       0.01223124      -0.02139510
C        4.29680691      10.90306333       5.97485446       0.01183955       0.01696248       0.01218946
H        4.28710428      11.69206862       9.27300560      -0.00042255       0.00058111       0.00007888
H        4.30149393       7.84287426       7.41220224       0.00199882       0.01065820      -0.01019808
H        4.51059812       7.97550731       9.78781172      -0.03146095      -0.00337076      -0.01186375
H        4.94723063       9.51547637      10.53357463      -0.00065745      -0.01648973      -0.00574256
H        3.26657021       9.10619344      10.29245659      -0.00783607       0.01730495      -0.00313978
H        4.27684137      12.76392766       7.05364699       0.01222638       0.00783287       0.00840627
H        4.25608714       8.89549519       5.21305794       0.01549556       0.01958604      -0.00069042
H        4.27139950      11.36651095       4.99542782       0.01775035       0.01660749       0.00179636
C        1.24456844       9.63589440       4.41707947      -0.00405949       0.01233351       0.00819501
C        1.12284352      10.24459579       5.66508246      -0.00556719       0.00462458      -0.00391226
C        1.42483652       8.25395528       4.36394219      -0.00025716       0.01558493      -0.01565082
C        1.17819174      10.46220147       3.17172145      -0.00684994       0.02038120       0.00751185
C        1.18782558       9.49948385       6.82964135      -0.00614189      -0.00903276       0.01103900
C        1.46578173       7.49994255       5.53207343      -0.00073004       0.00382508      -0.00334658
C        1.35418036       8.12177629       6.76686308      -0.00460847      -0.00672606      -0.01839989
H        0.99627345      11.32039569       5.71703811      -0.00771681      -0.00030427       0.01549788
H        1.51633781       7.76547697       3.39891338       0.00216455       0.02145193      -0.00902185
H        0.64632360       9.92772583       2.38382283      -0.00671832       0.02486123       0.00573190
H        0.65489968      11.40040471       3.35520623      -0.00872599       0.01723596       0.01496040
H        2.17972377      10.68151036       2.79376618      -0.00772083       0.02521557       0.00898469
H        1.13963240       9.99290785       7.79062540      -0.00927008      -0.01607109       0.00102988
H        1.59683563       6.42604455       5.48479053       0.00125607       0.00584137      -0.02260065
H        1.41002344       7.54526232       7.68035601      -0.00718229      -0.01393476      -0.01242426
C        7.72088169       6.43288947       8.03566269       0.01270984      -0.00086339       0.00559599
C        8.92551280       6.18617920       7.38140960      -0.01726128      -0.00816399       0.01341596
C        7.29894770       7.75396462       8.17155131      -0.00966884      -0.01212601       0.02630027
C        6.89477659       5.31973463       8.59683255       0.00203139      -0.00490120       0.01231250
C        9.68337513       7.23554087       6.88230388       0.00750029       0.00658743      -0.00424907
C        8.04276789       8.80475877       7.65870054       0.01310867       0.00797623       0.00852440
C        9.24449361       8.54496629       7.01793441      -0.01293239      -0.00174242       0.01296628
H        9.26826411       5.16366759       7.26551446      -0.00271153       0.00029740      -0.00078319
H        6.36896538       7.95958718       8.67991880       0.01086576      -0.00422576       0.02190804
H        5.83911947       5.43621457       8.34585206       0.00472033      -0.00805959       0.00815758
H        7.22134651       4.35007358       8.22155023       0.00815720      -0.00323807       0.01325369
H        6.95583841       5.29216283       9.68664255       0.00037809      -0.00306883       0.01124030
H       10.63332720       7.03834322       6.39748452      -0.01234557       0.00109275      -0.00074048
H        7.67801607       9.82045794       7.75049732       0.00148997      -0.00517462       0.02100491
H        9.83829523       9.36054790       6.62934760      -0.00570361       0.00071019       0.00457766
C        5.35234965       8.61742715       0.38875427       0.00473315      -0.00189071      -0.01122554
C        4.94412661       9.95312511       0.45682534       0.01125017      -0.00083277       0.00042380
C        4.37901090       7.62242742       0.44237385       0.00722056       0.00117454      -0.01519456
C        6.79006856       8.27015124       0.17408935       0.00454432      -0.00130965      -0.01702283
C        3.59592488      10.27624272       0.47875378       0.00732993       0.00016692       0.01114317
C        3.02731549       7.94268125       0.47219398       0.00427722       0.00232022      -0.00425924
C        2.63380446       9.27213970       0.45639353       0.01016778       0.00322334       0.01021544
H        5.69419876      10.73503910       0.44820521       0.00925831      -0.00281970       0.00358086
H        4.68936877       6.58550607       0.40952624       0.00275260       0.00084035      -0.02550228
H        6.90581968       7.21664254      -0.08177650       0.00642170      -0.00510302       0.00385949
H        7.21768840       8.86760956      -0.63282815      -0.00452907      -0.01690461      -0.03242795
H        7.39409050       8.46921822       1.05661599       0.01067626       0.02013734      -0.02736080
H        3.29493714      11.31881072       0.47616218       0.01229981       0.00077836       0.02204183
H        2.27943796       7.15829785       0.46000838       0.00543787       0.00409178      -0.00650622
H        1.58295995       9.51659147       0.40750210       0.00818304       0.00446545       0.01993889
C        9.27628359       8.80675565       3.86853938      -0.00521652       0.00761889      -0.00469842
C        8.42158007       7.77776997       3.48749588      -0.00385682      -0.01277408      -0.01366828
C        8.71820902      10.03507510       4.23467626      -0.00190075      -0.01047593      -0.01982661
C       10.75466355       8.59841259       3.87425994      -0.00612041      -0.00695061      -0.00348325
C        7.04897994       7.97142536       3.44457470      -0.00838786       0.01029780      -0.01622649
C        7.34542289      10.23660995       4.18217870      -0.00380011       0.01056759      -0.02306983
C        6.51089921       9.21199057       3.76121875      -0.00325859      -0.01063321      -0.03019942
H        8.84874512       6.82692091       3.19759604      -0.00740585      -0.00071688      -0.00361517
H        9.36947128      10.83303722       4.56976334      -0.00429523       0.00056294      -0.01732837
H       11.24398460       9.19761244       4.64099980      -0.00850405      -0.00812075       0.00114101
H       11.01154341       7.55158854       4.03537068      -0.00717030      -0.00521529      -0.00589624
H       11.18463318       8.89381099       2.91413250      -0.00243724      -0.00189638       0.00017059
H        6.39853090       7.16628273       3.12368831      -0.00466847      -0.00133547      -0.02082779
H        6.93080532      11.19630313       4.46442955      -0.00161784       0.00045119      -0.03511968
H        5.45002746       9.38294266       3.65804191      -0.00285153       0.00392599      -0.03232296
C        8.85319383       2.97397630       2.95925439      -0.00432125       0.00013373       0.00051022
C        8.88495150       4.18792806       3.64208335      -0.00072138      -0.00124289      -0.00315085
C        9.93289288       2.10644900       3.11649097      -0.00459923      -0.00297120      -0.00024816
C        7.70040075       2.62706139       2.06430218      -0.00550407      -0.00037980       0.00301105
C        9.97231321       4.53873053       4.43146514       0.00040504       0.00119781      -0.00549037
C       11.01525518       2.44262241       3.92023077      -0.00336964      -0.00016738      -0.00273480
C       11.04641954       3.66807862       4.57561292      -0.00003976      -0.00180238      -0.00726733
H        8.03997900       4.86090013       3.55761040      -0.00026153       0.00047393      -0.00254485
H        9.92432909       1.14438455       2.62608920      -0.00720773      -0.00261401       0.00308288
H        7.58486606       1.54906374       1.95619067      -0.00401401       0.00069845      -0.00095456
H        6.76752489       3.04534735       2.44493664      -0.00486323      -0.00322790       0.00766283
H        7.86008054       3.03755774       1.06243056      -0.00965845       0.00433600       0.00463894
H        9.96893976       5.49131346       4.94157474       0.00287809       0.00059059      -0.00813036
H       11.83064939       1.73816883       4.04169098      -0.00388750      -0.00231155      -0.00335407
H       11.88931510       3.93924576       5.20079002       0.00173673      -0.00002337      -0.01002925
