147
Lattice="16.192603788627693 0.0 0.0 0.0 16.192603788627693 0.0 0.0 0.0 16.192603788627693" Properties=species:S:1:pos:R:3:forces:R:3 energy=-1270325.625 stress="-0.0005839571240358055 1.8562935110821854e-05 1.4881978586345213e-05 1.8562935110821854e-05 -0.0003282694087829441 0.0002626240748213604 1.4881978586345213e-05 0.0002626240748213604 3.157483661198057e-05" pbc="T T T"
Ba      14.57734244      16.64140054       0.80428212      -0.00184528       0.00048888       0.00711181
S       11.62848542      13.57377688      11.52135031      -0.00585055       0.02606106       0.04013407
O       11.11539949      13.56522743      12.89088167       0.00611627      -0.00867118      -0.01533389
O       11.78861269      12.26661846      10.90910507       0.00495675      -0.00947547      -0.01072407
O       12.86468032      14.40391967      11.44517189      -0.00467467      -0.00115263       0.01284033
C       10.42945730      14.42985907      10.51726479       0.00271559       0.00731897       0.00935060
H       10.31167143      15.45015812      10.87206434       0.00283892       0.00689740       0.02079033
H       10.77875082      14.42017590       9.48786421      -0.00234775       0.01107721       0.01506180
H        9.48799349      13.89085370      10.59059078      -0.00020778       0.01062237       0.00458001
S        7.41590140      15.82585587       6.16079096       0.00584364       0.01343465      -0.01336187
O        6.31001875      16.59604028       5.56395052      -0.00477433       0.00487554      -0.00271881
O        7.23659249      15.60675000       7.58926303       0.03042081       0.02858442      -0.00806975
O        8.73332258      16.34520614       5.78436042      -0.00109792       0.01230586      -0.04223341
C        7.34324400      14.21531587       5.38524135      -0.00646257       0.00483429       0.00760710
H        7.52555008      14.34384248       4.32035771      -0.01889086      -0.00801463       0.00418922
H        8.11864259      13.59633023       5.82920669      -0.00365746       0.00739769       0.00607809
H        6.36377489      13.77824851       5.55140705      -0.00636254       0.01114187       0.02484605
Cl       2.18430756      11.14224024      11.82728789       0.01620690      -0.00381089      -0.00225279
Cl       3.19887666      10.03851549       9.32821410       0.00658556      -0.00373864      -0.00566737
Cl       0.46974660      11.07735259       9.47040999       0.00588334      -0.00840870       0.00507456
C        2.12288309      11.25115637      10.06248569       0.00803009      -0.00483222      -0.00177591
H        2.49055963      12.22878789       9.77333157       0.00495106      -0.00437245      -0.00422388
Cl      10.69280672       2.51318796       6.42984292       0.01297683      -0.00174236      -0.04655226
Cl       8.86239832       3.01597032       4.18477415      -0.01351733       0.04373865      -0.01204920
Cl       7.97497946       3.44971832       6.92654980       0.01865101      -0.01516515       0.00649750
C        9.35021585       3.48912700       5.84275657       0.00495394       0.00979516      -0.00861637
H        9.70118798       4.51199057       5.77103511       0.00465766       0.01100820       0.00950321
Cl      12.27375091      16.19588446      14.74345442      -0.00553945      -0.00499356       0.01488399
Cl      15.00665582      16.24287309      13.74666598      -0.00924203       0.01846914       0.00598869
Cl      14.02574056      13.90881989      15.16310553       0.01469649       0.00886723       0.00963490
C       13.57241886      15.18896319      14.01406436       0.00022800       0.00622836       0.01098078
H       13.23356580      14.79092653      13.00954950       0.00032377       0.00233196       0.01209655
Cl      14.62089339      11.09780295       3.81207861       0.00216777       0.01833802       0.00461898
Cl      12.29118706       9.67022063       2.80727341       0.00341263       0.01309734       0.00893248
Cl      14.08740869      11.02436596       0.94058930       0.01807644      -0.01325586       0.00271221
C       13.95616582      10.13864326       2.47050583       0.00616552       0.00559793       0.01171689
H       14.55710172       9.24061713       2.37672500       0.00430988       0.00334914       0.02525962
Cl      12.98759759       1.84320104       3.42929919       0.00292669      -0.00644103       0.00646487
Cl      12.22165735       4.61970759       2.94493422       0.01439641      -0.00026730       0.01589432
Cl      12.14963836       2.66980007       0.75869102       0.00279454       0.00541177       0.01207930
C       11.92612657       2.95673959       2.53679257       0.00514743       0.00196373       0.01288417
H       10.89943439       2.68957325       2.77750269       0.00451902       0.00516980       0.01618811
Cl       6.54565684       7.08012435       0.10467295       0.01166904       0.00661758      -0.00556415
Cl       4.01860384       6.86164271       1.54635675       0.02651221      -0.00373399       0.01827374
Cl       4.96747471       9.47537901       0.64781571       0.00918859       0.00089416       0.01139203
C        4.91712755       7.73776154       0.29738943       0.01173018       0.00088461       0.01108269
H        4.39989567       7.61189399      -0.64638531       0.00302406       0.00006698       0.01620424
Cl       9.77760746       2.78547079      11.68639066      -0.00157934      -0.00333637      -0.00590149
Cl       7.21473641       4.15948885      11.42869173      -0.00227642      -0.00780064      -0.00762719
Cl       7.60475097       1.52908906      10.19489125       0.00195917      -0.00616789      -0.01113373
C        8.01682024       2.57605388      11.54189944      -0.00083502      -0.00713558      -0.00958069
H        7.67436564       2.11565303      12.46084517      -0.00127439      -0.00927283      -0.01105312
Cl       0.46639340       2.58727606      15.48025766      -0.00259201       0.00957072       0.00116116
Cl       2.20818333       4.90854333      15.20030122       0.00407719       0.00545373       0.00816494
Cl      -0.35902893       5.17031582      16.56113366      -0.00718919       0.01590747      -0.01496089
C        1.02212163       4.14916746      16.24163810      -0.00697364       0.01161563      -0.00022465
H        1.50748469       3.86839646      17.17066080      -0.01682177       0.01374475       0.00525855
Cl       8.44518713       8.55427309       8.63939772      -0.00015962       0.00601835       0.00070989
Cl       8.82943941       9.96857592      11.15706572      -0.00266483      -0.00512934       0.00714862
Cl       9.65632423       7.17304535      10.88720054       0.00116718      -0.00254273      -0.00531048
C        9.47204950       8.73994877      10.08136739      -0.00077669       0.00044355       0.00167336
H       10.45094834       9.06396972       9.74887967      -0.00115713       0.00358057       0.00338387
Cl       1.43434414       1.15719198      12.19089361       0.01945149      -0.00411135       0.01246749
Cl       3.85958410       1.89411696      13.62204737       0.01606915       0.01878462       0.00654604
Cl       3.29368564       3.06910460      11.00771312       0.01098952      -0.00473765      -0.00253838
C        2.60129389       2.45783268      12.50460603       0.01355105       0.00341873       0.00235087
H        2.06078163       3.26592090      12.98441937       0.00974730       0.00497860      -0.00456359
Cl       4.34905203      11.57738115       4.36886743      -0.00496680      -0.00355558       0.00664371
Cl       3.99187624      13.07286727       6.84832481      -0.01602270      -0.01190063       0.00842495
Cl       1.74394369      11.61488467       5.72317016      -0.01519188       0.00286570      -0.01405943
C        3.51142596      11.65754670       5.92809777      -0.01673236      -0.00666711      -0.00002495
H        3.79082433      10.77073393       6.48281850      -0.02639493      -0.01032704      -0.00106753
Cl       9.42832345       8.14816806      14.31006938      -0.00363451      -0.00335661       0.00332305
Cl      11.02157244      10.27073090      15.50716898      -0.00391898       0.00092350      -0.00404632
Cl       8.22108736      10.76106053      14.84800809      -0.00598976      -0.00398698       0.00053498
C        9.41005158       9.55288146      15.37727303      -0.00328329      -0.00095522       0.00063451
H        9.10746800       9.21952683      16.36251095      -0.00125496       0.00060850       0.00174186
Cl      -0.24553273       7.78310134      13.25670277       0.00764556      -0.00653012      -0.00581758
Cl      -0.15540016       5.03921032      12.26442535       0.00811341      -0.00953114       0.00210449
Cl       1.13509683       7.17838156      10.74920532       0.00453685      -0.01242373      -0.00551221
C        0.69933604       6.58616176      12.36297182       0.00726318      -0.00864928      -0.00366649
H        1.62438454       6.42218097      12.90140290       0.00788252      -0.00690440      -0.00425263
Cl      10.20639294      13.20005342       1.61047519      -0.01730555       0.00822175       0.00065269
Cl      10.09500314      15.61700744       3.24836180      -0.01037471      -0.00342529       0.01347187
Cl      12.68076116      14.56409865       2.31973342      -0.01180553       0.00393733      -0.00241672
C       10.88310068      14.77175621       1.94615908      -0.01450670       0.00601366       0.00598979
H       10.87420968      15.35799085       1.03386532      -0.01737673       0.01024754       0.00929652
Cl       2.58149732      13.88789385       2.88769429       0.00789838       0.00308164      -0.00596087
Cl       1.52041912      15.73923493       0.87810635      -0.00320147      -0.00774713      -0.00982955
Cl      -0.18940358      14.77501141       3.04537108       0.00430846      -0.01208819      -0.00481617
C        1.50994551      15.20505267       2.59897934       0.00073734      -0.00333142      -0.00869867
H        1.78960930      16.07113743       3.19406350      -0.00343787      -0.00001463      -0.01166420
Cl       3.66898357       1.55299608       4.00199642      -0.00866337      -0.01173924       0.01114976
Cl       5.35298431       0.33970245       1.94270455      -0.01589666      -0.00931810       0.00424668
Cl       5.51716302       3.20826336       2.45428321      -0.02878374      -0.00673208      -0.00783592
C        5.26367635       1.61289901       3.17291510      -0.01497198      -0.00524615      -0.00018311
H        5.99366634       1.39346721       3.95466446      -0.00833932       0.00212437      -0.00454926
Cl      14.01744550       7.46171530       5.54177800       0.01035920      -0.01944311      -0.00468232
Cl      11.12781857       7.42954791       5.96647877       0.01155068       0.01411815      -0.00047478
Cl      12.78297203       5.29086889       7.04294140      -0.00994257      -0.00220343       0.00113569
C       12.70775706       7.01043932       6.64957641       0.00726846      -0.00243157      -0.00116798
H       12.83833479       7.57553965       7.56545604       0.01461941      -0.00232363      -0.00223842
Cl       3.88607735       0.12798366       8.16124793       0.01228204      -0.01893592      -0.02186155
Cl       1.83041770      -1.31871915       9.65150526      -0.00779086       0.01184893      -0.01992873
Cl       4.65936307      -1.86697952      10.14389495      -0.01398334       0.00302130       0.01051052
C        3.47681976      -0.62763470       9.69396281      -0.00479857       0.00284244      -0.01567065
H        3.49062135       0.12884948      10.46944671      -0.00612130       0.01188314      -0.02482837
Cl       1.62051674       9.66592498       2.45276750      -0.00335623      -0.00540754      -0.00250718
Cl       0.42152184       7.13473382       3.25228103       0.00139704      -0.00457896       0.00587694
Cl       2.73958592       8.16043644       4.69793320      -0.00484052       0.00749749       0.00673882
C        1.28057092       8.59589203       3.81654278      -0.00379400      -0.00002101       0.00137657
H        0.61930583       9.12131434       4.49594209      -0.00675397       0.00121900      -0.00245604
Cl       2.31826261       4.28813805       7.54011942      -0.00545976      -0.01136542      -0.01000620
Cl       4.41400472       4.91220916       5.61936357      -0.00528970      -0.01320854      -0.01033556
Cl       5.05331814       4.70789468       8.46115958      -0.00632501      -0.00249232      -0.00997522
C        4.04725205       4.10457630       7.14167381      -0.00468751      -0.00905070      -0.00806265
H        4.24997584       3.04753709       7.02078473      -0.00313563      -0.00918210      -0.00392706
Cl       5.27049039       9.11923985      13.14009610       0.00689411      -0.00258997       0.00660753
Cl       5.65575712       7.67323125      10.64112152       0.01893437       0.00479084       0.00445899
Cl       4.35045193       6.36196253      12.88885943       0.00343941       0.00039281      -0.00754301
C        4.61507414       7.91631344      12.03341641       0.01113762       0.00223958      -0.00105732
H        3.64558840       8.25697340      11.68630448       0.01406771       0.00539956      -0.00579625
Cl      13.58147839       7.03691243      10.20866045      -0.00247130      -0.00062093       0.00944385
Cl      13.44337495       9.74382872       9.12985514      -0.00543456      -0.00048266       0.01094112
Cl      12.81181720       9.26773584      11.92925696      -0.00332776      -0.00196570       0.01140335
C       13.79816248       8.76454233      10.57091004      -0.00376047      -0.00114896       0.00988978
H       14.84300772       8.91641309      10.81580574      -0.00402510      -0.00015928       0.00985257
Cl       6.79626070       8.93533359       3.78681767       0.00110514       0.00019749       0.00242549
Cl       5.68773586       8.67450649       6.48347247      -0.00070193      -0.01098642      -0.00001248
Cl       7.60428752       6.72305618       5.50069666      -0.00313620      -0.00997180      -0.00923558
C        7.10660763       8.41354654       5.44274623      -0.00073680      -0.00918412      -0.00031138
H        7.91010533       9.02020011       5.84465212       0.00025412      -0.01291752       0.00306332
Cl      -0.78003822       3.82793187       5.26699391       0.00142057       0.01237850      -0.02084746
Cl       0.62607404       1.29975417       5.58164226      -0.02928390      -0.00596067      -0.01128965
Cl       0.32491265       2.45964569       2.90201700      -0.00272980       0.00118379      -0.01342347
C        0.51120516       2.80840546       4.69914931      -0.00856951      -0.00454213      -0.01179793
H        1.45760707       3.33740806       4.75768787      -0.00213298      -0.01744409      -0.00559773
Cl      15.93679375       2.69686972       9.20004945       0.01093227      -0.01626906       0.01060276
Cl      13.31849839       3.03638699      10.44769716       0.00019297      -0.00179318      -0.01268069
Cl      13.59424239       1.41233788       8.03115680       0.02149907       0.00687139      -0.01697090
C       14.36956769       1.94221577       9.53251546       0.00311640      -0.00600889      -0.00421476
H       14.54011681       1.06110874      10.13906054      -0.00876333      -0.00740218      -0.00293124
Cl      10.73695556      11.51684307       7.72638958       0.00491230      -0.00050380      -0.00177616
Cl       9.56832137      10.99259903       5.08428009      -0.00422662      -0.00891033       0.00424145
Cl      11.45039748      13.18241076       5.46012408      -0.00747408      -0.00485221      -0.00878058
C       10.99650054      11.55834183       5.98933553      -0.00208358      -0.00404604      -0.00324918
H       11.80862805      10.88535685       5.74072674      -0.00189656      -0.00314903      -0.00452476
