144
Lattice="12.762210473554438 0.0 0.0 0.0 12.762210473554438 0.0 0.0 0.0 12.762210473554438" Properties=species:S:1:pos:R:3:forces:R:3 energy=-319882.25 stress="-0.0004900751519016922 -0.00036931256181560457 -0.0006290712626650929 -0.00036931256181560457 -0.0007371844258159399 0.0002752434811554849 -0.0006290712626650929 0.0002752434811554849 -7.566972635686398e-05" pbc="T T T"
Ba      13.06984566      13.17271747      -0.39423539      -0.00211310       0.00827499      -0.02604634
Cl      11.15239106      12.56657581       6.28479104       0.00565851       0.00997543      -0.00123703
O        9.74556249      12.64247879       6.74614036       0.00507808      -0.00079185       0.00011426
O       11.94227697      13.63905233       6.94766454      -0.00408220       0.01896882      -0.00525236
O       11.16482528      12.85065880       4.80612647       0.00207252       0.00336808      -0.00162029
Cl       2.94647235      11.36288713      11.58481712       0.02895513       0.00294983       0.03552628
O        2.12794812      11.42701298      12.88646038      -0.01770496      -0.00265482       0.01910222
O        4.32807108      11.69859645      11.87760735      -0.01198792       0.02027094       0.04358524
O        2.33838380      12.48513219      10.76400607      -0.00183308      -0.01578188       0.00570729
O        4.72421101       8.25469466       7.41493288       0.00134449       0.00048420      -0.00241914
C        5.17826763       9.60054857       7.35312322       0.00135076       0.00083779      -0.00327510
C        3.65824209       8.09097100       8.33347274      -0.00048053       0.00236773      -0.00466376
C        6.41036916       9.66237445       6.48438692       0.00308067       0.00058060      -0.00070533
C        3.24483574       6.63988551       8.34635484      -0.00076359       0.00249934      -0.00369554
H        4.37765276      10.24181886       6.95512577       0.00118381       0.00065413      -0.00549392
H        5.40082931       9.95693428       8.36765536       0.00001249       0.00128664      -0.00351644
H        3.98495259       8.41021596       9.33572484      -0.00329253       0.00354023      -0.00473055
H        2.81387502       8.73601492       8.04677944      -0.00001666       0.00099707      -0.00865525
H        6.81065313      10.67665556       6.45898842       0.00166640       0.00036350      -0.00187832
H        7.18578582       9.00345017       6.87913623       0.00231555       0.00122434       0.00111665
H        6.18334211       9.35372652       5.46430981       0.00403764      -0.00039219      -0.00065745
H        2.44413537       6.48154977       9.06934920      -0.00167266       0.00306382      -0.00480351
H        2.89065780       6.33180291       7.36184516       0.00106478      -0.00018476      -0.00444260
H        4.08529274       6.00447972       8.62731536      -0.00116837       0.00313518      -0.00063198
O        0.77372581       8.91915256       4.50264794      -0.00087547      -0.00053158       0.00582419
C        1.84548163       9.82133574       4.72291907       0.00057505      -0.00188738       0.00308800
C        1.23897581       7.70310550       3.94530054      -0.00395975      -0.00123531       0.00458869
C        1.32335030      11.07374404       5.37558371       0.00317070      -0.00109541       0.00412837
C        0.06267816       6.81136538       3.63680651      -0.00645435       0.00157058       0.00607812
H        2.60818679       9.33253313       5.35112182       0.00133917      -0.00244746       0.00148755
H        2.32276702      10.05517384       3.75962599      -0.00140099      -0.00233120       0.00203639
H        1.82506994       7.90576080       3.03892837      -0.00515300      -0.00175036       0.00379753
H        1.92174454       7.21556145       4.65773465      -0.00398505      -0.00291680       0.00331801
H        2.13402992      11.78852895       5.52461585       0.00399774      -0.00227837       0.00253482
H        0.55690456      11.54630186       4.76112993       0.00272691      -0.00029509       0.00536309
H        0.87909963      10.85646690       6.34774795       0.00435003      -0.00089449       0.00479575
H        0.41194030       5.86821732       3.21485448      -0.00968417       0.00069091       0.00572397
H       -0.50893774       6.59153835       4.53921829      -0.00579848       0.00310880       0.00687627
H       -0.60267331       7.28616630       2.91505553      -0.00638492       0.00325917       0.00709914
O        9.83797616      11.31122187      10.14450199      -0.01068515       0.00522253       0.00417095
C        8.89876792      10.40756676      10.71225011      -0.00957447       0.00097952       0.00580779
C       11.14395156      11.13229874      10.58834373      -0.01061040       0.00273937      -0.00386374
C        7.66647956      10.42508259       9.84870773      -0.01327980       0.00277210       0.01154995
C       12.01029110      12.10137181       9.81636961      -0.01126641      -0.00013086      -0.01114228
H        9.33360690       9.39860658      10.74271875      -0.00861812       0.00172102      -0.00024012
H        8.67398514      10.71913448      11.74098047      -0.00449545      -0.00350806       0.00753140
H       11.18662738      11.28206027      11.70201356      -0.00272567       0.00382423      -0.00379351
H       11.48623942      10.09904464      10.43153574      -0.01235520       0.00275975      -0.00393022
H        6.87978005       9.81883154      10.30061776      -0.00942317      -0.00205915       0.01175886
H        7.29790422      11.44429452       9.73224426      -0.01667102       0.00185409       0.01846332
H        7.90525662      10.02383720       8.86522774      -0.01723985       0.00848812       0.00786120
H       13.07934849      11.96361630       9.99858835      -0.01017305      -0.00109658      -0.01698974
H       11.87081289      11.95503776       8.74839895      -0.01838431      -0.00464273      -0.00936478
H       11.69394242      13.14476779       9.96948333      -0.01089551       0.00002743      -0.01321871
O        9.26888593       7.51791264       8.11820921      -0.00201470       0.00285795       0.00445732
C        8.43387543       6.41118279       7.83450303      -0.00091326       0.00165893       0.00531876
C       10.26819568       7.68434370       7.12140786      -0.00235605       0.00285244       0.00478346
C        7.41385477       6.27114985       8.93683007      -0.00101563       0.00148647       0.00500509
C       11.09375535       8.90590749       7.43106333      -0.00351319       0.00413901       0.00326248
H        7.93558683       6.56211800       6.86460532      -0.00070184       0.00031969       0.00511557
H        9.04172976       5.49765384       7.74509552       0.00017095       0.00221947       0.00620315
H       10.89815028       6.78207955       7.08330453      -0.00116944       0.00359881       0.00591103
H        9.78710573       7.78354626       6.14043028      -0.00214249       0.00118276       0.00444704
H        6.77892770       5.40310980       8.75244198      -0.00041720       0.00099990       0.00524583
H        7.90913879       6.14015953       9.89970264      -0.00127336       0.00204684       0.00527586
H        6.77594676       7.15459506       8.98168300      -0.00151354       0.00099340       0.00451177
H       11.82672186       9.06400913       6.63800296      -0.00360754       0.00387344       0.00335670
H       10.46314606       9.79429256       7.50069247      -0.00448109       0.00365975       0.00184142
H       11.62514778       8.77750556       8.37547745      -0.00361802       0.00583201       0.00346564
O        4.54302854       7.51327787       2.86547836       0.00220853      -0.00470439       0.00070879
C        4.90328359       6.84594403       4.06225580      -0.00014304      -0.00431675       0.00117268
C        4.96206970       8.86916540       2.86530309       0.00339650      -0.00489894       0.00051421
C        4.38408462       5.43085258       3.99531981      -0.00054294      -0.00405258      -0.00010052
C        4.46389537       9.52335603       1.60385318       0.00698656      -0.00481005       0.00021660
H        5.99828822       6.86012678       4.17623404      -0.00028545      -0.00476301       0.00301702
H        4.48687324       7.37478496       4.93087252      -0.00124124      -0.00406367       0.00040379
H        4.55400178       9.37808938       3.75014758       0.00228587      -0.00434132      -0.00013342
H        6.05863396       8.91994936       2.93910104       0.00348115      -0.00609217       0.00272710
H        4.65826035       4.88327493       4.89755920      -0.00256836      -0.00456284       0.00052074
H        3.29748277       5.42576744       3.90380820      -0.00023103      -0.00326770      -0.00211646
H        4.79905751       4.90697831       3.13357506       0.00096497      -0.00391246       0.00090888
H        4.75951329      10.57113508       1.56479026       0.00791635      -0.00502899       0.00128513
H        4.86655717       9.02381219       0.72074863       0.00819097      -0.00475506       0.00077860
H        3.37584816       9.48087301       1.55038692       0.00658292      -0.00383061      -0.00199318
O       11.40147875       1.85116686       1.10395741       0.01032759      -0.00966521      -0.01367500
C       10.06525959       2.13545149       0.64086251       0.01143903      -0.00864866      -0.01595904
C       11.53041825       1.63587785       2.54733330       0.01007825      -0.01167521      -0.01344362
C        9.72004671       3.60651619       0.63298378       0.00950534      -0.00886047      -0.00554678
C       11.87083258       2.87301280       3.33675855       0.00651100      -0.01049405      -0.01326397
H       10.00889341       1.72572700      -0.37525931       0.01713327      -0.00061693      -0.01944101
H        9.36260526       1.57647291       1.26361257       0.01038504      -0.01565176      -0.02385238
H       10.61890335       1.17115525       2.91706233       0.01023841      -0.01466228      -0.01586834
H       12.32640707       0.89115127       2.66199718       0.01185340      -0.01028377      -0.01574894
H        8.72315936       3.73364821       0.20558561       0.01260835      -0.00467140      -0.01147805
H        9.69755039       4.00560947       1.64366526       0.00037763      -0.01779444      -0.00232899
H       10.42820829       4.17853312       0.03243680       0.01346557      -0.00227834       0.00496396
H       11.99670066       2.56329264       4.37612776       0.00996223      -0.00849277      -0.01354039
H       12.79556400       3.33065383       2.98153156       0.00333157      -0.00462572      -0.01402416
H       11.06689489       3.60492243       3.30405793       0.00292191      -0.01439428      -0.00957854
O        8.35467232       3.38802747       4.01004858       0.00271136       0.00037825      -0.00178344
C        7.28524143       2.48522432       4.26454856       0.00361114      -0.00065815      -0.00229837
C        7.91259021       4.73137145       4.05563368       0.00256795       0.00007892      -0.00016230
C        7.79140235       1.06733255       4.22716082       0.00549540       0.00009328      -0.00412266
C        9.09464070       5.66719100       4.04585321       0.00310755      -0.00065666      -0.00219067
H        6.85791658       2.71118015       5.25236036       0.00362112      -0.00211729      -0.00204659
H        6.48855833       2.64679464       3.52105561       0.00339150      -0.00075829      -0.00194383
H        7.24675837       4.93446104       3.20271651       0.00100344       0.00050911       0.00114655
H        7.31722491       4.88760640       4.96804578       0.00419787      -0.00024469       0.00092322
H        6.97319598       0.38493864       4.46445019       0.00652376      -0.00156876      -0.00602920
H        8.16376498       0.81238066       3.23370334       0.00681954       0.00286045      -0.00427054
H        8.58999251       0.90626536       4.95222068       0.00546125       0.00031383      -0.00402430
H        8.75520237       6.70326789       4.07474521       0.00421079      -0.00034179      -0.00280618
H        9.73838304       5.47509643       4.90441115       0.00393167      -0.00068036      -0.00303540
H        9.68877204       5.55472873       3.13901697       0.00163684      -0.00250567      -0.00287148
O        8.64843042       8.71987308       2.34686898       0.00328309       0.00008127       0.00549936
C        9.38264097       9.88976237       2.68236936       0.00009274       0.00134368       0.00583589
C        8.14882342       8.78629241       1.02716992       0.00737026      -0.00259972       0.00322598
C        9.95188743       9.74810887       4.06585735      -0.00442183       0.00470126       0.00804210
C        7.46127706       7.49264057       0.67803454       0.00902680      -0.00336558       0.00337854
H       10.18889590      10.03133694       1.94401513       0.00273001       0.00120870       0.00831825
H        8.72369599      10.76896809       2.61586860      -0.00058129       0.00035429       0.00195602
H        7.45409492       9.63592745       0.93184986       0.00805879      -0.00326094      -0.00051661
H        8.98086239       8.97186862       0.33542078       0.01021314      -0.00385085       0.00595209
H       10.52285093      10.64131436       4.31997614      -0.00746495       0.00620243       0.00873609
H        9.15263797       9.63676685       4.79989520      -0.00659095       0.00366669       0.00529572
H       10.61364334       8.88390936       4.12134919      -0.00250956       0.00626454       0.01144720
H        7.06366158       7.54919219      -0.33649152       0.01323911      -0.00556702       0.00184225
H        8.16509261       6.65987603       0.72621946       0.00873518      -0.00353327       0.00792953
H        6.63128785       7.28620333       1.35497188       0.00646961      -0.00198124       0.00055060
O        3.56136198       3.86932658      11.56294894      -0.00587997       0.00957975      -0.00641388
C        2.99893529       2.63638805      11.19438918      -0.00809115       0.01202452      -0.00565471
C        4.96762529       3.77754277      11.74417706      -0.00522390       0.00366545      -0.00009685
C        1.52770144       2.87099428      10.90021499      -0.00705826       0.01364213      -0.00871675
C        5.49172421       5.15837933      12.02845296       0.00055183      -0.00000000       0.00648665
H        3.49865053       2.22323895      10.30868967      -0.00704274       0.00890839      -0.00413135
H        3.15499325       1.89197303      11.99508714      -0.01017465       0.01140222      -0.00409889
H        5.19498655       3.08538685      12.56898328      -0.01326775       0.00080121      -0.00160941
H        5.42533459       3.35970938      10.83508048      -0.00344126       0.00414987       0.00135005
H        1.09621146       2.02310173      10.35594346      -0.00917646       0.01481192      -0.01100451
H        0.96382106       3.11665654      11.81308192      -0.00847178       0.01306768      -0.00968926
H        1.41947020       3.73036797      10.23969962      -0.00433336       0.01342717      -0.00854933
H        6.57462718       5.13512547      12.14682345      -0.00003409      -0.00698110       0.01099223
H        5.25118851       5.83097044      11.20358457       0.00927251       0.00447410       0.00769278
H        5.05160288       5.56268287      12.94045331      -0.00091513       0.00020366       0.00537267
