149
Lattice="12.149409163722224 0.0 0.0 0.0 12.149409163722224 0.0 0.0 0.0 12.149409163722224" Properties=species:S:1:pos:R:3:forces:R:3 energy=-335852.40625 stress="0.0002999313292093575 -0.00011973275468335487 0.0009562100167386234 -0.00011973275468335487 -0.0008896301151253283 7.335591362789273e-05 0.0009562100167386234 7.335591362789273e-05 0.0002866998838726431" pbc="T T T"
Ba      13.65062716       9.75247105       1.69266550      -0.00468630      -0.00721586       0.00443932
S        5.68714482       7.27205488       8.91077474       0.01008207       0.00754547       0.01191860
F        6.59482130       9.71767363       9.36984421       0.00011880       0.00254805      -0.00777771
F        5.85971614       9.41042824       7.35604108       0.00762469      -0.00280822      -0.01249944
F        7.77657509       8.58262113       7.94637359       0.01011541       0.00173798      -0.00194706
O        5.78498145       6.39551416       7.76763211       0.01552773      -0.01107013      -0.01511145
O        4.35694887       7.71182482       9.27399956       0.00617838      -0.00598156      -0.01625073
O        6.52589544       6.88240228      10.05168488      -0.00287694       0.00367412      -0.00960433
C        6.52177978       8.82782126       8.35657630       0.00379032      -0.00463521      -0.00456917
S        5.09531447       9.89589483       3.28985074      -0.00162122      -0.00558347      -0.00721186
F        4.01099603      12.25692818       3.67870548      -0.00172638       0.00022392      -0.02629405
F        5.95890142      11.98479734       4.61505911      -0.00940000      -0.00021733      -0.00911689
F        4.19981939      11.10847912       5.50271934      -0.01878405       0.00532033      -0.02056504
O        5.80527900       8.98230131       4.13932081       0.00016427       0.00412405      -0.00629294
O        5.79875371      10.45126394       2.15636693      -0.00469494      -0.00567132      -0.01289696
O        3.73035625       9.45001171       2.93262844      -0.00124538      -0.01035661      -0.00578985
C        4.79746940      11.38912689       4.33907016      -0.00804278       0.00017601      -0.01688224
O        1.44075083       9.91143042       4.56279465      -0.00771391      -0.00929683      -0.01126283
C        1.65273325       8.63527208       5.24056384      -0.00725864      -0.00485917      -0.00299917
C        2.38423978       8.79150072       6.55639785      -0.00433475       0.00441691      -0.00510532
C        0.32351548       7.93954186       5.41250548      -0.00817633      -0.00118950       0.00364040
H        2.28903634       8.08349493       4.54424537      -0.00993395      -0.01129633      -0.00057647
H        2.54733833       7.81277044       7.01022293      -0.01573220       0.00813392       0.00941957
H        3.35481645       9.25984127       6.43659566       0.00001679      -0.00626715      -0.01417276
H        1.78653934       9.37868545       7.26112258       0.00253908       0.02600717      -0.01644737
H        0.45941986       6.91235113       5.74967486      -0.00934054       0.00204493       0.01350228
H       -0.22485778       7.91542546       4.47176675      -0.00788041      -0.01014373       0.00383288
H       -0.28560486       8.46365152       6.15525720      -0.00800450       0.00642652      -0.00162689
H        1.01075526      10.50759270       5.18510991      -0.00562832      -0.00516830      -0.01404196
O        1.92490807       2.66901051       3.04484440      -0.00138563       0.00246084       0.00332130
C        0.86716897       1.84507884       3.49541998      -0.00223416       0.00287783       0.00216290
C        0.82668977       0.64530963       2.55971323      -0.00437508       0.00510931      -0.00069046
C        1.02254363       1.42441724       4.94577304      -0.00100547       0.00023174       0.00132334
H       -0.08727869       2.38618401       3.39512596      -0.00174695       0.00429115       0.00422439
H        0.03481631      -0.05095250       2.85641144      -0.00445183       0.00494512      -0.00159934
H        0.64747264       0.97279705       1.53310572      -0.00579397       0.00779937       0.00046492
H        1.81240623       0.17189322       2.61738567      -0.00495100       0.00379414      -0.00407687
H        0.16390115       0.82327201       5.25710148      -0.00088528       0.00032537       0.00195245
H        1.06860756       2.30112877       5.59228142       0.00073411      -0.00063325       0.00243299
H        1.93736348       0.84427677       5.08418938      -0.00113323      -0.00056643      -0.00079472
H        2.37493255       3.10217443       3.79451152      -0.00491954       0.00499783       0.00376090
O        2.56090479      11.67704898      12.17564002      -0.00218387      -0.01049328       0.00250200
C        3.58867547      11.24297215      11.22563841      -0.00171655      -0.00706777       0.00147779
C        3.88644299       9.80758077      11.57444743      -0.00499453      -0.00988442      -0.00787374
C        3.11851392      11.43386403       9.79977345       0.00076385       0.00427053       0.00216740
H        4.47686879      11.85218910      11.40424189      -0.00046211      -0.01036629       0.00703670
H        4.67060617       9.40867977      10.93743196      -0.00580043      -0.00715711      -0.01078998
H        4.22847621       9.72877485      12.60755593      -0.00475722      -0.01728342      -0.00863597
H        3.01617258       9.16811024      11.38200145      -0.00604594      -0.00723407      -0.01057686
H        3.88058610      11.07029203       9.10870697       0.00298819       0.01241611       0.00032374
H        2.92078558      12.48343664       9.57523603      -0.00091017       0.00605044       0.01123766
H        2.20494274      10.86451653       9.61224761       0.00220895       0.00417337      -0.00533900
H        2.53399995      12.63870073      12.19530044      -0.00708450      -0.01055884      -0.00058613
O        8.21944824       4.62412677       9.80594226       0.00579959       0.00547612      -0.00235963
C        7.48135621       3.49014551      10.25201473       0.00954401       0.00383890      -0.00105678
C        6.04254721       3.53720749       9.76659048       0.00796664       0.00068483       0.00221518
C        8.21101797       2.26016435       9.74879147       0.01076189       0.00537467      -0.00270727
H        7.47642916       3.47424638      11.35048347       0.01159908       0.00357965      -0.00104600
H        5.51378934       2.61948147      10.03415780       0.01098408      -0.00072995       0.00311051
H        5.50844281       4.38106646      10.20490659       0.00704368      -0.00093837       0.00391061
H        6.02415408       3.65066857       8.68412629       0.00535247       0.00097019       0.00215942
H        7.72227984       1.34860260      10.09636476       0.01474877       0.00446989       0.00009867
H        9.24406801       2.25771471      10.09991447       0.01222540       0.00895174      -0.00680523
H        8.22014532       2.25528636       8.65710499       0.00662744       0.00433598      -0.00283013
H        7.64403527       5.40531999       9.87324320       0.00432210       0.00430256      -0.00266331
O       12.40716729       9.36004921      11.19233794       0.01486960      -0.01147324       0.02452737
C       11.08225359       8.94070865      10.73676141       0.01579178      -0.00264039       0.01282474
C       10.32135365      10.09620618      10.11493852       0.02852184       0.00530136       0.01224205
C       11.17211331       7.75967631       9.79065333       0.01898152       0.00141740       0.00812331
H       10.59654766       8.64211320      11.66207868       0.00665593      -0.00436528       0.00780872
H        9.28583603       9.79930626       9.93795999       0.02965307       0.01104382      -0.00410973
H       10.32076619      10.97137282      10.76346831       0.02391439      -0.00026824       0.01959269
H       10.75061456      10.37099553       9.14716608       0.04363224       0.01132143       0.02061573
H       10.17142299       7.37191320       9.58881497       0.01895252       0.00866664      -0.00513652
H       11.77331650       6.95303459      10.20838668       0.00916515      -0.00404441       0.01152390
H       11.60903389       8.05979731       8.83380596       0.03256936       0.00358594       0.01503383
H       12.90898501       9.61913097      10.41131064       0.02200021      -0.01046927       0.02926785
O       10.74013577       5.51377337       4.52372320      -0.00749373      -0.00659233      -0.00347671
C        9.70507592       6.06309246       5.38889128      -0.00529382      -0.00430173      -0.00221775
C        8.34712572       5.88970291       4.75023498      -0.00650454       0.00026874      -0.00119111
C        9.79621660       5.44607780       6.76825351      -0.00558414      -0.00571787      -0.00287861
H        9.94608038       7.12589739       5.44477243      -0.00239363      -0.00516278      -0.00160167
H        7.57087141       6.34353468       5.36825283      -0.00449899       0.00145878       0.00040410
H        8.32332646       6.35266359       3.76331724      -0.00620384       0.00200897      -0.00035669
H        8.11053071       4.82876503       4.64066301      -0.00961200       0.00113122      -0.00263824
H        9.03402911       5.86030258       7.42842022      -0.00481221      -0.00548557      -0.00215395
H       10.77773464       5.61465576       7.21295166      -0.00516705      -0.00736335      -0.00316792
H        9.61916614       4.36801769       6.72193087      -0.00679629      -0.00547142      -0.00390515
H       10.60988338       4.55972896       4.49730538      -0.01107742      -0.00592682      -0.00540791
O        6.34195563       6.04953221       0.65250133      -0.01291949      -0.02262852      -0.00804663
C        5.25015940       6.67421773       1.32483563      -0.00722444      -0.01347004      -0.00767305
C        3.94606827       6.43094904       0.57572126      -0.01019198      -0.00648873      -0.00561717
C        5.20168435       6.11729252       2.73079001      -0.00990338      -0.00946638      -0.00610203
H        5.43295272       7.75608062       1.38164399       0.00022393      -0.01439059      -0.01064572
H        3.10493247       6.86812441       1.12675704      -0.00676687       0.00047253      -0.00588566
H        3.97401987       6.85484201      -0.42944923      -0.00855445      -0.00894351      -0.00655848
H        3.76157617       5.35713106       0.49751154      -0.01706893      -0.00546753      -0.00252503
H        4.38183239       6.57148885       3.28853291      -0.00222561       0.00206291      -0.00460224
H        6.12174114       6.33460578       3.26626292      -0.00506891      -0.02011556      -0.00999024
H        5.05104491       5.03656760       2.70398709      -0.02385010      -0.00758614      -0.00294024
H        6.37608965       6.40266798      -0.25098890      -0.00757949      -0.01937944      -0.00621192
O       11.07274043       9.14701166       2.04657558      -0.00643747      -0.00087555       0.01356945
C        9.70124479       9.43476617       2.44766185      -0.00597960       0.00514984       0.00996105
C        9.71018482      10.45368085       3.56710705      -0.00399509       0.00574374       0.00953037
C        8.89191903       9.91013681       1.26125453      -0.00002733       0.00864977       0.00725001
H        9.28017654       8.49594498       2.82338822      -0.01187716       0.00758076       0.00949475
H        8.70145012      10.56734550       3.96540734      -0.00485784       0.01334068       0.00492189
H       10.37334286      10.13883411       4.37445826      -0.00997640       0.00148234       0.01280583
H       10.03592285      11.42887711       3.19508456       0.00496786       0.00303093       0.01033214
H        7.88621844      10.17639100       1.58301190      -0.00054544       0.01151232       0.00307158
H        8.79770553       9.13764743       0.49857986       0.00104729       0.00938050       0.00630149
H        9.36380340      10.78866902       0.81512230       0.00464713       0.00750943       0.00986061
H       11.17548288       8.15460471       2.04451424      -0.00891137      -0.00073227       0.01099227
O       11.64097350       6.60675366       2.14083916      -0.00113322      -0.00207135       0.00273275
C       11.25453095       5.75936369       1.02306750       0.00041357       0.00209096      -0.00080596
C       11.54695800       4.31079301       1.35439684       0.00709904       0.00132078      -0.00975366
C        9.80040803       5.97333194       0.65555662      -0.00115043      -0.00166845       0.00297742
H       11.90339606       6.08600631       0.20556525      -0.00247255       0.00884761      -0.00038132
H       11.36099843       3.68515590       0.47951344       0.00818636       0.00591704      -0.01323952
H       12.57470613       4.16572236       1.68729426       0.00833476       0.00351605      -0.01239564
H       10.86785021       3.97169086       2.14079743       0.01030168      -0.00650123      -0.01045217
H        9.53119051       5.38909765      -0.22793714      -0.00036372       0.00272278      -0.00012137
H        9.59038382       7.01941325       0.43397159      -0.00591725      -0.00103673       0.01016905
H        9.14217592       5.66878165       1.47074117       0.00196082      -0.00960062       0.00249948
H       11.28870099       6.20805909       2.96880186      -0.00196564      -0.00558774       0.00069061
O        3.48339670       3.80244621       5.05051611      -0.01073836       0.00344139       0.01121718
C        4.38022700       2.92207184       5.77142149      -0.00867575       0.00105505       0.00546587
C        5.76985271       3.51810288       5.82676382      -0.00875735       0.00092050       0.00141999
C        3.81595435       2.62177997       7.14793969      -0.00280705      -0.00039142       0.00787193
H        4.40219750       2.01481659       5.16826933      -0.01112971       0.00289333       0.00217849
H        6.45055330       2.83511389       6.33958356      -0.00667613       0.00029081      -0.00255396
H        6.14522796       3.66852444       4.81718534      -0.01159427       0.00420973       0.00085694
H        5.76978016       4.46392240       6.37457447      -0.00749352      -0.00037844       0.00383933
H        4.44825818       1.89507472       7.66148801      -0.00008932      -0.00183477       0.00374902
H        2.80947086       2.21131427       7.07641621      -0.00226675      -0.00288451       0.01034955
H        3.78468640       3.53069381       7.75242417      -0.00314588       0.00143300       0.00729584
H        3.70849477       4.70919221       5.28217199      -0.00467300       0.00280851       0.00722569
O        5.95369779       2.24675883       2.88583474       0.00518185       0.00946099       0.00140882
C        6.92580707       1.60352279       2.05794170       0.00377369       0.00664181       0.00180763
C        6.28220607       1.12118255       0.77250342       0.00262669       0.00950040       0.00132865
C        8.11099824       2.52703687       1.82580453       0.00633955       0.00355250       0.00254713
H        7.24847421       0.73328776       2.63334424       0.00117378       0.00564200       0.00176987
H        6.98799808       0.54810286       0.16821554       0.00119819       0.00855986       0.00062506
H        5.44449284       0.47189496       1.01930604       0.00069018       0.01156768       0.00026183
H        5.93336154       1.97036035       0.17745473       0.00491292       0.01131897       0.00267665
H        8.86151936       2.05447603       1.18742886       0.00557572       0.00168740       0.00308124
H        8.57468454       2.78351507       2.78018252       0.00631263       0.00240007       0.00290951
H        7.78473681       3.45280654       1.34632651       0.00856566       0.00417337       0.00237101
H        5.46911505       2.86808344       2.33195087       0.00629931       0.00925649       0.00020054
