146
Lattice="11.863208015003908 0.0 0.0 0.0 11.863208015003908 0.0 0.0 0.0 11.863208015003908" Properties=species:S:1:pos:R:3:forces:R:3 energy=-344330.3125 stress="-0.0007077542832121253 0.0003709160228027031 0.00021287535491865128 0.0003709160228027031 -0.0017722828779369593 3.434053120088265e-06 0.00021287535491865128 3.434053120088265e-06 -0.0010138562647625804" pbc="T T T"
Ba      14.09604068      13.59815331       1.13825702       0.00723234       0.01770002       0.00163721
S       11.57547386       7.51383111       4.54144101      -0.03290343       0.00214529      -0.01169121
S        8.82969602      10.70802906       3.28870970      -0.00312376      -0.02466113       0.00603409
S       11.56357865       9.68592628       4.88047260       0.00113353      -0.01110190      -0.00783406
S       10.98838806      10.42572083       3.09277081      -0.00648549      -0.00436763      -0.00369862
O       12.33045537       7.34046935       3.30307337       0.02304584      -0.00742744      -0.03362143
O        8.68280851      11.37913277       4.56745648       0.00162819       0.01202959       0.01246607
O       10.18050664       7.12593424       4.43305601       0.01973498      -0.01123989      -0.01947044
O       12.27086662       7.07993201       5.73995511       0.01486689      -0.01822972       0.00055683
O        8.63177006      11.55923336       2.11057887      -0.01227617      -0.00072497      -0.00391507
O        8.17210753       9.42102454       3.19911957      -0.00123686       0.00808394       0.01945370
O        8.98087254      10.21787085      10.06688132       0.00559628       0.00895263       0.00170761
C       10.02905940      10.62630357      10.94650660       0.00438744       0.00082180       0.00577191
C       11.36070142       9.98118206      10.60641131       0.00362724      -0.00052610       0.00638369
H       10.12211364      11.71705521      10.89366451       0.00794921       0.00096112       0.01261600
H        9.71382262      10.37063857      11.95822446       0.00115503      -0.00348710       0.00368375
H       12.12917643      10.31149066      11.31337254       0.00057290      -0.01107466       0.01446380
H       11.30415312       8.89473225      10.68410782      -0.00088925      -0.00086115      -0.00530175
H       11.67690285      10.24599508       9.59641797       0.00965207       0.00844768       0.01093352
H        9.02534675      10.83645028       9.31782548       0.01494678       0.00696298       0.00029423
O        9.86384728       8.80862359       7.71477736      -0.00436854      -0.00140870       0.00480628
C        8.69471515       9.04151275       6.92391027      -0.00079370      -0.01052447      -0.00332859
C        7.46408760       8.41604926       7.54189217      -0.00384963       0.00119951       0.00069547
H        8.51978692      10.11507818       6.79104052       0.00227514      -0.01231790      -0.01923539
H        8.90923828       8.63666086       5.93525384       0.00292447      -0.02445200       0.00393373
H        6.56771243       8.70530449       6.99259064       0.00050499      -0.01227286      -0.01287870
H        7.52875362       7.32704561       7.55734143      -0.00216431       0.00197211       0.02397202
H        7.34558634       8.76554592       8.56881045      -0.01380773       0.02241959      -0.00811663
H        9.63710490       9.05804606       8.62435416      -0.00771827       0.00535187       0.00192991
O        4.14133397       8.77634728       6.67494766      -0.01155058       0.01066011      -0.00347915
C        3.70442203       9.74837859       5.72590214      -0.00692770       0.00745904      -0.00751913
C        3.14658948       9.12394027       4.46636607       0.00618502       0.00363702      -0.01187861
H        2.93131206      10.32894014       6.23557912      -0.01306826       0.00506032      -0.01489213
H        4.53662325      10.42799120       5.48588462      -0.00742841       0.00963986      -0.00183515
H        2.63016454       9.87048629       3.86241503       0.01227078       0.00198545      -0.01851065
H        3.94215621       8.68823305       3.85955608       0.01256651       0.00308292      -0.00195960
H        2.42115114       8.35187304       4.71691568       0.00463220       0.00355482      -0.01745147
H        4.55492447       8.03745589       6.19241363       0.00484218       0.01911664      -0.00261128
O       10.98388376       6.30165853      -0.55703501       0.00509942      -0.02063656       0.00154728
C       10.35554417       6.22425062       0.73105989      -0.00282721      -0.00332871      -0.00097883
C        9.55484917       7.44409863       1.10840624       0.01021960       0.00799555      -0.01496854
H        9.71985366       5.33212223       0.76663308      -0.01349297       0.00410312       0.00170639
H       11.16478090       6.09688580       1.45100512      -0.00792554      -0.00877442       0.00374183
H        9.17510544       7.34060462       2.12432009       0.00154513       0.02040039      -0.01716322
H       10.18646449       8.33055802       1.10962284       0.02168556       0.00024997      -0.01679425
H        8.71311178       7.60982883       0.43037875       0.01760034       0.01449165      -0.02208345
H       10.31645422       6.57323031      -1.19582098       0.01380248      -0.01065854      -0.00242875
O       11.58828126       2.55858105       0.89061362       0.00052673      -0.00330639       0.00645502
C       10.36917341       1.87744994       1.29141659       0.00342176      -0.00741664       0.00832412
C        9.13942278       2.66922065       0.93364158       0.00085154      -0.02101222      -0.00970446
H       10.37936011       0.92097872       0.77840719       0.01358456      -0.01445478       0.02222855
H       10.40908565       1.66842869       2.36070880      -0.00074583       0.00734022       0.01143810
H        8.26319356       2.04428569       1.09907147       0.00448643      -0.02418733      -0.00467686
H        9.04379893       3.55546687       1.56303435      -0.00696317      -0.01212344      -0.02424945
H        9.17583060       2.98400596      -0.11077768       0.00396160      -0.03729486      -0.01439868
H       11.47859596       3.51713037       0.93214500      -0.01090048      -0.00391704      -0.01504553
O        5.62466108       2.11859278       5.04332965      -0.00627872       0.00376270       0.00186574
C        7.06192409       2.05421695       5.25329935      -0.00504147       0.00630280      -0.00415087
C        7.70544928       2.19992633       3.90598308      -0.00777449       0.00607873      -0.00546217
H        7.35073290       2.85800106       5.93460754      -0.00430543       0.00689593      -0.00565284
H        7.32043334       1.08722540       5.68733600      -0.00296306       0.00685513      -0.00485399
H        8.78670519       2.13886990       4.00955299      -0.00770186       0.00751677      -0.00523973
H        7.41358370       1.38197300       3.25082026      -0.00730224       0.00536731      -0.00449631
H        7.44666389       3.15064838       3.44647155      -0.00858112       0.00550973      -0.00586247
H        5.19068160       2.00796482       5.89290227      -0.00249593      -0.00806745       0.00180054
O        3.52596497      11.20518476       1.37359751      -0.00226205       0.01335531      -0.00034052
C        4.96555382      11.12828024       1.63361458      -0.00194043       0.00687739      -0.00547022
C        5.77032852      11.60656983       0.45263542      -0.00402716       0.01151638      -0.00430909
H        5.13484679      11.75081724       2.51255348       0.00305362       0.00025640      -0.00207630
H        5.21702664      10.10312848       1.90733048      -0.00600252       0.00468355      -0.01329013
H        6.82963162      11.58517203       0.71443776      -0.00305346      -0.00544474      -0.01190734
H        5.61514490      10.98253858      -0.42686043      -0.01841413       0.02519977      -0.01105243
H        5.49200475      12.63285761       0.19165581       0.00953785       0.01896036       0.01129549
H        3.25569485      10.37742485       0.96415883      -0.00705951       0.01634502      -0.00243634
O        3.36594505       2.76351381      10.85014298       0.01465356      -0.02079979      -0.01553376
C        3.19396996       2.45061219       9.44852117       0.00177786      -0.01312357      -0.01539907
C        2.82432316       3.68327078       8.65362059      -0.00398070      -0.00978792      -0.00572273
H        4.11530356       1.98694583       9.08742145      -0.00192356      -0.01230636      -0.02452450
H        2.40675847       1.69788054       9.39046345       0.00120711      -0.01183991      -0.01260309
H        2.70332031       3.42912791       7.59867938      -0.01827633      -0.00470021      -0.00492111
H        1.87955503       4.10442767       9.00216867       0.00295608      -0.00498821       0.00646383
H        3.59743352       4.45048543       8.72547763       0.00064154      -0.01670025      -0.01121100
H        4.28403118       3.14791474      10.95505077       0.01458573      -0.01980434      -0.01918317
O        3.88652899       2.39882378       3.04962291      -0.02557093       0.01960212       0.03224787
C        2.87920246       2.47981862       4.07947025      -0.02927381       0.01151526       0.02806616
C        2.55469073       1.11401113       4.64558649      -0.03458251       0.00820851       0.01617976
H        3.22970688       3.16856110       4.85023520      -0.03049062       0.00406960       0.03530961
H        1.99599073       2.95646579       3.63171891      -0.02629828       0.01588472       0.02786633
H        1.81322034       1.18399821       5.44170714      -0.03800888       0.00342412       0.01295707
H        2.15479955       0.42941125       3.88989685      -0.03423899       0.01520230       0.00996789
H        3.45528188       0.64625835       5.04317539      -0.03817052       0.00243358       0.01682369
H        4.72311888       2.24183970       3.54654913      -0.02549171       0.01806542       0.03419295
O        5.11381024       6.66004229       5.07922786       0.02599263       0.01233041       0.02357800
C        6.08451267       6.87930226       4.03658256       0.01721366       0.01485705       0.01528839
C        6.60889639       5.57130209       3.49600479       0.01350760       0.01686299       0.00925422
H        5.65610961       7.49233972       3.23748332       0.00815994       0.01439595       0.02032977
H        6.88410384       7.46313683       4.48968927       0.01909184       0.01579934       0.00860202
H        7.45004102       5.74708494       2.82321083       0.00110430       0.01943949      -0.00495796
H        6.95314385       4.94347223       4.31722030       0.03054731       0.01904099       0.00351274
H        5.84181322       5.01500970       2.95110732       0.00670983       0.01337676       0.02262117
H        4.30447464       6.32081455       4.68203539       0.02953681      -0.00485769       0.03189749
O        9.95907398      -0.01451892       8.10326351       0.01201969      -0.01542372      -0.00726119
C       10.11068011       1.33363707       7.66135871       0.00486082      -0.01617461      -0.01191586
C       11.17334525       2.03734789       8.48220931       0.00170603      -0.01058316      -0.01303285
H       10.36267058       1.34311483       6.59959767       0.00513691      -0.01873488      -0.01174742
H        9.14967798       1.84639396       7.77227037       0.00303990      -0.01969410      -0.01371831
H       11.28763230       3.07451714       8.16193678      -0.00546516      -0.00941004      -0.01083335
H       10.90608892       2.03456156       9.54172749       0.00307012      -0.01481383      -0.01277852
H       12.13135914       1.52743252       8.36975450       0.00462781      -0.00441694      -0.01536204
H       10.18826451      -0.63233571       7.39788669      -0.00000145      -0.01769623      -0.00807500
O        5.79634386       3.67979014      11.07175099       0.00965661      -0.00564694      -0.00825609
C        6.18258743       4.68539995      10.09841847       0.00663987      -0.00230552      -0.00584951
C        7.57370578       5.20211991      10.35379090       0.00055182       0.00939952       0.00268322
H        6.10276308       4.27614231       9.08781006       0.01615997      -0.00313525      -0.00609991
H        5.44318840       5.47671115      10.21167006      -0.00061876      -0.00861503      -0.01001713
H        7.78853082       6.01955639       9.66494610       0.00025239       0.00748391       0.00054421
H        7.67306724       5.55556150      11.38047096      -0.00982877       0.01528725       0.00151059
H        8.31618386       4.42291127      10.16859119       0.00790354       0.01396266       0.01307893
H        6.48115508       3.00227822      11.09702902       0.01738840       0.00276273      -0.00154051
O        7.85281839       4.88413274       7.14725843       0.00518960       0.00562944      -0.00213036
C        9.26355520       5.15881873       7.03664407       0.00581902       0.00225362      -0.00163162
C        9.89881634       4.45586212       5.85792569       0.00515053      -0.00455388       0.00208849
H        9.44793089       6.23383411       6.97814249       0.00816495       0.00087684      -0.00565813
H        9.68983469       4.80174685       7.97695783       0.00420903       0.00467652       0.00000089
H       10.96310524       4.69513131       5.82549850       0.00636189      -0.00844324       0.00338311
H        9.76292153       3.37720564       5.92522155       0.00171275      -0.00388971       0.00606593
H        9.46831759       4.81749552       4.92458482       0.00914401      -0.00656269      -0.00006421
H        7.40447124       5.36738965       6.44556003       0.00488421       0.01396455       0.00407636
O        1.84838743       4.38624729       0.72730601       0.01943779      -0.00404802      -0.02258003
C        1.98669743       5.79667664       1.05935780       0.00672057      -0.01170450       0.00729241
C        3.44567264       6.16593125       1.15356939       0.00242752      -0.00181016       0.01708632
H        1.46063369       6.37229750       0.29528956       0.00224237      -0.00108445       0.01946473
H        1.47375695       5.94880841       2.00542179       0.00395766      -0.03718611       0.00893676
H        3.55541034       7.24152254       1.30386051      -0.00643789      -0.00477009       0.03899178
H        3.92620050       5.64724004       1.98352047       0.00554369      -0.01445044       0.00649141
H        3.97739506       5.89623398       0.23741930       0.00545494       0.02128433       0.01272418
H        2.18337040       4.28014239      -0.17451606       0.02812383       0.00912341      -0.02030712
O        4.22151507      10.26952539       9.01666054      -0.00702232      -0.00277519      -0.00106841
C        3.89468042       9.23918805       9.92956567      -0.00751032       0.00220335       0.00359857
C        5.06807518       8.31391319      10.19588450      -0.00924373       0.00121674       0.00646709
H        3.58551642       9.73900756      10.85457136      -0.00518054       0.00653413       0.00208434
H        3.03247378       8.66271368       9.56977832      -0.00932020       0.00223795       0.00804260
H        4.82725149       7.59617981      10.98112057      -0.01099196       0.00339402       0.00789616
H        5.32091813       7.76469850       9.28761186      -0.00905576      -0.00141472       0.00812422
H        5.94918624       8.88092497      10.50059513      -0.00888781       0.00048809       0.00614597
H        4.37437645       9.81428549       8.16774242      -0.01382974      -0.00504325      -0.00137313
