145
Lattice="12.390651637233201 0.0 0.0 0.0 12.390651637233201 0.0 0.0 0.0 12.390651637233201" Properties=species:S:1:pos:R:3:forces:R:3 energy=-354165.40625 stress="-0.0006728756707161665 0.0006428282067645341 1.79219268829911e-05 0.0006428282067645341 -7.900182390585542e-05 0.00015720564260846004 1.79219268829911e-05 0.00015720564260846004 1.4722917512699496e-05" pbc="T T T"
Ba      11.40189204      12.30190970       1.43595087       0.00114575      -0.00993313      -0.01135650
O        5.02322141       4.55089616       1.34728738      -0.02499294      -0.00604099       0.00989747
O        7.16764697       4.76192369       3.06551327      -0.00980371       0.02632523      -0.00355512
O        7.41592037       3.88353419       0.47951965      -0.02500224       0.00782481       0.01504278
O        6.19414351       2.34234822       2.23300256       0.01065856       0.01320362       0.01982450
Cr       6.41202190       3.86952899       1.73993833       0.02005804      -0.01496422       0.00961626
Cr       8.56930246       5.48334463       3.87835118      -0.01161039       0.00792715      -0.00105667
O        8.73111576       4.79754468       5.31826036      -0.03233093       0.01571172       0.00809169
O        9.89630741       5.23857715       2.99433831      -0.00080848      -0.01120815       0.01330411
O        8.29967617       7.06720820       4.03830396       0.01310122       0.01980758      -0.00891039
O        3.27079294       3.15162980       5.34627252       0.00031226       0.00057238      -0.01097226
C        2.37598979       2.57350913       4.42615982       0.00538826      -0.00192530      -0.01269703
C        4.46647547       2.38704301       5.46164395       0.00148290       0.00203285      -0.00958672
C        1.13673438       3.43286720       4.33332743       0.00892618      -0.00060236      -0.01543445
C        5.36264967       3.03455361       6.48471764       0.00173834       0.00464469      -0.01215616
H        2.86206256       2.47502743       3.44315100       0.00658086      -0.00085315      -0.01233327
H        2.11508694       1.55763464       4.77350639       0.00158925       0.00022954      -0.01130390
H        4.19999580       1.36220859       5.77602145       0.00170697       0.00271243      -0.00830159
H        4.95679694       2.31840255       4.48118440       0.00029996       0.00150873      -0.01006871
H        0.39084597       2.98249204       3.67293479       0.00354799       0.00453207      -0.01179778
H        0.67550308       3.56053722       5.31309555       0.01664615       0.00655949      -0.01321164
H        1.38270929       4.41602854       3.93440540       0.00637296      -0.00151163      -0.01453703
H        6.24136666       2.41162897       6.65952635       0.00195207       0.00505687      -0.01217123
H        5.71313330       4.00737073       6.14292101       0.00180046       0.00370166      -0.01545838
H        4.84003554       3.17604677       7.43049989       0.00303751       0.00772056      -0.01219052
O        9.50661523      11.06054241       9.78486105       0.00080719       0.01706084       0.00724939
C        9.93922787      10.46827464      10.97920858      -0.00446099       0.00760055       0.00455745
C        8.12591464      11.41022580       9.82848115      -0.00133234       0.00949946       0.00022656
C       11.41248278      10.15408650      10.86647615      -0.00208050       0.01537742       0.01221095
C        7.73984939      12.02321286       8.50691268       0.00400825       0.01456974       0.00102627
H        9.73257727      11.17442043      11.82046287      -0.01628579      -0.00322597       0.01024589
H        9.36758848       9.56266649      11.21819613      -0.00031024       0.00231689      -0.00840887
H        7.52802150      10.51275720      10.04632299       0.00195545       0.00537020      -0.00915425
H        7.95992591      12.12519491      10.64855309      -0.01054900       0.00399336       0.00281820
H       11.80242992       9.73363090      11.79761241      -0.00717107       0.00954950       0.01175632
H       11.56580515       9.40644909      10.08765256       0.00631167       0.02121313       0.00868738
H       11.98852872      11.03917316      10.58277338      -0.00187803       0.01776469       0.01942067
H        6.71206470      12.38350180       8.54668892       0.00178130       0.00835539      -0.00380038
H        8.39020189      12.86649185       8.27591155       0.00010881       0.01981893       0.00986977
H        7.81938228      11.29190026       7.70180630       0.01355215       0.01963931      -0.00211506
O        5.03669426       5.12115749       9.20895536      -0.00546008      -0.00565040       0.00372410
C        6.04599365       4.86145189      10.17850357      -0.00356430      -0.00228351       0.00208697
C        3.97367421       5.89100561       9.73028996      -0.00379634      -0.00338849       0.00191110
C        7.01401742       3.85491804       9.60646273      -0.00473273      -0.00437215       0.00475201
C        2.95004927       6.09020471       8.63819259      -0.00436559      -0.00468316       0.00253695
H        6.56311218       5.79966261      10.42748689      -0.00306419      -0.00170738      -0.00191047
H        5.59929551       4.49138463      11.10848018      -0.00207567       0.00078773       0.00462049
H        3.53627217       5.38081779      10.60058356      -0.00463173      -0.00153181       0.00368243
H        4.35199020       6.86096541      10.09386204      -0.00299552      -0.00340539       0.00021388
H        7.79849055       3.66241816      10.33776130      -0.00490430      -0.00359700       0.00456531
H        6.50033136       2.91645849       9.39437333      -0.00607455      -0.00446424       0.00689694
H        7.45821989       4.21723252       8.67785348      -0.00504421      -0.00675547       0.00357956
H        2.10361699       6.66960479       9.00852368      -0.00414401      -0.00438651       0.00169162
H        3.38386658       6.62855218       7.79594591      -0.00409390      -0.00562736       0.00172466
H        2.58775610       5.12696673       8.27817123      -0.00428410      -0.00500210       0.00347879
O        3.43142890       9.63309000       7.68608207       0.00120671       0.00409847       0.00272613
C        4.81356436       9.93874688       7.67633044       0.00160140       0.00236180       0.00459875
C        2.63198285      10.77373544       7.93169152       0.00230283       0.00452483       0.00483613
C        5.60488685       8.66324436       7.54440208      -0.00028959       0.00149840       0.00264222
C        1.18752081      10.34182362       7.96138461       0.00201243       0.00557290       0.00382330
H        5.03287646      10.62819572       6.84551150       0.00335394       0.00366539       0.00622359
H        5.07555912      10.46320443       8.60752296       0.00146884       0.00007480       0.00590122
H        2.92937301      11.23029038       8.88858821       0.00257035       0.00216633       0.00581962
H        2.80603963      11.52981280       7.14937223       0.00307502       0.00596496       0.00644511
H        6.67005063       8.88588099       7.51435811       0.00012890      -0.00029120       0.00426923
H        5.41619129       7.99537214       8.38458513      -0.00257539      -0.00004266       0.00090472
H        5.34834846       8.13330616       6.62733715      -0.00031310       0.00373997       0.00136618
H        0.53382181      11.18527006       8.18864518       0.00263686       0.00596161       0.00457481
H        0.89112915       9.92274653       7.00087175       0.00205828       0.00657460       0.00342569
H        1.04674845       9.57429410       8.72177568       0.00118317       0.00475387       0.00289421
O        0.93996680       9.28423116       4.77766740      -0.00276169      -0.00888577       0.00541227
C        1.70109915      10.29112929       4.17057244      -0.00216782      -0.01053399       0.00333975
C        1.69739253       8.08172329       4.97850679      -0.00426391      -0.00945696       0.00530919
C        0.74901672      11.44053860       3.89691063       0.00130452      -0.00682124       0.00765979
C        0.79433364       7.03475966       5.57444704      -0.00413007      -0.00831050       0.00708461
H        2.53215774      10.61735952       4.81318871       0.00144780      -0.01443267       0.00082433
H        2.14126852       9.91790049       3.23612055      -0.00622790      -0.01170450       0.00170574
H        2.10420426       7.76904466       4.01052777      -0.00570929      -0.01102738       0.00494778
H        2.53842985       8.30877649       5.64551654      -0.00269717      -0.00998172       0.00370935
H        1.19598747      12.16097251       3.20104468       0.00137354      -0.00829506       0.00611199
H       -0.16852450      10.98253212       3.50567743      -0.00326172      -0.00110774       0.01196688
H        0.47077344      11.97458570       4.80573333       0.00835530      -0.00585423       0.00921676
H        1.37759580       6.14311881       5.80536768      -0.00461665      -0.00897360       0.00629929
H        0.32992445       7.39091376       6.49435840      -0.00217094      -0.00725934       0.00778779
H       -0.00149078       6.75441605       4.88366977      -0.00555696      -0.00810460       0.00890149
O       10.02767287       7.64322552       7.44227877       0.00324500       0.00410898       0.00846991
C        9.21212762       7.03627557       8.42689186       0.00310293      -0.00538284       0.00199610
C        9.28798990       8.57261971       6.67235013       0.00040042       0.00087222       0.00721991
C       10.01015890       5.97532168       9.14059744       0.00762621      -0.00110447       0.00275901
C       10.16138532       9.11110200       5.57104669       0.00192493       0.01158111       0.01442060
H        8.86091794       7.80538392       9.13677989      -0.00631900      -0.01044247       0.00299779
H        8.32338792       6.59806288       7.95073459       0.00877118      -0.01023948      -0.00399852
H        8.41353250       8.07584138       6.23503118       0.00664276      -0.00385246       0.00101921
H        8.94594748       9.38790332       7.32922544      -0.00950001      -0.00401902       0.00826654
H        9.43337593       5.56659581       9.97029279       0.00801978      -0.00711241      -0.00014615
H       10.25914622       5.16708217       8.45277334       0.01699548       0.00264636       0.00200011
H       10.93663288       6.39578247       9.53475800       0.00280645       0.00440207       0.00785977
H        9.60557778       9.86592939       5.00846939      -0.00133527       0.00627825       0.01091101
H       11.07318166       9.55656217       5.96587925      -0.00589302       0.02081469       0.02181974
H       10.42913909       8.30415462       4.89099466       0.01655160       0.01619761       0.01564327
O        4.13028112       8.12107697       2.50524192      -0.00055608       0.00467852       0.00305600
C        4.46627727       9.37524616       1.96372993       0.00089294       0.00343993       0.00005251
C        4.97282705       7.76530085       3.60526447       0.00374522       0.00546461       0.00024065
C        3.61362987       9.62126541       0.73924348       0.00109428      -0.00053467      -0.00129515
C        4.61524539       6.38724304       4.09949382       0.00316612       0.00637925       0.00414239
H        4.31517427      10.17045842       2.71323492      -0.00042257       0.00521570      -0.00254124
H        5.53135387       9.40388492       1.69541389       0.00082970       0.00222560       0.00045456
H        6.02188365       7.78044890       3.28796193       0.00151306       0.00239686      -0.00483692
H        4.85661021       8.52292879       4.39760052       0.00893746       0.00680891      -0.00100952
H        3.83627222      10.59881191       0.30856390      -0.00055898       0.00008450      -0.00274709
H        3.80057439       8.85654277      -0.01449299       0.00222465      -0.00147851      -0.00047049
H        2.55144806       9.58070367       0.99343393       0.00193529      -0.00445531      -0.00054557
H        5.35329914       6.06851690       4.83554769       0.00836582       0.00546663      -0.00129968
H        3.63027931       6.34648357       4.56119535       0.00700998       0.00948547       0.01214479
H        4.64288692       5.67806840       3.27347949      -0.00522222       0.00600049       0.00616118
O        9.49098375       8.15621212       0.98589426      -0.00086855      -0.00317109      -0.01041818
C       10.36085482       8.87200921       1.79831723      -0.00524783      -0.01919425       0.00898255
C        8.10967816       8.47423927       1.17771514      -0.00117418      -0.00500953      -0.00892878
C       11.69463208       8.16660832       1.86182382      -0.00524452      -0.01837090       0.00383471
C        7.31198213       7.32282834       0.63174062      -0.00172114       0.00297362      -0.02417140
H       10.48393590       9.90000677       1.35412621      -0.00407086      -0.00979687       0.03181855
H        9.94280282       9.01406033       2.80134791      -0.01165995      -0.03889623       0.00771928
H        7.92317651       8.60098807       2.24952269      -0.00341807      -0.01819706      -0.00877923
H        7.87493226       9.42297788       0.66472183      -0.00022383       0.00048542       0.00192162
H       12.42656393       8.74686263       2.42883240      -0.01129007      -0.03011601       0.02252884
H       11.55486042       7.20964881       2.36481219      -0.00798885      -0.02810660      -0.01715890
H       12.07886226       7.97409157       0.85915153       0.00446413       0.00125189       0.00455926
H        6.23930131       7.49393572       0.72216899      -0.00152226      -0.00021882      -0.01497113
H        7.55745021       7.14397920      -0.41523779      -0.00876115       0.02192654      -0.02787684
H        7.55479282       6.42202040       1.18990436       0.00189541      -0.00578323      -0.04136305
O        9.67391295       1.22583732       2.73799972       0.00061387      -0.01954092      -0.01884791
C        9.23483389       1.74014384       1.46657603       0.00079647      -0.00476544      -0.01465956
C        8.62263036       0.81862163       3.67345515       0.00236657      -0.00449404      -0.01028883
C       10.19483369       2.80583843       0.98969650      -0.00222172      -0.00175086      -0.00402790
C        8.93021514       1.37591988       5.03712783       0.01447630      -0.00353214      -0.01499888
H        9.11747334       0.89821142       0.74150653       0.00169760       0.00342721      -0.02326949
H        8.22456240       2.13022599       1.55292159      -0.00088409      -0.00495587      -0.01000268
H        7.67598359       1.19781124       3.28475275       0.00412014       0.00300975      -0.00669047
H        8.59038260      -0.27770788       3.67701375      -0.00819044      -0.00342810      -0.00588080
H        9.99596921       3.04746829      -0.05273911      -0.02499988       0.03110293       0.01077828
H       10.06995373       3.70702176       1.59676920       0.02390369      -0.01772895       0.02098286
H       11.26050483       2.52823515       1.08026175      -0.00352439      -0.00910254      -0.04613952
H        8.17432621       1.01581937       5.73725817       0.01521723       0.00495915      -0.01076338
H        9.90502455       1.04035978       5.39765022       0.01226319      -0.01059234      -0.01740341
H        8.90404337       2.46729099       5.03609715       0.02284215      -0.00405481      -0.01678050
