147
Lattice="13.123049095881685 0.0 0.0 0.0 13.123049095881685 0.0 0.0 0.0 13.123049095881685" Properties=species:S:1:pos:R:3:forces:R:3 energy=-469492.09375 stress="-0.002237041713669896 -0.0004110937297809869 -0.000534387567313388 -0.0004110937297809869 -0.0023420900106430054 -0.0001127114737755619 -0.000534387567313388 -0.0001127114737755619 -0.0035835271701216698" pbc="T T T"
Be      14.45823515      14.02468436       2.16787283       0.00491989       0.04547101      -0.01913996
I        2.61703974      13.60360594       4.00720876       0.01483155       0.04066611      -0.02222130
I        2.00794046      13.93302660       0.01397571       0.01766258       0.03940453      -0.01937978
C        8.15737851      11.52383000       9.37947667       0.00331233       0.01778125      -0.00999789
C        7.89908505      12.14483523       8.16209333       0.00106601       0.01587566      -0.00880331
C        7.22178203      11.59209712      10.40488406       0.00572519       0.01228742      -0.00972855
C        6.71032849      12.84143092       7.97264680      -0.00351801       0.01132715      -0.00793543
C        6.03584967      12.29242380      10.21871690       0.00092158       0.00732054      -0.00903232
C        5.77956919      12.91685650       9.00472090      -0.00135697       0.00520471      -0.00792060
H        9.08811686      10.99351346       9.53532695       0.00697549       0.02199133      -0.01128623
H        8.62799060      12.09283948       7.36280202      -0.00056218       0.01845375      -0.00946570
H        7.40063774      11.09250387      11.34866866       0.00865658       0.01465204      -0.00960408
H        6.51955246      13.33496295       7.02839788      -0.00551820       0.01042318      -0.00727458
H        5.31446117      12.34510705      11.02555969       0.00246949       0.00384863      -0.00835599
H        4.85968274      13.47105519       8.86313732      -0.00522272       0.00069300      -0.00754858
C       10.19423802       9.52168680      11.74540712       0.01571518       0.00677776       0.00221809
C       10.32440068      10.88762903      11.97259735       0.01983500       0.00801147      -0.00152006
C       11.31140056       8.76212650      11.42424552       0.01055326       0.00278139       0.00308241
C       11.56983587      11.49384681      11.87052233       0.02283594       0.00128458      -0.00623580
C       12.55800207       9.36778158      11.32544457       0.01308365      -0.00380880      -0.00231720
C       12.68801306      10.73386793      11.54760464       0.01700585      -0.00271052      -0.00665876
H        9.21848657       9.05383156      11.80432848       0.01360731       0.01153850       0.00567759
H        9.45426685      11.47864336      12.22421665       0.02311039       0.01078536      -0.00172771
H       11.20989256       7.70321856      11.22654209       0.00709299       0.00189619       0.00692970
H       11.67383783      12.55904535      12.03654352       0.02800855       0.00161566      -0.00831618
H       13.42192873       8.77083472      11.06329726       0.01007994      -0.00657112      -0.00134649
H       13.65343145      11.21874776      11.47502795       0.01898575      -0.00723196      -0.00974883
C       11.51127173       6.32810708       8.12872681       0.01041596       0.00945412       0.00172363
C       11.53094943       7.60651202       7.58675618       0.00464320       0.00985187       0.00005973
C       10.44905543       5.93046353       8.93050424       0.01237733       0.00976369       0.00504460
C       10.50119875       8.49866084       7.86701351       0.00487428       0.00555736       0.00035738
C        9.41200808       6.81485148       9.19242184       0.01289181       0.00574965       0.00584170
C        9.44060106       8.10098687       8.66876549       0.00699112       0.00610666       0.00382507
H       12.30133932       5.62466673       7.89555266       0.01149195       0.01283779       0.00217125
H       12.33801370       7.89945903       6.92906669       0.00424820       0.01052909      -0.00077976
H       10.40786940       4.91929129       9.31429218       0.01738416       0.00992113       0.00805116
H       10.51942952       9.49673478       7.44561257       0.00074707       0.00590292      -0.00065462
H        8.56726057       6.48730196       9.78289950       0.01501727       0.00651312       0.00990301
H        8.62553580       8.78533961       8.86999656       0.00760011       0.00383511       0.00587442
C        2.81236682       9.44091798       3.68968147      -0.03472354       0.01561439      -0.00456405
C        1.71585267       8.61886025       3.91541800      -0.02975442       0.01028055      -0.00809205
C        3.70322725       9.14815477       2.66749431      -0.02727771       0.01704129      -0.00022466
C        1.49069900       7.52213951       3.09127047      -0.01987077       0.00624597      -0.00390594
C        3.48404221       8.04804639       1.85156152      -0.01729982       0.01274388       0.00432490
C        2.36926377       7.24341556       2.05066362      -0.01193313       0.00703976       0.00151853
H        2.98315656      10.30200923       4.31891171      -0.04265285       0.01936392      -0.00806005
H        1.05121509       8.82773521       4.74364563      -0.03651130       0.00986480      -0.01279721
H        4.58035506       9.76345342       2.51870090      -0.03185897       0.02284324       0.00069667
H        0.63731540       6.87871982       3.26947636      -0.01701356       0.00275106      -0.00717063
H        4.20576908       7.79807611       1.08604951      -0.01295659       0.01546337       0.00669906
H        2.20500188       6.37785818       1.41929803      -0.00429044       0.00381241       0.00469972
C       12.31675354       3.47534797       2.11761210       0.01482726      -0.01027498      -0.00398356
C       11.42610484       3.15701771       1.09990036       0.02088200      -0.01449418      -0.00752449
C       12.84254693       2.47029465       2.92520907       0.00865644      -0.00993194       0.00226964
C       11.07611620       1.82916947       0.85927573       0.01875954      -0.01357782      -0.00277805
C       12.51463437       1.12130196       2.66941770       0.00520784      -0.00934109       0.00689951
C       11.61270311       0.81731019       1.63156335       0.01036473      -0.01275852       0.00437957
H       12.56887987       4.50947335       2.31461135       0.02734536      -0.01193419      -0.01392847
H       10.97143188       3.94601935       0.51254192       0.03218579      -0.01747219      -0.01966421
H       13.47053980       2.72379901       3.77093882       0.00525657      -0.00938511       0.00405040
H       10.34979080       1.59684582       0.09147097       0.02530816      -0.01674755      -0.00745946
H       12.73577674       0.35997557       3.41343023       0.00755300      -0.00806810       0.00663787
H       11.33805517      -0.21328898       1.44681188       0.00984618      -0.01280259       0.00809208
C        6.54404886       2.19652675       3.90891342       0.00013961      -0.01521312       0.01085805
C        6.88777244       0.91409818       4.31916560      -0.00611433      -0.01446900       0.01820549
C        7.53931812       3.10950533       3.58282193       0.00445520      -0.02323021       0.00281434
C        8.22695381       0.55120195       4.41908262      -0.00872016      -0.02107358       0.01786120
C        8.87335335       2.73459252       3.64469100       0.00196053      -0.02946755       0.00409042
C        9.22003408       1.46026403       4.07554624      -0.00413062      -0.02876459       0.01132797
H        5.50185062       2.48313730       3.84448506       0.00220130      -0.00980557       0.01128925
H        6.10936454       0.19418458       4.53949228      -0.00958302      -0.00806161       0.02539319
H        7.27804446       4.11779098       3.30003914       0.00854254      -0.02414562      -0.00523741
H        8.49465352      -0.45047399       4.73201330      -0.01295206      -0.01991744       0.02446713
H        9.64170908       3.45204797       3.38786685       0.00587077      -0.03591226      -0.00159728
H       10.26290804       1.18298759       4.14916177      -0.00607514      -0.03382690       0.01164707
C        6.23848586      12.02014757       0.91494568      -0.00789824       0.01035200      -0.01332582
C        5.88152867      10.74376193       0.49427421      -0.00703266       0.00991783      -0.01184343
C        7.50001152      12.24625783       1.45694553      -0.01228533       0.01292555      -0.00855612
C        6.78333103       9.69149081       0.62025573      -0.00600237       0.01055844      -0.00520789
C        8.39221037      11.19032305       1.60259232      -0.01101203       0.01441298      -0.00262953
C        8.03496266       9.91523049       1.18187167      -0.00935467       0.01359008      -0.00158233
H        5.53143275      12.83701858       0.83280592      -0.00924361       0.00855115      -0.01885545
H        4.90026411      10.56401747       0.07152513      -0.00588286       0.01441594      -0.01442883
H        7.78142375      13.23944238       1.77920518      -0.01500790       0.01345073      -0.00821693
H        6.50399157       8.69970618       0.28663327      -0.00227397       0.00870341      -0.00290002
H        9.37241861      11.36019486       2.03159497      -0.01447667       0.01685993       0.00226822
H        8.74702757       9.10403424       1.26890665      -0.00809057       0.01491228       0.00464548
C        6.70368922       5.90613796       1.54310388      -0.00946136      -0.00995893      -0.00310759
C        5.60773643       5.05542671       1.65173637      -0.00792533      -0.01190626      -0.00255392
C        6.96398649       6.83188067       2.54461725      -0.01074035      -0.00899433      -0.00562802
C        4.79004663       5.11924481       2.77379179      -0.00860472      -0.00978363      -0.00292770
C        6.12291542       6.91862111       3.64442217      -0.00856071      -0.01013155      -0.00360946
C        5.04658831       6.05242365       3.77067908      -0.00805536      -0.01090380      -0.00390385
H        7.36613207       5.82681639       0.69149946      -0.01087693      -0.00865572      -0.00441977
H        5.41891470       4.32053663       0.88003792      -0.00696351      -0.01274846      -0.00106981
H        7.81878507       7.48971815       2.47307586      -0.01360065      -0.00532247      -0.00827725
H        3.94579667       4.44786146       2.86799881      -0.01009989      -0.00772793      -0.00360059
H        6.30836149       7.67172711       4.39654714      -0.00810532      -0.01102292      -0.00391708
H        4.38806841       6.12964963       4.62648316      -0.00667075      -0.01234266      -0.00261220
C        6.27965194       2.55112569      11.33699935       0.01131338      -0.00757203      -0.00598530
C        7.54502810       1.98024187      11.26173053       0.01605534       0.00155726       0.00129252
C        6.14649829       3.93189834      11.40361441       0.00167431      -0.00859280      -0.01094735
C        8.67483575       2.78839145      11.26707786       0.00901198       0.00948932       0.00351676
C        7.27848399       4.73847684      11.42901990      -0.00540631      -0.00073180      -0.00813374
C        8.54414006       4.16738705      11.37174873      -0.00075872       0.00855932      -0.00117092
H        5.39735571       1.92275465      11.33768712       0.01643690      -0.01338391      -0.00765423
H        7.64637740       0.90732569      11.18682446       0.02342907       0.00212914       0.00540787
H        5.15947348       4.37549088      11.43975632      -0.00199825      -0.01628584      -0.01708417
H        9.65689305       2.33980489      11.17892592       0.01305245       0.01721899       0.00887192
H        7.17565526       5.81391911      11.50161433      -0.01314031      -0.00158998      -0.01105947
H        9.42447027       4.79724137      11.39879532      -0.00601926       0.01465223       0.00096253
C        7.14129163       5.32354513       7.11615973      -0.00240676      -0.00901182       0.02043952
C        7.89143364       4.15251489       7.08855391      -0.00212282      -0.00828554       0.02175270
C        7.61058342       6.45863186       6.47129914      -0.00585918      -0.01157849       0.01299708
C        9.10546115       4.12723970       6.41629270      -0.00581346      -0.01084714       0.01632789
C        8.80849999       6.42408562       5.76905913      -0.00868082      -0.01385087       0.00977189
C        9.55782125       5.25830955       5.74603206      -0.00826669      -0.01295474       0.01103863
H        6.20102616       5.35500301       7.65327583       0.00072756      -0.00662485       0.02499910
H        7.53187283       3.26355947       7.59145727       0.00071170      -0.00601476       0.02773716
H        7.05258393       7.38357640       6.53149503      -0.00707519      -0.01257841       0.01047456
H        9.69136807       3.21824456       6.39701008      -0.00483917      -0.00967033       0.01633646
H        9.16550868       7.31148644       5.26097286      -0.01064178      -0.01577632       0.00527582
H       10.50156762       5.23247178       5.21376861      -0.01034382      -0.01542256       0.00849735
C        5.16501837       9.17894693       9.78710177       0.00285026      -0.01082526       0.00650574
C        5.52949668       7.98377867      10.39077193      -0.00703980      -0.01424840      -0.00096082
C        3.98198030       9.80792884      10.15148105       0.00538962      -0.00465767       0.00691096
C        4.69422377       7.40240269      11.33920291      -0.01160891      -0.01682742      -0.00641409
C        3.14618981       9.22664049      11.09215458       0.00221491      -0.00602896       0.00332005
C        3.49169365       8.01321832      11.67236667      -0.00831932      -0.00927114      -0.00489680
H        5.80365871       9.62899923       9.03933915       0.00701356      -0.00903773       0.01067221
H        6.46230054       7.50743314      10.11332947      -0.00895818      -0.01900331      -0.00178216
H        3.70833657      10.74746081       9.69271480       0.01190964      -0.00257064       0.01126191
H        4.98124115       6.48314918      11.83270142      -0.01930667      -0.02040781      -0.01267881
H        2.22827900       9.72001434      11.37931891       0.00586551       0.00103171       0.00456183
H        2.83093849       7.55916828      12.39686547      -0.01168966      -0.01177979      -0.00823776
C        2.39613699       9.92891099       7.31912702       0.00480278       0.00957169      -0.00032502
C        3.65659809       9.64758994       6.80926521       0.00101716       0.00419074      -0.00731327
C        1.58385363       8.89575348       7.76966072       0.00554101       0.01411842       0.00882969
C        4.09351452       8.33218424       6.72794584      -0.00321849       0.00319058      -0.00328696
C        2.02290824       7.57868832       7.68997595       0.00179584       0.01325672       0.01365002
C        3.27725668       7.29597561       7.16269655      -0.00189728       0.00766921       0.00765071
H        2.05066651      10.95370897       7.37989855       0.00766788       0.01023360      -0.00202563
H        4.30197667      10.45447031       6.48437123       0.00061688       0.00023803      -0.01590078
H        0.61346496       9.11591988       8.19550330       0.00822744       0.01845463       0.01286073
H        5.07260754       8.11355874       6.32326776      -0.00654177      -0.00133029      -0.00884062
H        1.38853160       6.77421155       8.04061744       0.00284071       0.01691728       0.02225333
H        3.61857649       6.26988090       7.09488861      -0.00459087       0.00694942       0.01178629
