146
Lattice="12.199336586587084 0.0 0.0 0.0 12.199336586587084 0.0 0.0 0.0 12.199336586587084" Properties=species:S:1:pos:R:3:forces:R:3 energy=-250420.40625 stress="0.0009550130926072598 -0.0005693587299901992 -6.70421686663758e-05 -0.0005693587299901992 -0.0005020645912736654 -0.00018546690262155607 -6.70421686663758e-05 -0.00018546690262155607 -0.0009725645650178194" pbc="T T T"
Be      12.68059797      10.44249707      -0.27462403       0.01276127      -0.00306156       0.00976932
O       10.11619473      10.13793587       2.03517699       0.02733636       0.01773874       0.03730698
O       12.54347588      10.53606008       3.40583683       0.04658401       0.00734580       0.00709683
O       12.21255888      11.65056625       0.55326671       0.02298788       0.00060910       0.00988811
O       12.60591783       9.21900566       0.67522350       0.00908132      -0.00165939       0.01224422
Mo      11.80521182      10.39114586       1.86478688       0.02692233       0.00668548       0.01664323
O        4.96706942       9.05220817       8.91779688      -0.01416384       0.00424093       0.00292851
O        5.40929046      11.06285623       9.76293852      -0.02147526       0.00594345       0.00229903
O        3.44222659      10.04786867      10.23924723      -0.02359045       0.00507620      -0.00854766
C        6.34103440       9.31623945       8.56966959      -0.01143412       0.00360072       0.01295822
C        6.45193931      10.81449729       8.79077342      -0.01279220       0.00398600       0.01198761
C        4.50514834      10.05749752       9.69671028      -0.01942098       0.00531986      -0.00194883
H        6.50271376       8.99955718       7.54149633      -0.00368523       0.00277220       0.01445654
H        6.98323026       8.74874292       9.24467143      -0.01705648       0.00347137       0.01828465
H        7.40372282      11.13995544       9.20607001      -0.01647681       0.00385639       0.02025774
H        6.21530466      11.38995896       7.89492561      -0.00385992       0.00322357       0.00928658
O        4.22065129       1.95772308       9.67317513      -0.01780403       0.00771546      -0.01202989
O        5.01448021       1.32934644       7.69285880      -0.01214275       0.00241156      -0.00799830
O        2.97227716       0.63146680       8.34907612      -0.01716614       0.00989896      -0.01537681
C        5.58569627       2.42519353       9.65718824      -0.01568110       0.00200997      -0.00729096
C        5.96155793       2.29701923       8.18784527      -0.01206174       0.00149551      -0.00614446
C        3.97373661       1.24680674       8.55865234      -0.01600766       0.00697204      -0.01215173
H        6.18078497       1.77967418      10.30024196      -0.02041790      -0.00107962      -0.00584966
H        5.59477623       3.44218927      10.04288714      -0.01245525       0.00179207      -0.00667439
H        5.83995387       3.22085687       7.62117988      -0.00995928       0.00165486      -0.00629523
H        6.96352613       1.89732362       8.05011753      -0.01217526       0.00060885      -0.00384119
O       10.29274876       9.13641624       9.78574142       0.01607847       0.00980975      -0.00145900
O       12.25307689      10.02250822      10.39212257       0.01869377      -0.00174725       0.01024286
O       10.43846460      11.37097224      10.04309537       0.03041834       0.00533488       0.00645527
C       11.16286596       8.00712796      10.11272551       0.00856998       0.00576681       0.00070959
C       12.53986641       8.61492864      10.02339712       0.01336247      -0.00196737       0.00965607
C       10.88535297      10.28006058      10.05759091       0.02119812       0.01588917       0.00550936
H       10.98912831       7.22677585       9.38250029       0.00729309       0.00976360      -0.00213119
H       10.90698005       7.66522598      11.11443209       0.00083335       0.00531118      -0.00162894
H       13.26164405       8.21702550      10.72433268       0.00569756      -0.00792598       0.01291355
H       12.94422949       8.64415461       9.01767267       0.01874490      -0.00210625       0.01227766
O        8.50811148       7.28014776       6.27077016       0.01010624      -0.00565825       0.00290139
O        9.83054154       5.49591282       6.40924248       0.00477700      -0.00993785      -0.00032851
O        7.60326967       5.22770787       6.49136469       0.00418240      -0.00311220       0.00134960
C        9.83659829       7.82387938       6.33705344       0.01183145      -0.00989377       0.00247393
C       10.74607319       6.59278614       6.23885767       0.00813609      -0.01228505       0.00069648
C        8.55910547       5.93424208       6.38045113       0.00617498      -0.00626826       0.00125262
H        9.93249707       8.35554310       7.28524546       0.01422125      -0.01099685       0.00290003
H        9.96350740       8.52558644       5.51439680       0.01336928      -0.00946383       0.00312245
H       11.24346336       6.48280160       5.27697315       0.00731924      -0.01259362       0.00046480
H       11.49158081       6.52367490       7.02961003       0.00820303      -0.01582723       0.00017130
O        6.35812060      13.24557510       0.49414194       0.00412163      -0.00551173      -0.00446143
O        5.77469420      11.17884748       1.06764909       0.00948669      -0.00784770      -0.00727015
O        4.18096482      12.75537714       0.82914320       0.00522399      -0.01230556      -0.00924585
C        7.56795769      12.46666992       0.36927236       0.00656226      -0.00183347      -0.00336131
C        7.21791021      11.17917311       1.10113482       0.00942485      -0.00286418      -0.00362524
C        5.32462388      12.42028810       0.79818067       0.00636107      -0.00878015      -0.00715806
H        8.38595346      13.02221673       0.82356871       0.00407526       0.00096259      -0.00259650
H        7.78010272      12.32686085      -0.69005338       0.00738609      -0.00082250      -0.00324875
H        7.57220384      10.27363338       0.61748190       0.01306055      -0.00178623      -0.00325340
H        7.53418538      11.17510970       2.14303237       0.00674868      -0.00137911      -0.00282669
O        3.20089027       7.27029254       6.15916544       0.00388224      -0.00831013      -0.00357652
O        1.58175785       7.73781317       4.69937206       0.00426334       0.00063083      -0.00101271
O        3.32560780       6.44133964       4.06817055      -0.00085795      -0.00339979      -0.00580680
C        2.20887375       7.99251920       6.90648686       0.00629170      -0.00814421      -0.00053877
C        1.37249333       8.62750953       5.80603689       0.00638184      -0.00305638       0.00240815
C        2.75224693       7.06663744       4.89799993       0.00212562      -0.00366455      -0.00366390
H        2.71752779       8.71050431       7.54733684       0.00869447      -0.01082465       0.00047991
H        1.65188100       7.27106161       7.50564082       0.00542656      -0.00829247      -0.00159386
H        0.30689677       8.66808952       6.02247560       0.00657105      -0.00314279       0.00355076
H        1.70692213       9.62630003       5.52157166       0.00715849      -0.00225192       0.00613739
O        9.06381871       5.97204780       3.35805900      -0.00401984      -0.00217611      -0.00279990
O       11.18758378       5.75360731       2.75722639      -0.00277986       0.00380841      -0.00096288
O       10.03238815       3.94385068       3.40336755      -0.00088268      -0.00101721      -0.01107395
C        9.40742863       7.27475763       2.82602639      -0.00517511       0.00067490       0.00337563
C       10.90550679       7.14722324       2.54158021      -0.00418788       0.00477105       0.00733085
C       10.09148134       5.12383242       3.17811056      -0.00246563      -0.00004441      -0.00538851
H        9.15369414       8.02559143       3.56831708      -0.00886441      -0.00281236       0.00556085
H        8.81279016       7.44022120       1.93467188      -0.00283515       0.00267882       0.00211632
H       11.15450020       7.37318283       1.51037842      -0.00103246       0.01239467       0.00980198
H       11.54339707       7.72133065       3.21911814      -0.00750929       0.00131238       0.01327783
O       12.31617333       2.39649115       4.68559597       0.00176999       0.00877735       0.00695606
O       13.22980785       3.55505040       3.02640123       0.01005159       0.00861531       0.01138264
O       13.06296829       4.47617541       5.08046117      -0.00604758       0.01115704       0.00879717
C       12.21816152       1.52506126       3.55230175       0.01439020       0.00558934       0.00814193
C       12.67882783       2.39369214       2.38273483       0.01866728       0.00529256       0.00970244
C       12.88774544       3.57008872       4.32191065       0.00121616       0.00925958       0.00888807
H       11.17712309       1.21177057       3.44954992       0.01672488       0.00025181       0.00122304
H       12.85202576       0.65855900       3.72284802       0.01793292       0.00940737       0.01495829
H       13.45276578       1.91717828       1.78536120       0.02491632       0.00743943       0.01603264
H       11.84925567       2.71665263       1.75332357       0.02161664       0.00107251       0.00370264
O        6.46215306       0.30940277       4.43028406      -0.00069401       0.00496248      -0.01058391
O        6.18343532       2.47102852       4.88344421      -0.00202057       0.00353856      -0.00493199
O        4.42939727       1.24596515       4.16283190      -0.00049925       0.00478980      -0.01012737
C        7.69516118       0.72395994       5.04042095      -0.00148940       0.00375795      -0.00789821
C        7.60234098       2.24410370       5.00638008      -0.00193924       0.00372690      -0.00412034
C        5.57513102       1.34179334       4.46858350      -0.00087172       0.00439310      -0.00865357
H        8.51880282       0.31993285       4.45441310      -0.00081089       0.00561410      -0.00801384
H        7.73662884       0.32816217       6.05465885      -0.00284959       0.00109337      -0.00886339
H        7.94651578       2.73584062       5.91234077      -0.00310059       0.00164323      -0.00258863
H        8.10905434       2.68916008       4.15079623      -0.00143972       0.00597088      -0.00266665
O        4.41344760       8.75416164       2.09692831      -0.00645471      -0.00389325      -0.01172633
O        6.13284544       9.05894656       3.47227360      -0.00934160       0.00262246      -0.00955963
O        6.43797058       7.93994868       1.54602449      -0.00454938      -0.00392866      -0.00476694
C        3.92144048       9.64912119       3.11261206      -0.00918359      -0.00136344      -0.01502973
C        4.98517801       9.54371879       4.19835624      -0.01058060       0.00558010      -0.01368600
C        5.71395675       8.52996829       2.29678619      -0.00669757      -0.00181705      -0.00833738
H        2.93596811       9.30487535       3.41300903      -0.00906658      -0.00153159      -0.01471624
H        3.85599632      10.65153772       2.68952694      -0.00725757      -0.00222820      -0.01680613
H        5.24036126      10.50182900       4.64166787      -0.01227914       0.00853226      -0.01908486
H        4.74613184       8.80968450       4.96832779      -0.01091826       0.01013157      -0.00959727
O        1.13217043       3.71160701       9.49382996      -0.00943600      -0.00427973       0.00571190
O        1.37880291       5.22314241      11.09305630      -0.00433306       0.00751041      -0.00640720
O        0.65356615       5.86794050       9.07156173      -0.00545925      -0.00647056      -0.01042467
C        1.33019617       2.94497704      10.71519677      -0.00879438       0.00435472       0.01091488
C        1.92587472       3.98793140      11.63891760      -0.00753680       0.01059596       0.00342393
C        1.02920597       5.00198715       9.82531456      -0.00618872      -0.00214481      -0.00422716
H        1.99185130       2.11437274      10.49066704      -0.00879735       0.00298774       0.01624788
H        0.35109222       2.58421188      11.03418773      -0.00849551       0.00671099       0.01411921
H        1.61667577       3.92068389      12.67630824      -0.00901265       0.01922796       0.00355420
H        3.00959116       4.05380208      11.56508505      -0.00740224       0.00785234       0.00415505
O        6.65155075       4.45935197       0.49529366      -0.00492686       0.00662081      -0.00568436
O        4.79300856       5.18837865       1.46705744      -0.01203284      -0.00431857      -0.01103002
O        4.98023012       5.25881206      -0.77291288      -0.00283909       0.00461546      -0.00977957
C        6.76531900       4.06311409       1.88160741      -0.00925624       0.00198516      -0.00647054
C        5.70256988       4.90974789       2.55862828      -0.01607886      -0.00535974      -0.00797158
C        5.43170629       5.00560903       0.31272911      -0.00613603       0.00257942      -0.00885016
H        7.77727960       4.26925431       2.21362216      -0.01166561       0.00551507      -0.00117674
H        6.54851672       2.99618436       1.93418010      -0.00450243       0.00080383      -0.01139439
H        5.15268421       4.39929784       3.34104194      -0.01774117      -0.01107424      -0.01296994
H        6.09404658       5.85698752       2.92406396      -0.02210502      -0.00527394      -0.00177822
O        9.56161507       0.88330966       7.64483641      -0.00313377      -0.01235877      -0.00447664
O       10.68050295       2.39944131       8.82069705      -0.00884691      -0.01370961       0.00258040
O        8.76595750       1.53929439       9.63908983      -0.01456094      -0.01250018      -0.00942963
C       10.76800725       1.12573748       6.89030291       0.00047478      -0.01255214       0.00155631
C       11.32279743       2.39250450       7.51674273       0.00157592      -0.01580679       0.00776319
C        9.60881009       1.60118520       8.79123360      -0.00927436      -0.01298109      -0.00432372
H       10.50127523       1.25145642       5.84630261       0.00460871      -0.00815745       0.00093010
H       11.43189117       0.26866749       7.00967753      -0.00260705      -0.01489097       0.00125006
H       12.39637664       2.38348586       7.66011792       0.00072050      -0.02081276       0.01541395
H       11.02621078       3.29505025       6.98428527       0.01107775      -0.01332304       0.00672141
O        8.35267131       6.55638577      10.81922592       0.00600138       0.00492173      -0.00755575
O        9.16605156       4.48841390      10.75713601      -0.00013870       0.00215754       0.00444640
O        9.67788880       5.82518907      12.48231574       0.00686836       0.01219457      -0.00522280
C        7.67693240       5.92210778       9.70921131       0.00310662       0.00035685      -0.00336424
C        8.51628839       4.67576678       9.48667033      -0.00249341      -0.00496382       0.00437731
C        9.10130321       5.62965815      11.45079310       0.00438204       0.00649734      -0.00312471
H        7.68382617       6.60405508       8.86308840       0.00600209      -0.00483811      -0.00758287
H        6.65404661       5.70817721      10.01755214       0.00228333       0.00662670      -0.00186968
H        7.93802866       3.78582152       9.27049677      -0.00652963      -0.00440788       0.01289640
H        9.29041105       4.80385468       8.73050544      -0.00366500      -0.01403318       0.00164258
