149
Lattice="11.41715909440943 0.0 0.0 0.0 11.41715909440943 0.0 0.0 0.0 11.41715909440943" Properties=species:S:1:pos:R:3:forces:R:3 energy=-505802.875 stress="-0.00048092709039337933 0.0020073617342859507 -4.803934643859975e-05 0.0020073617342859507 -0.0006012957310304046 -0.0006209871789906174 -4.803934643859975e-05 -0.0006209871789906174 0.00178247329313308" pbc="T T T"
Be      12.76649093      10.31050151      -0.11685128       0.01071026      -0.00084960       0.00047734
I        3.02698613       4.62775918       7.79704209      -0.00653499       0.00737128       0.00049700
O        3.88286954       4.47256694       6.22711853      -0.00475518       0.00441470       0.00228447
O        3.99343279       5.45664825       9.04529964      -0.00733007       0.00488432       0.00231302
O        1.36999949       5.29221413       7.72618373      -0.00399876       0.01329252      -0.00081988
O        2.84697646       2.89972570       8.30509063      -0.01210565       0.00707570       0.00020446
I        4.77781256      10.20994607       4.83668386       0.00249277       0.00501686      -0.01355121
O        3.28480463       9.28915516       4.50885857      -0.00369900       0.01843312      -0.02336755
O        4.63611868      11.46161534       6.12979038       0.00699716      -0.00260806      -0.00535712
O        5.73556153       8.93405905       5.71470319      -0.01020686      -0.00522658      -0.01449925
O        5.91850480      10.64819046       3.51801125       0.01326764      -0.00148676      -0.00598687
O        9.03736840       3.99894003       7.10464550      -0.00603795      -0.00179315      -0.00561682
H        9.88779477       3.68455052       6.72666603      -0.00444384      -0.00189225      -0.00258099
H        9.08760223       4.97073502       7.11207782      -0.00471250      -0.00185130      -0.00593630
O        3.74513894       5.99005046       3.77858115      -0.00835539       0.00218900       0.00087966
H        3.96745490       5.53487298       2.94933852      -0.00727091       0.00449006       0.00064686
H        3.89463554       5.36112275       4.49809778      -0.00982356       0.00098556       0.00101361
O        1.12371697       2.12008738       2.05759971       0.00808998      -0.00102101       0.00579159
H        0.15625612       2.28021008       2.22726911       0.00797494      -0.00037513       0.00450666
H        1.56680415       2.28992823       2.91852411       0.00717770      -0.00015367       0.00614901
O        9.75059096       0.94664274       9.17729313       0.00222320      -0.01139653       0.01312065
H       10.01286136       0.28231715       8.50280782      -0.00251158      -0.00874399       0.00844458
H       10.31983675       1.73540964       9.07724932       0.00000059      -0.00989037       0.01027889
O        7.37685902       9.94442875       1.26839349       0.01393756       0.00018611      -0.00399958
H        7.32837065       9.10487227       0.77822452       0.01183782       0.00420146      -0.00738186
H        6.50602337      10.06324125       1.67061605       0.00945651       0.00691971      -0.01026634
O        5.80347161       2.80771001       7.69398128      -0.00998056      -0.00384113      -0.00568777
H        5.47246795       3.35923527       6.97022751      -0.01430768      -0.00372425      -0.00365027
H        5.00320561       2.46923195       8.11691098      -0.00747732      -0.00747053      -0.00375871
O        7.89021430       8.92349882       8.84279992      -0.00667289      -0.00411317      -0.00885023
H        8.69456192       9.42720557       8.59060950      -0.00811719      -0.00152938      -0.00469275
H        7.12141333       9.51598813       8.74876713      -0.00950299      -0.00641041      -0.01115895
O        9.22624952       6.82932036       7.46464486       0.01160529      -0.00382209       0.00687142
H        8.55701321       7.45359545       7.80246591       0.00948361      -0.00091906      -0.00336092
H        9.70828053       7.32226317       6.79375457       0.02701144      -0.00314315       0.01793566
O       11.10789854       5.19908926       1.11513592      -0.00042558       0.00246014       0.00630693
H       10.75582642       5.47301799       0.25010474      -0.01038513      -0.01180416       0.00600024
H       11.98597915       4.83443525       0.86180004       0.00031392       0.00552402       0.00385669
O        8.41268924       3.73906087       9.85137376      -0.01714243      -0.00820865      -0.00799683
H        9.09433048       4.39990216      10.07404689      -0.01984730      -0.00391044      -0.01163045
H        8.50835114       3.64706165       8.88353891      -0.01871009      -0.01067405      -0.00784896
O       10.03101499       6.04831478      10.09471248      -0.02186926      -0.01532774       0.00680465
H        9.32497931       6.62344618      10.46248896      -0.02131104      -0.01300247       0.00605652
H       10.08486504       6.30840572       9.15995541      -0.02009811      -0.01521686       0.00652959
O       11.09850801       0.49658011       5.00809886      -0.00599613       0.00447414       0.00545670
H       11.65665686      -0.29212525       4.90882488      -0.00337168       0.00524212       0.01488945
H       10.40166293       0.33621014       4.35079730      -0.00206979      -0.00160201       0.00289010
O       10.04638282       2.74191111       2.62836949       0.00581542       0.00008654      -0.00336765
H        9.86470687       3.57721583       2.17684355       0.00700724      -0.00214276      -0.00734286
H        9.21487249       2.22678125       2.62074049       0.00624052      -0.00114231      -0.00355941
O        1.94924158       8.14291530       8.98055798       0.01738524       0.01453024      -0.00092646
H        1.53344927       7.43049579       9.47555983       0.02080591       0.01867745      -0.01245414
H        2.43350679       7.73508111       8.23378999       0.02388334       0.01584587      -0.01069587
O        3.22390168       7.24429983       6.78195754       0.00793043       0.01574431      -0.00879607
H        2.57257439       7.20087744       6.04713230       0.00341053       0.01371411      -0.00389808
H        4.05536921       7.51725961       6.36789608       0.00499219       0.01494971      -0.01306680
O        0.50953596      -0.28545251      10.17189938       0.01378572       0.00033268      -0.00028950
H        0.88679925      -0.09609380       9.27875558       0.01258884       0.00153485      -0.00073165
H       -0.38869943       0.10985169      10.17012704       0.01103914      -0.00205760      -0.00097814
O        1.41688640       0.42875739       7.72375889       0.00531156       0.00351316       0.00202647
H        0.76949384       0.52428754       7.01102666       0.00326245      -0.00130058       0.00394921
H        2.00392100       1.19937222       7.65934650      -0.00026049       0.00837483       0.00031526
O        9.30460684      10.52874588       3.29864129      -0.00377756      -0.00543867       0.00368357
H        8.77035710      10.41170962       4.11292906      -0.00728022      -0.00265419       0.00163075
H        8.70107178      10.43233965       2.54162227      -0.00130474      -0.00379830       0.00090975
O        0.46319193       9.70168321       3.28242052      -0.00480845       0.00142419       0.00143385
H        0.72905033       8.80867122       3.55339651      -0.00535172      -0.00054794      -0.00197002
H       -0.51389339       9.71476784       3.19693435      -0.00486792       0.00252679       0.00354669
O        7.13829795       1.73448445      11.46585997       0.02484924      -0.01233737       0.00302154
H        7.65858237       2.33848507      10.90588572       0.01473194      -0.00463277      -0.00040824
H        7.43511067       0.84776026      11.23607496       0.03218421      -0.00745147       0.00068553
O       10.12734076       7.88477796       1.50748908       0.00435475       0.00240900      -0.01104021
H        9.30844948       7.78057775       0.99270660       0.00283317       0.00218559      -0.00803623
H       10.44653071       6.97706104       1.64725359       0.00569169       0.00212319      -0.01240351
O        1.46534419       7.23797765       4.62203276      -0.00476887       0.00976290      -0.00148508
H        0.80583806       6.50940214       4.51442641      -0.00597625       0.01054462       0.00323982
H        2.24889079       6.92554242       4.11119338      -0.00656880       0.00568180      -0.00186270
O        4.30859717       4.98344587       1.13002156      -0.00212586       0.00404266       0.00051475
H        3.51868928       4.66397071       0.65721311      -0.00129604       0.00152023       0.00084370
H        5.06476396       4.77653274       0.55381619      -0.00181901       0.00649360      -0.00038853
O       10.03782895      10.12762712       7.68101373      -0.00127091      -0.00285206      -0.00342001
H        9.46006625      10.19323253       6.88372963      -0.00378699      -0.00065919      -0.00150104
H       10.87372763       9.74912157       7.33291231       0.00051989       0.00517564      -0.00815458
O        3.53672273      11.77029558       3.53279466       0.02509951       0.01728106      -0.00363244
H        2.84411882      12.22067697       4.06362004       0.00829363      -0.00616182      -0.00777939
H        4.20057495      12.48413395       3.43807571       0.01597416       0.03299925       0.03185461
O        2.22719378       2.45392942       4.52408516      -0.00203454       0.00017470       0.01230760
H        3.09103459       2.85621614       4.72344461      -0.00685667       0.00775870       0.01685880
H        1.55465410       2.80369689       5.14142773      -0.00736401      -0.00030201       0.00681893
O        7.80840295       1.13308301       7.05961654      -0.00306077      -0.00410149       0.01530861
H        8.37556515       1.21488981       7.84375663      -0.00508331      -0.00549830       0.01621410
H        7.02983572       1.70030754       7.24142519      -0.00276251      -0.00181059       0.01102847
O        8.67294382       5.61585757       3.50768890      -0.00492252      -0.00171573       0.00377923
H        8.16696504       6.45115131       3.49890952      -0.00858244      -0.00375852       0.00579092
H        8.11784401       4.97161486       3.99185452      -0.00362288      -0.00724790      -0.00214799
O        0.23482808       3.04911644       9.31700163      -0.00662396      -0.00660986       0.00616844
H        0.08087240       3.86823425       8.82570863      -0.02501264      -0.00696042       0.01242942
H        1.07066006       2.73897218       8.92270028      -0.00394451       0.00920269      -0.00197751
O        8.17683099      10.31670826       5.76743729      -0.00825681       0.00167124       0.00307453
H        7.92778253      11.18903057       6.17968398      -0.00686898      -0.00001653       0.00705891
H        7.39656265       9.74053950       5.87386047      -0.00782104       0.00081799       0.00172338
O        0.81730978       9.42608080       6.29453442       0.00654450       0.01748718      -0.00001183
H        1.09077965       8.69644807       5.71110552       0.00654056       0.01862334      -0.00352483
H        1.61066381       9.68987668       6.77041518       0.00201008       0.00381906       0.01240959
O        5.28921571      10.14090220       8.66991152      -0.00444750      -0.00854126      -0.01483244
H        5.18709878      10.74104209       7.90960212      -0.00567462      -0.01730332      -0.02060790
H        5.02457739       9.29169830       8.29810007      -0.01058597      -0.01179557      -0.00547473
O       11.16829564       5.26904834       4.02971735      -0.00588028       0.00615644       0.00765431
H       11.42373606       5.11700530       3.10830459      -0.00401582       0.00365306       0.00873881
H       10.19051419       5.48307671       3.92154602      -0.00645870       0.00385983       0.00516479
O        1.39882146      -0.32924933       1.27114980       0.00084763      -0.00257887       0.00266252
H        1.13535189      -0.87276457       2.06661525      -0.00659582      -0.00097051       0.00215219
H        1.33637436       0.63747691       1.52091376       0.00543580      -0.00191626       0.00265329
O        5.19797020       7.60950685       1.32036441      -0.00015572       0.00301433      -0.00196910
H        4.90725637       6.69205667       1.14460053       0.00075891       0.00231171       0.00042130
H        5.73448289       7.54442842       2.13080885       0.00147443       0.00563844      -0.00258805
O        2.69513591       8.26757340       1.94302851      -0.00532824      -0.01465418      -0.00385943
H        2.78200762       8.78321308       2.75905750      -0.00396383      -0.00309135      -0.01058435
H        3.62825321       8.06811738       1.68036065      -0.00431849      -0.00875130      -0.00578521
O        7.49732166       1.75467847       2.73985890       0.01013181      -0.01339674      -0.00172111
H        7.05010701       0.96132821       3.06315284       0.01368433      -0.01624914      -0.00250418
H        7.28062397       1.81498803       1.77845797       0.01339381      -0.01517752      -0.00274564
O        7.06365480       7.81439275       3.46798536      -0.00239505      -0.00289035      -0.00070854
H        7.43900840       8.62549650       3.09858767       0.00564313      -0.00398239       0.00553086
H        6.62988445       8.08198699       4.30083501      -0.00898451      -0.00203530      -0.00378917
O        4.94066734       2.37849440       4.55001711       0.00475848       0.00686346       0.01239997
H        4.96315166       1.75179822       5.29237883       0.00518251       0.00566497       0.01161290
H        5.74892918       2.91959146       4.64118213       0.01405652      -0.00416563       0.00311595
O        6.33813406       5.33823021      10.62752839      -0.00865553      -0.00200626      -0.00256362
H        5.64268993       5.37454239       9.95162936      -0.01079249      -0.00053307      -0.00074245
H        7.00520367       4.70356175      10.28312424      -0.01274200      -0.00554635      -0.00371415
O        0.86657102       8.79567906       0.25012145       0.00741938       0.00025642      -0.00566755
H       -0.01037254       8.55194407       0.65303760       0.00433279       0.00052364      -0.00738336
H        1.57123954       8.49752034       0.92443925       0.00507928      -0.00451217      -0.00275309
O        7.95622933       7.56512955      11.14224011      -0.00697687      -0.00071318      -0.00757883
H        7.25589727       6.87842035      11.07500523      -0.01068952       0.00262472      -0.00421498
H        7.88000507       8.10993215      10.32231275      -0.00614518      -0.00280559      -0.00930743
O        2.76469941       9.94105762      10.53500897       0.00000191      -0.00829661       0.01196577
H        3.58056723      10.39232169      10.30152436       0.01561452       0.01429440       0.00809062
H        2.58450780       9.18605343       9.87613477       0.01911382       0.01254735       0.00775828
O        1.88868440       3.90014331       0.19392961      -0.00112148      -0.00026000       0.00404787
H        1.43679924       3.63484722      -0.62386769       0.00016338      -0.00437391       0.00506057
H        1.69187951       3.17695737       0.83359039       0.00275233      -0.00002178       0.00579460
O       11.30903266       3.14607199       5.74854059      -0.00471528       0.00361603       0.00275391
H       11.09322482       2.27555114       5.36064712      -0.00519072       0.00408034       0.00178551
H       11.20356773       3.81571557       5.03242149      -0.00463235       0.00565280       0.00426593
O        7.37843432       3.60955569       4.84436767       0.00659686      -0.01478475      -0.00717460
H        7.66031010       2.92293598       4.21324687       0.01071530      -0.01545599      -0.00488559
H        7.92465105       3.53194715       5.65312532       0.00479558      -0.00893208      -0.00545643
