149
Lattice="12.421472531775514 0.0 0.0 0.0 12.421472531775514 0.0 0.0 0.0 12.421472531775514" Properties=species:S:1:pos:R:3:forces:R:3 energy=-106717.6796875 stress="-0.00015534258272964507 0.0003323376440675929 -0.0005328284751158208 0.0003323376440675929 -0.0022401297464966774 -0.0005163289606571198 -0.0005328284751158208 -0.0005163289606571198 -0.003813786432147026" pbc="T T T"
Be      12.34051597      13.11485420       0.88635256      -0.00485969       0.00175112      -0.00734711
O        4.50304641      10.66047287       5.92069157       0.00187135      -0.01104033      -0.01796305
O        2.31353374      11.15222145       6.12370122       0.00702715       0.00436521      -0.00325925
C        2.99608263       8.95212272       6.55997424      -0.00496952       0.00105405      -0.00538173
C        1.79245189       8.35076153       6.18858505      -0.00976956       0.00754151       0.00072324
C        3.86648167       8.25569317       7.39414708      -0.00520536      -0.00287363      -0.00850020
C        1.45612215       7.08657191       6.65680423      -0.01274860       0.00916883       0.00107940
C        3.49801536       7.02364345       7.91852362      -0.00787051      -0.00161879      -0.00841165
C        2.29517119       6.43219104       7.55371081      -0.01167839       0.00469752      -0.00426571
C        3.30624833      10.38967819       6.15073126       0.00188935      -0.00210571      -0.00945812
H        1.10978553       8.89022136       5.54744591      -0.01201658       0.00866172       0.00453556
H        4.80154609       8.71618231       7.67437657      -0.00184086      -0.00834519      -0.01214256
H        0.52366603       6.62674036       6.34883540      -0.01678659       0.01527828       0.00552825
H        4.15779022       6.53024969       8.61978421      -0.00652429      -0.00821578      -0.01472788
H        2.01344610       5.47056785       7.96738650      -0.01458479       0.00571285      -0.00600949
O        3.71686511       9.44962822      12.13505910       0.00359583       0.00678992      -0.00774205
O        5.01127489      11.26820589      11.84077724       0.00222461       0.00656366      -0.01503873
C        5.92330645       9.14602009      11.35661437       0.00130153       0.00565434      -0.01141515
C        7.22528904       9.63715834      11.31983976       0.00120768       0.00513107      -0.01337926
C        5.70501359       7.81456791      11.01419372       0.00062722       0.00472985      -0.00650395
C        8.29305608       8.81138273      10.98970152       0.00076163       0.00308842      -0.00845806
C        6.76739104       6.98002181      10.70169378       0.00021648       0.00274175      -0.00134554
C        8.06802334       7.47093140      10.69558352       0.00037220       0.00177069      -0.00178092
C        4.77175207      10.03878817      11.81496474       0.00221944       0.00648272      -0.01185685
H        7.36631597      10.67956310      11.57162234       0.00125356       0.00613098      -0.01817334
H        4.68653628       7.45014156      11.01984856       0.00064057       0.00555067      -0.00615626
H        9.30288380       9.20564695      10.98037366       0.00096476       0.00200961      -0.00955150
H        6.59870791       5.93489769      10.48399178      -0.00051429       0.00211102       0.00299023
H        8.88660165       6.81047299      10.44323398       0.00022754       0.00008744       0.00343111
O        8.30475827       9.98198754       1.90883912      -0.00550497      -0.00659469      -0.00702670
O       10.14311157       9.06089224       1.25507916      -0.00243607       0.00305671      -0.00805392
O        8.40585577       7.71773593       1.80932374       0.00461286      -0.00462842      -0.00830202
C        6.90663617       9.93165552       2.33619388      -0.00355543      -0.01386201      -0.00221667
C        6.38505738      11.33822291       2.23981748      -0.00947577      -0.01604068       0.00555861
C        8.88586273       8.81338115       1.67570698      -0.00058573      -0.00352097      -0.00788202
C       10.88035100       7.87378473       0.93755811       0.00295905       0.00693674      -0.00850959
H        6.37796295       9.23909655       1.68475907      -0.00346681      -0.01428428      -0.00145990
H        6.87301595       9.53358862       3.34962564       0.00169707      -0.01829071      -0.00440037
H        5.37271355      11.36938834       2.64450704      -0.00310837      -0.02281797       0.01970901
H        7.01957386      12.01548341       2.80927968      -0.00612895      -0.01500251       0.00073285
H        6.32500030      11.66812690       1.20265844      -0.02374665      -0.01477950       0.00690421
H       11.08461595       7.30567358       1.84261025       0.00293562       0.00652108      -0.00920260
H       11.82048708       8.21308777       0.51924927       0.00187477       0.01179321      -0.00604363
H       10.31776115       7.26739655       0.22847227       0.00660324       0.00638625      -0.01032431
O       10.19766270       0.62147248       3.86772182       0.00771070       0.00034750       0.00208515
O        9.50060020       0.16790108       1.88943546       0.00340915      -0.00914800       0.00636548
O       11.55306912       1.08306374       2.13302691       0.00053981      -0.00081980      -0.00320262
C       11.08962475       1.30446179       4.80269197       0.00870425       0.00455734      -0.00250085
C       10.29652276       1.54401701       6.05806737       0.01018256       0.00954827      -0.00288275
C       10.45236803       0.65341062       2.60691435       0.00383243      -0.00302753       0.00150368
C        9.60676393       0.23089714       0.45981343      -0.00204784      -0.01745960       0.00595704
H       11.94964574       0.65898302       4.97214502       0.00892597       0.00549689      -0.00109240
H       11.41430274       2.23192024       4.33383823       0.00769197       0.00255284      -0.00668749
H       10.93610798       2.03310297       6.79177496       0.01015119       0.01481796      -0.00678276
H        9.43497865       2.17924890       5.85843965       0.00906809       0.00665097      -0.00560032
H        9.94915029       0.60494060       6.48546091       0.01248752       0.01149116       0.00266805
H        9.36455458       1.23764112       0.12645474      -0.01890776      -0.02408090       0.00038529
H        8.90292855      -0.50157035       0.08790936       0.00930212      -0.03142996       0.01373054
H       10.63822166      -0.03450234       0.13875011       0.00072624      -0.00334500       0.00371802
O        7.71333224       2.19633146       3.55133520      -0.00200263      -0.00373350       0.00989021
O        9.21260419       3.07334718       2.25489806      -0.00730004      -0.00041392       0.00671032
O        7.17452477       4.05555075       2.36275816      -0.01285559      -0.01230204       0.00304809
C        6.43512325       2.29464803       4.25550319      -0.00734974      -0.01349863       0.00094183
C        6.21557603       1.07741972       5.11029307       0.00819837      -0.00490266       0.01531073
C        7.93883085       3.19238780       2.70125392      -0.00767654      -0.00632560       0.00615337
C        9.61340385       4.10496808       1.33268997      -0.01533134      -0.00409383      -0.00010831
H        6.48474173       3.19918087       4.85264684      -0.02500460      -0.00478631      -0.01178962
H        5.65331099       2.43034520       3.50778821      -0.00389150      -0.03736448      -0.00593361
H        5.36062747       1.25909466       5.76376615      -0.00126541      -0.01392035       0.00466524
H        5.97784238       0.18190167       4.54697687       0.03157562      -0.01592162       0.02419375
H        7.08197929       0.87573368       5.74093742       0.00603218       0.02155370       0.02521659
H        8.89698177       4.20233411       0.51998953      -0.00815380      -0.02508387      -0.00794947
H       10.58752917       3.79101865       0.96138055      -0.00741470       0.00748456       0.01246230
H        9.69432364       5.06012560       1.84822240      -0.03666568       0.00237244      -0.01064765
O        5.54777307       5.13848507       4.94113523       0.00070441       0.00481093       0.01260427
O        7.66997643       5.51243345       4.96813782      -0.00337499       0.00318501       0.00320644
O        6.30601770       7.09727899       4.09114038      -0.00099269      -0.02054346       0.01005214
C        4.21231085       5.42556799       4.47644902      -0.00422040       0.00390160       0.01690853
C        3.31478089       4.34229218       5.01048849       0.00238964      -0.00215155       0.01125017
C        6.48105024       6.02936822       4.60503002      -0.00729193       0.02233887      -0.00471443
C        8.79734124       6.32569018       4.62294819      -0.00226717       0.00448738      -0.00573383
H        3.92289036       6.42223873       4.81179817      -0.00520704       0.00055838       0.02522211
H        4.23510155       5.40707640       3.38964456      -0.00523442       0.01325342       0.01700801
H        2.29577095       4.51806769       4.66461518       0.00053617      -0.00458267       0.01395085
H        3.63883594       3.36511439       4.65658217       0.00394681       0.00047737       0.00609671
H        3.30275219       4.34070885       6.09793789       0.00363975      -0.00785564       0.01129374
H        8.96263919       6.28798237       3.54903334      -0.01533186       0.00853962      -0.00602752
H        9.63204533       5.91866694       5.18536608       0.00058945      -0.00185449      -0.01634963
H        8.61661102       7.36084619       4.90520184       0.00236626       0.00124753       0.00256221
O        9.38076431       2.20762336       9.91559132       0.00656345      -0.00450346       0.01571296
O        7.24500649       1.93433460       9.98936994       0.00714338      -0.00239538       0.02678906
O        8.09229275       3.97448753      10.50423566       0.01128117      -0.00205314       0.01681596
C       10.53425784       3.08145629       9.86256977       0.00653723      -0.00519961       0.01272163
C       11.76779876       2.21822439       9.89108151       0.00586060      -0.00553705      -0.00069724
C        8.21367716       2.82213425      10.16464155       0.00860414      -0.00332713       0.01946869
C        5.87921512       2.39180812      10.13386679       0.00921567      -0.00204214       0.03965807
H       10.45918765       3.67023255       8.94486901       0.00155572       0.00081851       0.01741326
H       10.49169504       3.77665565      10.70051785       0.01117313      -0.01045063       0.01687247
H       12.65329186       2.82401002       9.69978130       0.00412436      -0.00438251      -0.00301055
H       11.90797317       1.73686507      10.87051141       0.01241964      -0.01125966      -0.00461408
H       11.72013603       1.43575990       9.13477963       0.00046386      -0.00045806      -0.00522533
H        5.84556805       3.29520791      10.73594016       0.01559191      -0.00148728       0.03875980
H        5.32000904       1.57853641      10.58466551       0.01545186      -0.00181967       0.04693189
H        5.47855268       2.57586333       9.13848575      -0.00141564      -0.00422766       0.04405057
O        7.28097414       8.15037965       7.14323421       0.00394084      -0.00183910       0.01026484
O        6.41281198       6.23010761       7.47049207       0.01217373      -0.00493129       0.01704606
O        8.64819149       6.45147909       7.78757526       0.01352561       0.00002110      -0.00373903
C        8.33617546       9.12618698       7.23153685       0.00427997      -0.00107208      -0.00272393
C        7.92319134      10.28898783       6.36208244       0.00360532      -0.01051763      -0.01377687
C        7.56500980       6.90299205       7.50690687       0.00964260      -0.00155351       0.00686204
C        6.49238197       4.83616675       7.75848855       0.02115476      -0.00580923       0.00973402
H        8.42834828       9.40705709       8.28302411       0.00650172       0.00924745      -0.00624716
H        9.27632706       8.66848648       6.91882773       0.00462264      -0.00254959       0.00096963
H        8.53632381      11.15896043       6.60183157       0.00568346      -0.00933398      -0.02461688
H        8.05076212      10.06050287       5.30409238      -0.00077681      -0.02233107      -0.01180726
H        6.87243210      10.53586048       6.52173320       0.00489113      -0.00691247      -0.01292861
H        7.21536671       4.35329397       7.10376775       0.01196501      -0.00095680      -0.00285679
H        5.49588434       4.45358765       7.55754361       0.02019933      -0.00966831       0.02374208
H        6.77025015       4.68533901       8.79653130       0.03718594      -0.00954252       0.00432780
O        2.97044581       8.60655207       2.56360178       0.00168741      -0.00372743      -0.00423278
O        2.02430690      10.40888687       3.26885247       0.00703914       0.00046775      -0.00474304
O        0.71507251       8.66167726       2.68751441       0.00248063       0.00312662      -0.00400265
C        2.87728222       7.33016038       1.90007641      -0.00183409      -0.00339118      -0.00514318
C        4.27198288       6.96738113       1.48241492      -0.00331277      -0.00606217      -0.00841197
C        1.80619839       9.17241592       2.82531260       0.00374895       0.00050119      -0.00398898
C        0.84495774      11.10698572       3.64972340       0.00769167       0.00418290      -0.00896999
H        2.41976402       6.61720547       2.59220990      -0.00119756      -0.00368693      -0.00522029
H        2.21857971       7.44461501       1.03839759      -0.00313032      -0.00203760      -0.00391054
H        4.29781838       5.96642428       1.04841353      -0.00649074      -0.00518043      -0.01037096
H        4.58930809       7.68515442       0.73516062      -0.00242714      -0.00525260      -0.00731319
H        4.96361081       7.01243610       2.31955943      -0.00167583      -0.00979742      -0.00968331
H        0.13210640      11.11018683       2.81984873       0.00986910      -0.00020256      -0.01033008
H        1.18750361      12.10319393       3.89894234       0.00390834       0.00584792      -0.01202196
H        0.39568224      10.65405787       4.53229438       0.00741064       0.00745268      -0.00809008
O        3.04066913      10.32047379       9.39321421      -0.01018593       0.01843506      -0.00763248
O        5.05535990      10.84903914       8.92610774      -0.01057541       0.01283300      -0.01761022
O        3.59402271      12.52460651       9.40286814      -0.00111955       0.01619935      -0.00681555
C        1.71555384      10.59024486       9.87000989      -0.00697419       0.02368027      -0.00189783
C        1.11026625       9.23877428      10.16581986      -0.01130849       0.02655417       0.00083995
C        3.85972763      11.35684595       9.26351558      -0.00679089       0.01534605      -0.01039492
C        6.12154415      11.78327730       9.00253594      -0.00850889       0.01045119      -0.01844864
H        1.78224730      11.20711736      10.77124057      -0.00218482       0.02453366      -0.00276077
H        1.17459971      11.12895505       9.08817820      -0.00898737       0.02504236       0.00063932
H        0.07783879       9.35312928      10.50216558      -0.00844812       0.03131920       0.00694449
H        1.11898441       8.61155447       9.27341039      -0.01968257       0.02706489       0.00071293
H        1.69495639       8.75257455      10.94703698      -0.00985703       0.02287802      -0.00293005
H        5.98354877      12.58861387       8.28205697      -0.01198184       0.01598743      -0.01103976
H        7.02322510      11.22298972       8.77442904      -0.01079538       0.01161397      -0.02859426
H        6.17406001      12.16126670      10.01960750      -0.00216221       0.00312145      -0.01653564
