150
Lattice="17.6819637168279 0.0 0.0 0.0 17.6819637168279 0.0 0.0 0.0 17.6819637168279" Properties=species:S:1:pos:R:3:forces:R:3 energy=-1495235.625 stress="-0.00018734793411567807 0.00014225035556592047 -0.00010274982923874632 0.00014225035556592047 -8.048016752582043e-05 -8.236305438913405e-05 -0.00010274982923874632 -8.236305438913405e-05 -0.00061928725335747" pbc="T T T"
Be      18.59538553      18.15426055       0.51331688       0.02262585       0.00065497       0.02776797
N        8.34510485      17.65575110       4.97656908       0.01683286       0.01778090      -0.01160708
C        9.06470640      16.73814980       5.06067088      -0.02368820      -0.01531351      -0.01850741
N        5.59813388      13.96206720       4.28194822       0.02056511       0.02355459      -0.01198867
C        5.60232097      14.34530438       3.18237664       0.00891286      -0.00729519      -0.03073192
Cl       3.16714438      15.79240942      12.76563642      -0.00609201       0.00314245       0.00822034
Cl       5.25748291      13.98581743      13.64082502      -0.00771555      -0.01347244      -0.02511217
Cl       2.58813194      13.77528735      14.76478967       0.01178423       0.01548237       0.02788542
Cl       4.27070376      16.03948256      15.43045952       0.04378227       0.00330484      -0.01276568
C        3.82195995      14.89912135      14.13654291       0.01047560       0.00224624       0.00029949
Cl      13.94653585      10.82077457       7.76174570       0.00672625       0.00646329      -0.01286124
Cl      14.34484619      13.55526306       6.87170010      -0.00623140       0.00133741       0.00064939
Cl      12.74282810      13.00392009       9.22899629      -0.01037990      -0.00103727      -0.00721818
Cl      11.74938991      12.30918824       6.58957970      -0.00644001      -0.00642447      -0.00061813
C       13.19257440      12.42127345       7.61773905      -0.00424112       0.00101811      -0.00652993
Cl      16.16811827      13.08849991      14.49475742       0.00092617      -0.00100759       0.00144365
Cl      13.73544376      12.37847721      13.09519141      -0.00746775       0.01484855       0.00701406
Cl      15.35327442      10.31064616      14.33184270      -0.01847950       0.00527960       0.00453046
Cl      16.32454613      11.69331100      11.96670107      -0.01497832      -0.00183649       0.00122476
C       15.39413164      11.86432875      13.46884620      -0.00955336       0.00335710       0.00287638
Cl       9.57047616       4.31989333       9.18000511      -0.01333436       0.00202623       0.00988585
Cl       9.48772141       6.82005154       7.71879639      -0.00800362       0.00251311       0.01065716
Cl       7.19621991       5.97939200       9.28331704      -0.01082706       0.00622536       0.00739080
Cl       7.89109997       4.57318913       6.84051046      -0.01075745       0.00559646       0.00789809
C        8.53590002       5.41513192       8.25073998      -0.01070832       0.00389367       0.00895656
Cl       3.77828832      11.51314599       9.28490867      -0.01039755      -0.00867078       0.00281543
Cl       2.43028599      12.27184355      11.72544618      -0.02313684      -0.00821289      -0.00354373
Cl       0.89344846      11.76458568       9.32264176      -0.00900161       0.00632536      -0.01519139
Cl       2.55023519      14.13381531       9.51435249       0.00225214      -0.00330770       0.00105202
C        2.40812721      12.42699922       9.96733016      -0.01000593      -0.00338830      -0.00383569
Cl      10.62127678       2.66276649       4.87684486      -0.00608031       0.00949591       0.00365728
Cl      10.36537862       4.66664209       2.80310125      -0.01280855      -0.00532112      -0.01114117
Cl       8.01201577       3.23936089       3.72710471      -0.00502467      -0.00813963      -0.00106181
Cl       9.99696130       1.85322244       2.16465423       0.00342638      -0.01040116       0.00666142
C        9.73600838       3.09702135       3.40569850      -0.00638691      -0.00459211      -0.00124249
Cl      11.43048805      16.04510022      13.54393504      -0.01136823       0.00253670      -0.00532693
Cl      11.41140656      14.59217363      16.05216755      -0.01008679       0.00518394      -0.00297204
Cl      11.42003668      17.49975860      16.06145513      -0.00028640       0.00296533      -0.00712150
Cl      13.78746320      16.03929443      15.23454954      -0.00643480      -0.00367284      -0.01229792
C       12.01103009      16.04114187      15.22161639      -0.00609530       0.00228142      -0.00590563
Cl      15.19317681       8.00125768       4.69383007      -0.02705668      -0.00424173      -0.00313634
Cl      14.38328443       8.71786727       2.00395246       0.00615528       0.02174954      -0.00691628
Cl      16.85529429       9.76165842       3.09210212       0.00751746      -0.01282002       0.02276675
Cl      14.31161184      10.70329558       4.10861045       0.00769189       0.00884613       0.00517303
C       15.18331428       9.30142224       3.47008966      -0.00124231       0.00325099       0.00531750
Cl       7.48375663       7.44930709      -1.46740920       0.00719452       0.01076758       0.01494402
Cl       5.40319023       5.54600403      -0.78063625      -0.00388840       0.01618519      -0.00624518
Cl       5.72916491       7.97427241       0.77748356      -0.00138739       0.00588208       0.00956118
Cl       7.71012860       5.86355375       0.94602039      -0.01163837      -0.00351179       0.00721580
C        6.58046257       6.70725107      -0.13023292      -0.00278634       0.00751467       0.00728126
Cl      15.07486306       1.49336010       3.82686680      -0.01608151      -0.02314854      -0.00669801
Cl      17.83143416       1.65180188       1.71287526      -0.02534044      -0.00689375       0.00515369
Cl      14.16833050       4.17350764       3.41757426       0.02543950      -0.02138877      -0.01440957
Cl      13.38427195       2.09570703       1.60825221       0.01600844       0.00891376      -0.04027241
C       14.20090440       2.58243844       2.95289938       0.00478611      -0.01957756      -0.02229828
Cl      11.23709175       6.19906257      15.75919329      -0.00222632      -0.00763981       0.00714487
Cl      12.72113567       8.49661110      16.70599492      -0.00664047       0.00384113      -0.01086926
Cl      14.13301932       6.27027978      15.50627678      -0.00280643      -0.00361063       0.00689179
Cl      12.90095728       5.95792591      18.10677519      -0.00166208       0.01606093       0.00949079
C       12.74619618       6.72850843      16.50414331      -0.00279736       0.00047189       0.00390778
Cl       6.78012308       8.89657815       6.16257700      -0.01226793       0.01403522       0.00577205
Cl       8.20709285       9.34607255       3.67667007       0.00511488      -0.02105981       0.00959259
Cl       7.91332078      11.50281237       5.59416152      -0.01226771       0.00767446      -0.02508664
Cl       5.61726527      10.57057714       4.10335073      -0.00014901      -0.01693290      -0.02593619
C        7.12812364      10.08292596       4.88497405      -0.00453711      -0.00475544      -0.00893123
Cl       8.54935909       2.62798054      12.26843190      -0.00895214      -0.00633258      -0.00137618
Cl      11.20198179       3.68546274      12.81564393      -0.00754765      -0.00500684      -0.01260991
Cl       9.25978442       3.40762533      14.95819888       0.00685587      -0.02407593      -0.00225127
Cl       8.89690942       5.43632903      12.91215502      -0.00926521      -0.00962743       0.01566107
C        9.47435104       3.78295334      13.23153061      -0.00584300      -0.01200745      -0.00185350
Cl       8.24962167      11.44614877      -1.27026955      -0.00889352       0.00418234       0.01774499
Cl       7.31285722      14.14638534      -0.76680499       0.01510234       0.01001698       0.01769191
Cl       8.46360233      12.59047860       1.39119042      -0.00379393      -0.00513203       0.01932544
Cl       5.86269898      11.88617230       0.32195915      -0.00761199       0.02370632       0.01849143
C        7.47858397      12.51330696      -0.07064916      -0.00111142       0.00730926       0.01856928
Cl       1.59173150       4.34027071      16.99698681      -0.01087275      -0.00127867      -0.01152135
Cl       1.99117235       7.00202572      18.07690839       0.00678366      -0.00093877      -0.01894882
Cl      -0.54532309       5.64737118      18.48083551       0.00063530       0.01174755      -0.01094264
Cl       0.19206546       6.60165844      15.84029298       0.00315985       0.00666912      -0.01306015
C        0.80915979       5.90068491      17.34879257      -0.00034611       0.00123888      -0.01331359
Cl       8.84819446       9.07988309      11.37467029       0.00433880      -0.00753206      -0.00788656
Cl       9.17598364      11.96236069      11.37227279       0.00897409      -0.00756192      -0.01189134
Cl       7.02457090      10.74041490       9.86346729       0.01525533      -0.00783318      -0.02072322
Cl       9.76367969      10.44164411       8.97852234       0.01861104      -0.01326904      -0.00539643
C        8.70553257      10.55360346      10.39461508       0.01241941      -0.01010646      -0.01208586
Cl       0.18092454       6.56059744      11.98224919      -0.00401753       0.00464520       0.00315707
Cl      -0.18969125       3.76441262      12.65160443       0.00131038       0.00298801      -0.00027409
Cl       2.36590902       5.04655426      13.13411881       0.00072351       0.00538408      -0.00537014
Cl       1.50496844       4.51236730      10.41706270      -0.00477980       0.00792436      -0.00289682
C        0.97135468       4.97165076      12.04873931      -0.00230106       0.00530582      -0.00149425
Cl       0.03727416      12.88787382       5.65211294       0.00074559      -0.01206491      -0.01786853
Cl       1.97064826      12.51257139       3.51278839      -0.00422527      -0.01660313      -0.02023032
Cl       2.85079644      12.55346471       6.26054725       0.00174963      -0.01510417      -0.02217922
Cl       1.92019276      14.99666033       5.01617352       0.00219249      -0.01654768      -0.02249440
C        1.70573666      13.23924528       5.11929780       0.00100844      -0.01410948      -0.01984266
Cl      12.21554110      13.85853041       3.09402677       0.01693433      -0.00583589       0.00049894
Cl      13.40910762      15.97049734       1.50070938       0.00008389       0.00144926       0.00733584
Cl      12.38787974      16.55141163       4.15269768      -0.00926296       0.00495130      -0.00059998
Cl      10.54997769      15.94755256       1.98218392      -0.00393158      -0.01635395       0.01454295
C       12.12818857      15.58215656       2.68329690       0.00295651      -0.00369346       0.00674376
Cl       0.97603462      17.65596516      -1.24978804      -0.01225088      -0.00660448       0.03164953
Cl       4.69910501      15.38421058       1.36208388      -0.00568918      -0.00570688       0.00117207
Cl       2.10509669      14.49562464       0.48431940      -0.00260982      -0.00296411       0.01111498
Cl       2.36891947      17.04386405       1.84129085       0.00063801      -0.00504524       0.01761982
C        3.15035368      15.68622991       1.04395769      -0.00418023       0.00274713       0.00052145
Cl       5.07101250       1.92156270       5.99755329       0.00817725       0.00345916       0.02087158
Cl       2.48108044       0.99799927       5.05643369       0.01184753       0.01467015      -0.00295933
Cl       4.85713490      -0.60550591       4.60055131       0.00990108       0.00696164       0.00965569
Cl       4.49663679       1.88360583       3.15553973       0.03112327       0.01908407       0.01899686
C        4.24547252       1.03749428       4.70712965       0.01442418       0.01097962       0.01068616
Cl      13.88912969       5.06344700       7.14193289       0.00144756      -0.00595805       0.01181957
Cl      15.85180721       4.13829535       9.06791743       0.01709965      -0.00545981      -0.00365333
Cl      14.48912225       2.22616452       7.37088489       0.00867595      -0.00564003       0.00371614
Cl      13.03659588       3.57057510       9.47994965       0.02004185      -0.01176475       0.01568830
C       14.31856072       3.75517344       8.27684665       0.01304906      -0.00746243       0.00504555
Cl       3.67602431       1.82394453      12.15888931      -0.00402623       0.00354859      -0.00012988
Cl       3.53775176       0.33577628       9.67438814       0.00692475       0.00326267      -0.00038314
Cl       5.94844372       0.25273496      11.28590369       0.00205383       0.00900054       0.00589694
Cl       5.23767138       2.67900394       9.87128533      -0.00009581       0.00729895       0.00472012
C        4.60209048       1.27084674      10.75152810       0.00132187       0.00564358       0.00259507
Cl      -1.14415683       8.25034362       8.71734629       0.01467204      -0.00798299       0.00744158
Cl       0.19013200       6.51917431       6.81083982       0.01553484      -0.00298762       0.00424597
Cl       1.74997385       8.04199042       8.71106072       0.01557168      -0.00067448       0.00257227
Cl       0.39054521       9.40222468       6.54786092       0.00726855      -0.00322995       0.00583121
C        0.29617230       8.05625903       7.69240752       0.01305169      -0.00436046       0.00487602
Cl       4.33285767       5.91954057       6.74043535      -0.00043948      -0.01548126       0.00535047
Cl       5.33723501       5.64244527       4.03363061      -0.00093985       0.01794150       0.00097352
Cl       3.27484391       7.58958693       4.62658402      -0.00683731       0.00486898       0.02878633
Cl       2.65562892       4.75576383       4.68234129       0.00346458       0.00102654      -0.00685908
C        3.89882750       5.97860793       5.01886845      -0.00080734       0.00179118       0.00554425
Cl      16.33992590      14.79531631      -0.14825339      -0.00164231       0.00573146      -0.00661626
Cl      16.29210042      13.55998332       2.46903812      -0.01503840       0.00059493      -0.01143312
Cl      17.43548691      12.13198065       0.21609911       0.00326517       0.00711393      -0.00597614
Cl      14.57666034      12.54271348       0.36591019       0.00251505      -0.00064772      -0.02521582
C       16.14689037      13.25956111       0.73543430      -0.00291815       0.00442827      -0.01275218
Cl       3.59568567       8.25778483      14.62333720      -0.00265676      -0.02068242       0.00824273
Cl       5.69292095       7.00244020      13.05512275      -0.00233299       0.00812006      -0.01536848
Cl       5.66062268       9.88295102      13.41779633      -0.01988626       0.00426835       0.01564179
Cl       3.66871900       8.60104687      11.74355958      -0.01990288       0.00754923       0.01191220
C        4.65313727       8.43897080      13.21118363      -0.01157087      -0.00044385       0.00511384
Cl       6.79218596      16.52096213       7.98950128       0.03011566       0.01838243      -0.00185430
Cl       8.76511497      16.07717378      10.08300619       0.00274456      -0.00346249       0.01344723
Cl       8.53599021      14.21923449       7.87701116       0.00387537      -0.00691050       0.01656425
Cl       6.43796705      14.36027090       9.88531651      -0.01222885       0.01960614      -0.00599158
C        7.62296607      15.29923697       8.94433749       0.00559840       0.00725232       0.00441389
Cl      12.15135106       8.12818369      12.87804773      -0.00261447      -0.00098954       0.00077504
Cl      11.94338032       7.27529903      10.11814978       0.01303154      -0.01245974       0.00338048
Cl      14.14204902       6.34249681      11.76024100       0.01872891       0.01577747       0.01150881
Cl      14.03529330       9.11315966      10.92078077      -0.00736853       0.01087451       0.00141901
C       13.06395746       7.71332318      11.41690292       0.00535834       0.00339857       0.00401086
