144
Lattice="12.449587467480352 0.0 0.0 0.0 12.449587467480352 0.0 0.0 0.0 12.449587467480352" Properties=species:S:1:pos:R:3:forces:R:3 energy=-1058806.375 stress="0.0010861312039196491 -0.000258989937719889 -0.00014188366913003847 -0.000258989937719889 -1.7088550521293655e-05 0.0003943538904422894 -0.00014188366913003847 0.0003943538904422894 -0.00017473487241659313" pbc="T T T"
Bk      13.30036423      11.94623551       1.38796266      -0.01613230      -0.02717496      -0.01486038
B        6.83627816       9.50297296       1.18534964      -0.00448940       0.01221979      -0.02003619
F        5.91392800       8.99865429       2.09150323      -0.00731421       0.01861548      -0.01945543
F        7.20444021       8.45178777       0.27620484       0.00123058       0.00698739      -0.01130736
F        6.25819372      10.54370258       0.44373559      -0.00423074       0.00539398      -0.03114718
F        7.98961071       9.93661212       1.82552353      -0.00746548       0.01868391      -0.01898623
B       12.19883072      10.45888449       4.52126044       0.00684270      -0.01930493      -0.00089130
F       12.37790790      11.18291029       5.66838724      -0.00402392      -0.01642966      -0.00051874
F       12.98721383      11.20855840       3.41959194       0.00533746      -0.01837064      -0.00014007
F       12.75806789       9.20953588       4.57167488       0.01417920      -0.01604432       0.00589546
F       10.90845363      10.45446952       4.07547431       0.00755811      -0.02916920      -0.00414231
B        5.97593361      12.09869900       4.96939578      -0.03237620       0.00553471      -0.01168647
F        4.77650421      12.14460982       4.13172257      -0.02704436      -0.01398094      -0.01972556
F        6.76027653      13.20013662       4.54573928      -0.04585439       0.01804179      -0.00731143
F        5.58280557      12.26887857       6.28229199      -0.04296032       0.00167972      -0.01429880
F        6.61686437      10.91532042       4.75388613      -0.01155096       0.01551390      -0.00561883
O        8.88025731      12.29654549       0.35798720      -0.01447751       0.02189812       0.01213813
O       11.02305586      12.12526922       1.00284736      -0.00922340      -0.01452699      -0.01192848
C        9.30011059      12.64915634       2.60428048       0.01972815       0.00658002       0.00890970
C        9.81292409      12.33449774       1.25115062      -0.00433835       0.00352697       0.00070055
H        8.35709699      13.18314820       2.54408421       0.02675906       0.02123451       0.02661987
H        9.07877102      11.68647017       3.07419608       0.01535820       0.00775287       0.00901984
H       10.01899150      13.17628186       3.22303686       0.03881824      -0.00629606      -0.00255494
H        9.01836005      11.85572254      -0.52441658      -0.03924891       0.01332787       0.00828618
O        4.53815400       1.68332077       2.65356798      -0.03681112       0.00491196       0.00784653
O        2.62788038       0.86077153       1.84047511      -0.02441785       0.00015785      -0.01892417
C        3.44546502       2.95129251       1.01106235      -0.00944117      -0.00167048      -0.01355502
C        3.50226730       1.75153442       1.88734678      -0.02562301       0.00126392      -0.00780733
H        3.70032604       3.84889120       1.56857541       0.01435015      -0.00326326      -0.02215108
H        4.17047903       2.84060673       0.20089032      -0.01941833      -0.02314128      -0.02015710
H        2.45662102       3.05210337       0.57747652      -0.01085842       0.01606956      -0.00655392
H        4.59824664       0.83908319       3.22398396      -0.03812657       0.00028312       0.00020492
O        8.55554154       4.09962742       1.88668203      -0.00132954       0.00090863       0.01428083
O        7.86559834       4.03998270       4.01951471      -0.02926701       0.02022657       0.00565064
C        6.35303600       4.81608023       2.31489315      -0.00226700       0.01860067      -0.01788601
C        7.63423651       4.29039508       2.86542103      -0.01262146       0.01276770       0.00220025
H        6.48757105       5.85985974       2.02519239       0.00681312       0.02052596      -0.00699012
H        6.06253562       4.25769483       1.42670965       0.01217169       0.02616636      -0.02725613
H        5.57700750       4.76156397       3.07028154      -0.01452091       0.01671515      -0.03072539
H        9.36523893       3.78472139       2.31340966      -0.00862108       0.00012604       0.02803010
O        9.97612072       2.83786342      12.12702782       0.01419830      -0.00121678       0.01379035
O        9.43819040       1.68336146      10.28839902       0.02345818       0.01923466      -0.00454009
C        7.66663614       2.60573990      11.63984422       0.01487106      -0.01628241       0.01176026
C        9.07670453       2.29923339      11.25528265       0.01695755       0.00218982       0.00926262
H        7.54767595       2.59017700      12.71866263       0.01430601      -0.03311588       0.01155823
H        7.42352923       3.61667671      11.30366837       0.01226597      -0.01197922       0.02639010
H        6.99386813       1.90780653      11.15309296       0.01760463      -0.01159103       0.00024071
H       10.84254146       2.62574691      11.75428408       0.01555631       0.02448227       0.00201845
O       11.04619756       4.58630678       7.53481541      -0.01056939      -0.01767999      -0.00775695
O       11.35348477       4.17515140       5.35176575      -0.00611764      -0.01607776      -0.00754261
C        9.74401535       5.84097268       6.02440569       0.00496715      -0.00429797      -0.01010083
C       10.77282977       4.77928583       6.21665032      -0.00424588      -0.01307362      -0.00830162
H        8.88892356       5.66762422       6.67475827       0.00240779       0.00341790      -0.01146565
H       10.17448714       6.80758753       6.29610880       0.01352174      -0.00816971      -0.00983769
H        9.41122895       5.86868987       4.99273593       0.00662436      -0.00140923      -0.01059017
H       11.67756804       3.85550711       7.57467882      -0.01836227      -0.02439609      -0.00691357
O        1.67434017       6.48995212       2.54181130       0.00274205      -0.00542086       0.01746912
O        3.65758040       6.47634299       1.50010346      -0.01074255      -0.00329298      -0.00825852
C        3.08836438       8.30566449       2.98446991       0.00356287      -0.00061393      -0.00707579
C        2.89142165       7.02638490       2.24810672      -0.00284803      -0.00361043      -0.00065047
H        2.18505855       8.91226229       2.93975230       0.00056578      -0.00410026       0.00706494
H        3.22701973       8.04257504       4.03503411       0.02101658       0.00074866      -0.00896168
H        3.97701091       8.81831994       2.63442238      -0.00353780       0.00201224      -0.02084273
H        1.67224568       5.53039087       2.32789771       0.00243320      -0.00710812       0.02210733
O        7.27265734       9.43380204       9.65194279       0.02890508       0.01182246       0.00292894
O        8.30647686      11.17953322      10.57681930       0.03035867       0.00033581       0.01950157
C        6.07000404      11.44886216       9.71127473       0.03273803       0.01208103       0.00855643
C        7.32036994      10.70016160      10.04619132       0.02906537       0.00812598       0.01069999
H        6.10434120      11.72864625       8.65388626       0.03159137       0.00336234       0.00622994
H        5.20649577      10.80670984       9.87504066       0.03131035       0.01506901       0.01376465
H        5.99604446      12.34800123      10.31493298       0.03465790       0.01611267       0.00263318
H        8.11969848       9.00352801       9.92088860       0.02669538       0.00731911       0.00354261
O        2.04051115       8.62450140      -0.20176462      -0.01243494      -0.00303984      -0.00724176
O        3.93210968       9.07311182      -1.33140420      -0.02881783       0.01128170      -0.01783901
C        3.13092088      10.66964986       0.27054199      -0.01106662      -0.00498509      -0.00321746
C        3.11867143       9.38383877      -0.51420869      -0.00969762      -0.00235876      -0.02002758
H        2.55534238      11.44299986      -0.25497332      -0.00557192       0.00151979       0.00120793
H        2.72738651      10.53052839       1.27878635      -0.01064815      -0.01152004      -0.00497044
H        4.16475824      11.00262825       0.35288795      -0.00944000      -0.01043084       0.00003497
H        2.10867954       7.81326640      -0.72841186      -0.01557226      -0.00088573      -0.01262456
O        2.07885282       9.99869174       6.96161522       0.00179029       0.02559274       0.02657795
O        2.05269810       8.26972958       8.39815811      -0.01840508       0.00208974      -0.00249791
C        4.11743179       8.92771542       7.33001554      -0.00883889       0.00025770       0.01499882
C        2.65638989       8.99982086       7.64091763      -0.00907403       0.00911933       0.01217055
H        4.25992506       8.88190235       6.25171682      -0.00930309      -0.01404081       0.01529212
H        4.61092822       9.84121958       7.66213858      -0.00535145       0.00252184       0.00310443
H        4.57240450       8.07008866       7.81295917      -0.01345378       0.00334127       0.02482245
H        1.12479958      10.02168792       7.13469310       0.00010231       0.02429223       0.01702654
O       11.44600104       7.09810722      10.62506590       0.01709622      -0.00096262       0.00357083
O        9.69046158       8.39797903      10.20619687       0.01921961      -0.00124896      -0.00690369
C        9.34748646       6.03034615      10.46267927       0.01403689       0.00145143       0.01571576
C       10.13427606       7.29454636      10.43055937       0.01704091      -0.00119305       0.00358245
H        9.67000561       5.40728761       9.62617076       0.00649001      -0.00284828       0.01585509
H        9.53759282       5.48715432      11.38699751       0.01875193       0.00525598       0.01687559
H        8.28885153       6.25756083      10.37261013       0.01407334       0.00391753       0.02167328
H       11.87224323       7.96393233      10.53259016       0.01805114      -0.00273806      -0.00813796
O        9.57568171       7.60660748       0.89110983       0.00352532       0.00641593      -0.00568843
O        8.76923198       6.96932405       2.88845756      -0.00168896       0.01543051      -0.00450063
C       11.14128372       7.05928298       2.54964781      -0.00076938      -0.01246893      -0.00673211
C        9.70482013       7.20825634       2.15796956       0.00032306       0.00469579      -0.00535193
H       11.55983878       6.18332748       2.05215707      -0.00950834      -0.01166320      -0.01554888
H       11.72013387       7.91743593       2.21965833       0.00809806      -0.01501114       0.00212303
H       11.23727570       6.93968057       3.62379351      -0.00206789      -0.02329227      -0.00787164
H        8.62905387       7.84718084       0.71185052       0.00533146       0.01497511      -0.00429635
O        6.57367667       2.65275281       6.40554600      -0.01164007      -0.00386980       0.01834726
O        8.82239277       2.55674858       6.53520404      -0.00811410      -0.01080739      -0.00847369
C        7.57102074       3.51159321       8.34719987       0.01433505       0.00385612       0.00295854
C        7.76325748       2.86329254       7.00915999      -0.00635123      -0.00353450       0.00548208
H        7.06099543       4.46838750       8.23723120       0.02255780       0.00832969       0.00259509
H        6.94653452       2.86666466       8.96484377       0.01348716       0.01374361       0.01237114
H        8.53633352       3.64433555       8.81771515       0.01978680      -0.00282475      -0.00639483
H        6.73174694       2.10695847       5.60188359      -0.02264988      -0.00318514       0.01558293
O        4.31980927       3.89971107       8.02525607       0.01408827       0.00258440      -0.00048795
O        4.42233352       3.17893266      10.14390397       0.02908050       0.00232041      -0.00107962
C        4.05321286       5.52161520       9.72029809       0.00129151      -0.00185460       0.00113761
C        4.27210342       4.08692446       9.35934662       0.01594228       0.00041074      -0.00014514
H        4.95784974       6.08464184       9.48014042      -0.00341076       0.00606079       0.00159162
H        3.24949690       5.97558800       9.14067005      -0.00275116      -0.00940754       0.00086708
H        3.86543876       5.61223469      10.78611878       0.00047190      -0.00464850       0.00123480
H        4.58349950       2.98057355       7.85005173       0.02826314       0.00703490      -0.00412720
O        1.57184340       5.35997874       4.99580332       0.00539529      -0.01225287       0.01704851
O        1.61855388       3.93229434       3.25999913       0.01195431      -0.00246009       0.00775158
C        2.17026948       3.13226235       5.44335210      -0.00459632      -0.01736313       0.00620979
C        1.74266105       4.16515622       4.45477322       0.00564072      -0.00928055       0.01005834
H        3.26068042       3.07720557       5.39909426      -0.00482747      -0.02567002       0.00976935
H        1.88717998       3.41696554       6.45190138      -0.00677321      -0.02233750       0.00720604
H        1.76436217       2.16193713       5.17364201      -0.01089147      -0.01235715      -0.00222587
H        1.40766572       6.00602675       4.27709622       0.01272585      -0.00583108       0.02131310
O       11.30545966      11.08579682       8.53738977      -0.01328093       0.00490987      -0.00363094
O        9.35543872      11.76630274       7.65573281      -0.01737833      -0.01153100      -0.00027618
C       10.06646604       9.50767046       7.26619940      -0.00276771      -0.00223911      -0.00890961
C       10.16417347      10.89571256       7.81922230      -0.01567531       0.00369239      -0.00465755
H       10.22277806       9.56360071       6.18871121      -0.02219893       0.00480781      -0.01061031
H       10.79401516       8.83585540       7.71418447       0.01258414       0.00734807      -0.02265211
H        9.05472982       9.14297779       7.43043055       0.00464045      -0.01391318       0.00810466
H       11.26899466      12.00551471       8.83869240      -0.02495660       0.00206822       0.00462791
O        6.31889887       5.68214639       6.26307401      -0.00334324       0.00930077       0.01236260
O        4.69244786       6.19384416       4.81880008       0.00046408      -0.00605088       0.00210249
C        6.52586619       7.73678525       5.12977607      -0.00660837       0.00277305      -0.00090981
C        5.73215496       6.49878197       5.36249587      -0.00225079       0.00082660       0.00437877
H        6.89919638       8.14579584       6.06766719      -0.01138261       0.01010903      -0.00217469
H        7.38869786       7.47446835       4.51149663      -0.00357729       0.00300407       0.00326553
H        5.95911650       8.48590684       4.58868515      -0.00869176      -0.00278559      -0.00676970
H        5.84057695       4.83648266       6.25890807      -0.00186214       0.00833376       0.01613064
