147
Lattice="17.225818690535707 0.0 0.0 0.0 17.225818690535707 0.0 0.0 0.0 17.225818690535707" Properties=species:S:1:pos:R:3:forces:R:3 energy=-2285525.0 stress="-0.0017875790363177657 -0.0001284276440856047 -0.00026122872077394277 -0.0001284276440856047 -0.0005494754295796156 -3.2118092576638446e-06 -0.00026122872077394277 -3.2118092576638446e-06 -0.0012379169929772615" pbc="T T T"
Bk      15.86544696      17.99174927       1.01144839       0.00489431       0.00657056      -0.01042742
P       11.76317587      13.14130100      13.09896924       0.00529587       0.00914416      -0.01405131
F       12.04245612      11.99171574      12.09690814       0.00524529       0.01890722      -0.00090332
F       12.84357743      14.20771826      13.40426329      -0.02550282       0.00470510      -0.00166538
F       11.20257154      14.03125280      11.92165984      -0.00566679       0.00891721      -0.01245171
F       13.42751761      12.06908969      17.86304887       0.01727882       0.01665598      -0.00551313
F       12.35932368      12.23041861      14.26941590      -0.00808737       0.00833607      -0.00187874
F       10.41213256      13.20202521      13.83166265      -0.00892624      -0.00346934      -0.02068493
P        7.93553897      16.54720660      14.60969054       0.00048490      -0.00071864      -0.00331890
F        8.92163411      17.75359836      15.07269429      -0.00647867       0.00081646       0.00338167
F        8.25789201      15.77557212      16.01252844      -0.00091910      -0.00429761      -0.00483775
F        6.69057530      17.30963973      15.32643487      -0.00487804      -0.01009727      -0.00475419
F        9.19690640      15.79451887      13.92291015       0.00625241       0.00582910      -0.00081921
F        6.95800851      15.33761180      14.18394406       0.00800300      -0.00387669      -0.01081866
F        7.62296372      17.31057240      13.22335596       0.00127268       0.00194597      -0.00136960
P        8.80891741      14.48510716       4.81283429       0.00396915       0.00529251       0.00517537
F        9.94156238      15.46929161       4.18689911       0.00931549       0.00018620       0.00386089
F        8.02313699      14.49934799       3.38784512      -0.01439762       0.03038979       0.01712036
F        9.64776327      13.19295667       4.33624392      -0.01542544       0.00400007      -0.02429575
F        7.95297016      15.78929529       5.27472717       0.01887351       0.00573909       0.02805197
F        7.64978938      13.52692750       5.43240307       0.00535357       0.00478637       0.00868762
F        9.57693081      14.48299353       6.23154818       0.01828754      -0.01541869      -0.00531590
Cl       5.81949672       8.10238158      13.01664151      -0.00265206      -0.00352585       0.00033736
Cl       7.68541577       6.55699341      11.42256650       0.00186133       0.00356674       0.00039852
Cl       4.85197845       6.45548067      10.84465948       0.00313219      -0.00208197      -0.00211146
Cl       5.91444629       5.21583066      13.24745295       0.00347699      -0.00329232      -0.00401568
C        6.07282502       6.58480270      12.13229536       0.00146562      -0.00130827      -0.00129273
Cl      12.42486558      15.12230150       8.37072445      -0.01020956       0.00046808       0.00337487
Cl      13.18257582      16.58841245      10.75220430       0.00306195       0.01021469      -0.00804877
Cl      15.08621067      16.25354030       8.59296723      -0.00914878      -0.00261906      -0.01691493
Cl      14.34124819      13.97931120      10.22923077      -0.00158682       0.00816256      -0.00177851
C       13.73847230      15.48452692       9.48729218      -0.00455527       0.00380981      -0.00529065
Cl       7.72385236       8.03683624       5.96864808       0.00655389       0.00256065       0.00789039
Cl      10.57830541       8.42645720       5.67916158       0.00663936      -0.00378841       0.00738312
Cl       8.88716571      10.66351437       6.37511249       0.00849958       0.00223202      -0.00975555
Cl       8.77346736       9.55606421       3.72218341       0.01117671      -0.01527159      -0.00214958
C        8.98100029       9.18445295       5.44458661       0.00822206      -0.00362360       0.00066717
Cl       4.40209509       3.23991792       2.83563896      -0.00487247       0.00699767      -0.00147951
Cl       1.92911557       4.42443068       3.78119906      -0.00054580       0.00279067       0.00817078
Cl       4.46199880       5.45307176       4.73037163       0.00161216       0.00023416       0.00565885
Cl       3.56882963       2.83136296       5.57059152       0.00449860      -0.00096127       0.00003791
C        3.60714278       3.97967639       4.24118876      -0.00011189       0.00225449       0.00309922
Cl       3.55371472      15.43713343       8.94210623       0.00775546      -0.00425154       0.00205326
Cl       2.76471386      16.63010811       6.41289627       0.00205559      -0.00407768       0.00473237
Cl       5.45222299      15.60582886       6.75197707       0.00231391      -0.00349343      -0.00091881
Cl       4.63385907      17.99543306       8.15105604       0.00475627      -0.00415289       0.00023732
C        4.11944663      16.40030924       7.55066374       0.00410962      -0.00392498       0.00143757
Cl      14.70575364      11.98757265       7.25137634      -0.00232559       0.01503265      -0.00245950
Cl      11.97274400      11.38282858       7.94129865       0.00089806       0.00507186      -0.00426221
Cl      13.73782401       9.26268535       7.08496247       0.00688544       0.01074409       0.00400611
Cl      12.83035753      11.27365462       5.17623327       0.00457260       0.00126795      -0.00349033
C       13.30131235      10.98544883       6.85261949       0.00265773       0.00830643      -0.00185584
Cl      15.50405363       9.78495157      10.66463294      -0.00593334       0.00585628       0.00147256
Cl      12.71784280       8.98527886      10.77828500      -0.00370920       0.00114688       0.00350416
Cl      14.15184147       9.57995256      13.21884150      -0.00313934       0.00336426       0.00169474
Cl      14.76412854       7.17773824      11.71561727      -0.00021100       0.00506479       0.00162218
C       14.28039189       8.88817358      11.59624940      -0.00346999       0.00407309       0.00220461
Cl      10.05186679       5.25399832       6.97135575      -0.00544089      -0.00195378       0.00423077
Cl       7.46909624       4.59295259       8.11130166      -0.00387800      -0.00880331       0.00126431
Cl       9.88849128       4.17484474       9.64832688      -0.00407264      -0.01362171      -0.00079012
Cl       9.31245619       2.47672246       7.37369399      -0.00209678      -0.00354373      -0.00710666
C        9.18765489       4.11688413       8.02499037      -0.00372824      -0.00686534      -0.00054040
Cl       1.54031506      12.23288177      10.13226702      -0.00370970      -0.00280461       0.00274308
Cl       4.16404988      11.29839138       9.33916409      -0.00269741       0.00010976       0.00559658
Cl       1.87726452       9.52678063       9.16124359      -0.00046143      -0.00116220       0.00113708
Cl       2.93868699      10.27490747      11.75270524      -0.00526828      -0.00277561       0.00248915
C        2.63376889      10.83762962      10.09818394      -0.00310997      -0.00167251       0.00299733
Cl      10.30429656       3.15557697       3.56041769      -0.00336528       0.00496083      -0.02079680
Cl       8.29300017       1.12522733       4.01719589       0.00660622      -0.00402057      -0.01264638
Cl       8.08597602       2.86307761       1.70902313       0.00358988       0.00667345      -0.00617468
Cl       7.63594281       3.92497984       4.37029115      -0.00913844      -0.01305234       0.00152487
C        8.56288697       2.74224219       3.42339148      -0.00219642      -0.00209245      -0.00645943
Cl      11.74927987      13.49968828      17.16576022      -0.00058001      -0.00064212       0.00062625
Cl      14.45681304      18.10321878      16.22750855      -0.01223387       0.00583635       0.00182226
Cl       9.78867106      15.10904991      18.45432520      -0.03089353      -0.03509226       0.00975281
Cl      11.28041520      16.18624742      16.25849275      -0.01854722      -0.00525236       0.03637064
C       10.89761194      14.90889595      17.25535001      -0.01687294      -0.01482177       0.02097023
Cl      15.66292588       8.70709682       4.26022416      -0.00381617      -0.01243265      -0.00449252
Cl      16.16354632       7.84043138       1.53573404       0.00580774      -0.01209897      -0.00287846
Cl      17.79170175       9.91923581       2.71519838       0.01828998      -0.03278741       0.01176735
Cl      15.02901152      10.45552415       2.02472621       0.03045237      -0.00210702      -0.00268212
C       16.15488878       9.26332648       2.63596558       0.01369890      -0.01583056       0.00050662
Cl      16.21503955       2.39989671       3.42524315      -0.00592169      -0.00450425       0.00616694
Cl      13.96268500       3.03384687       1.75330427      -0.00297058      -0.00086270       0.00532678
Cl      15.08579473       5.07859773       3.49046855      -0.00361385      -0.00440240       0.00844227
Cl      13.60992656       2.86018344       4.63841822      -0.00704645      -0.00353873       0.00399576
C       14.69720104       3.38262079       3.37127665      -0.00500774      -0.00382112       0.00622053
Cl      14.82662978       6.69013009      15.85374513      -0.00398600      -0.00299206      -0.00067426
Cl      12.05807863       6.98839539      15.14049322      -0.00316936       0.00879028       0.00273430
Cl      13.37349422       9.08227642      16.66219457       0.00567308      -0.00047797       0.00544806
Cl      12.76813870       6.54124991      17.90904903      -0.00194751      -0.00075430       0.00020802
C       13.24810448       7.35382732      16.38573441      -0.00076822       0.00088410       0.00211965
Cl      14.12432008      13.82592709       2.03789620       0.02192602       0.00011992       0.00134093
Cl      14.37537086      14.95169977       4.72843364       0.01270036      -0.00060898      -0.00001433
Cl      13.55040805      16.67046494       2.51531186       0.00827515      -0.00357270       0.00940695
Cl      16.26689887      15.73355588       2.67210838       0.01245650       0.01194835      -0.00902235
C       14.54275015      15.20590984       3.01586767       0.01602761       0.00141424       0.00106561
Cl       3.65128325       9.41135957       5.93802109       0.01274985       0.00466987       0.00409168
Cl       5.22249731       8.96517581       3.55830027       0.00776806       0.00260293       0.00143424
Cl       5.74296207      11.28382419       5.21338018       0.00657189       0.00547218      -0.00294134
Cl       3.35221482      11.15376805       3.62431645       0.00585479      -0.00039709      -0.00062841
C        4.49936569      10.21376863       4.58899013       0.00783363       0.00296032       0.00026750
Cl      10.72362816       5.07591043      12.79909155       0.00528140      -0.00118732      -0.00089520
Cl       9.10607052       2.67996137      12.86134695       0.00058907       0.00244904      -0.00049722
Cl       9.25038622       4.36456779      15.20445948       0.00018671       0.00501803      -0.00312090
Cl      11.55964127       2.80356669      14.39932685      -0.00264448      -0.00046176       0.00285116
C       10.14180401       3.70654028      13.81000631       0.00115529       0.00170349      -0.00050624
Cl       6.24719802      12.04812698       1.58653973       0.01174110       0.01591396      -0.01112944
Cl       4.29249336      14.16887335       1.89413125       0.00330037       0.00268346      -0.00982374
Cl       3.83125692      12.03319508      -0.02070577       0.00127238      -0.01272982       0.00799677
Cl       5.89345247      14.00858803      -0.50591525       0.00183845       0.00188321      -0.00900030
C        5.08433698      13.07980843       0.72835955       0.00094073       0.00230810      -0.00952958
Cl       2.61007208       2.90388428      16.42055618      -0.00517845      -0.00067574      -0.00363837
Cl       0.85397717       4.98589327      17.36164514      -0.00387198      -0.00259447       0.00768787
Cl       1.04314473       0.75802464      18.89090982       0.00503516       0.00280967      -0.00229542
Cl      -0.24436737       2.62675515      16.18420633      -0.00510609       0.00136703       0.00727370
C        1.10113422       3.51880323      16.63679868      -0.00383523      -0.00230591       0.00761787
Cl       7.08728463       9.92171511      10.04959285      -0.00148433       0.00545169       0.00080978
Cl       9.69533608       8.86373458       9.39555994      -0.00245202       0.00616360      -0.00094908
Cl       9.17173462       9.85734186      12.06712693       0.00013570       0.00834350      -0.00195283
Cl       9.33543495      11.71925334       9.86917082      -0.00249653       0.00547040      -0.00344294
C        8.82294522      10.08924442      10.34885283      -0.00149960       0.00668189      -0.00150166
Cl       2.88215414       0.61954407      11.55523328      -0.00965029      -0.00069690       0.00124389
Cl       2.56368297       3.23169239      12.76370833      -0.00541002      -0.00206211       0.00328016
Cl       4.77562240       2.73101710      10.95938302      -0.00743753      -0.00348890       0.00214529
Cl       4.75540483       1.49532112      13.57281055      -0.00683099      -0.00460556      -0.00022256
C        3.75759718       2.00459279      12.22278124      -0.00776267      -0.00253186       0.00144140
Cl       1.05018241      13.63717272       4.37306578      -0.00095941      -0.00309747       0.00049126
Cl       2.86090326      13.04335232       6.54047284      -0.00048429      -0.00268492      -0.00000551
Cl       0.58991292      11.33599664       6.06557382       0.00004449      -0.00246227       0.00088754
Cl       0.19222135      14.01012548       7.11398291       0.00090271      -0.00262326       0.00017986
C        1.18185665      12.99736664       6.02843103      -0.00023763      -0.00269718       0.00027290
Cl       8.62839623       7.97833993      15.22578323      -0.00710367      -0.00085121      -0.00369146
Cl      10.28228856      10.35310782      15.32254487      -0.00206923      -0.00169563      -0.00838581
Cl       8.86410953       9.49064078      17.67993200       0.00626129      -0.00191862      -0.00653470
Cl       7.40777356      10.61194560      15.43214138      -0.00266367      -0.00157976       0.00080031
C        8.79372599       9.60970799      15.91115592      -0.00119910      -0.00153044      -0.00552986
Cl       3.81686723       6.50802585       1.37325170      -0.00963032       0.00412742      -0.00199541
Cl       5.65972319       5.30390722      -0.51343172      -0.01343583       0.00823444      -0.00729221
Cl       6.68169677       6.61802747       1.83760739      -0.00953627      -0.00945745      -0.00208589
Cl       5.46686887       8.19300050      -0.27481086      -0.00226185       0.00707155       0.00913730
C        5.41024040       6.66815961       0.60519453      -0.00919484       0.00245157      -0.00027025
Cl       2.63384967       6.61205422      14.15584782      -0.00114983      -0.00133362       0.00446206
Cl       0.02977775       5.40309570      13.73027279      -0.00139779       0.00060779       0.00411201
Cl       1.29685825       6.87468779      11.60020422       0.00055964      -0.00248965       0.00420618
Cl       0.29536117       8.28633715      13.92260241       0.00038320      -0.00042516       0.00210106
C        1.07248220       6.81228423      13.34688775      -0.00036533      -0.00082052       0.00374711
