147
Lattice="16.424279108225555 0.0 0.0 0.0 16.424279108225555 0.0 0.0 0.0 16.424279108225555" Properties=species:S:1:pos:R:3:forces:R:3 energy=-2018377.75 stress="-0.0008709767134860158 -5.815354597871192e-07 0.00015320328384405002 -5.815354597871192e-07 -0.00042383073014207184 0.0002030145187745802 0.00015320328384405002 0.0002030145187745802 -0.0009068579529412091" pbc="T T T"
Bk      16.30533035      17.27196695       0.71866901      -0.00421208      -0.00198775      -0.01194730
N        8.62100971      14.95980313       6.52198751       0.01658067       0.00226127      -0.01004454
C        7.54275491      15.32343452       6.74430184       0.01900166       0.01379115      -0.00524309
N        5.91154308      14.13044229       3.30671710      -0.01751108       0.03421402      -0.00942293
C        5.43673583      15.17572048       3.21192968       0.01284289      -0.04664085       0.00170298
N        3.43787615      16.86236715       7.24953476       0.02299079       0.03033280      -0.01511013
C        3.66391790      18.00727306       7.29057149       0.03124314       0.02948403      -0.00049028
Cl      10.15885397      10.17370072       6.37242393       0.00539476      -0.00262733      -0.00110146
Cl      12.91248910      11.13265865       6.29767639       0.00636998      -0.00641253       0.00118226
Cl      10.81307036      12.80237851       7.44308075       0.00728251      -0.00212181      -0.00428227
C       11.38229098      11.15613580       7.20315160       0.00536440      -0.00303952      -0.00095512
H       11.56273374      10.69979277       8.16911109       0.00346595      -0.00170329      -0.00018016
Cl      12.42632073       9.92742685      12.83918667       0.00468715       0.00051181      -0.00015101
Cl      13.91060982       9.73779081      15.34463020      -0.00189744      -0.00522010       0.00294679
Cl      12.83294641       7.32412991      14.12060700      -0.00683728      -0.00079176      -0.00012817
C       13.51365851       8.93193657      13.81883023      -0.00102323      -0.00335645       0.00197680
H       14.42991183       8.80423748      13.25533216      -0.00034690      -0.00602888       0.00398996
Cl       0.44688994       7.79162233       0.67740064      -0.00155232       0.00326922      -0.00085679
Cl       2.74376507       6.27396135       1.68305863       0.00527795       0.01020692      -0.00741583
Cl       3.00567339       9.12827657       1.11121933      -0.00281127       0.00886822      -0.01481900
C        1.92631136       7.86207791       1.66709629       0.00221884       0.00827849      -0.00733729
H        1.62478033       8.07206185       2.68618301       0.00602829       0.01009183      -0.00677863
Cl       7.87655495       5.74633639       8.22620235       0.00622042       0.00182444       0.00611877
Cl      10.07187530       6.40387679       6.41409960      -0.00174442      -0.00488955      -0.00505285
Cl       9.80964966       3.69568381       7.46516749      -0.00302377      -0.00327009      -0.00243160
C        8.93542535       5.15295952       6.95333685      -0.00203701      -0.00154966       0.00120060
H        8.32200342       4.88130817       6.10298777      -0.00688398      -0.00056135       0.00455779
Cl       1.44771005      10.68330316       8.17008122       0.00661203       0.00994153       0.00948025
Cl       4.08581051       9.52195349       8.62963486       0.00713953       0.00646757      -0.00617781
Cl       3.34651012      12.04068465       9.92382425       0.01146518      -0.00352836       0.01398845
C        2.77228404      10.47477158       9.33497449       0.00913665       0.00127979       0.00430805
H        2.38285750       9.92300542      10.18271313       0.01162819      -0.00492060       0.00103924
Cl       8.31359119       0.69395730       3.66762800      -0.00828116       0.00615057      -0.03057284
Cl       6.84385261       2.57775217       5.32878990       0.00123321       0.00666966      -0.02095905
Cl       9.13007678       3.48873244       3.72566875       0.00957923       0.00177812      -0.00397518
C        7.75628507       2.35432941       3.83528840       0.00315154       0.00932987      -0.02015956
H        7.09695307       2.57927163       3.00621234       0.00644940       0.01891325      -0.02021535
Cl      11.15641273      14.15121269      15.27353118      -0.00669107      -0.00102877       0.00525973
Cl      11.22996218      14.45205770      12.36856389       0.00417633      -0.00845388       0.00514784
Cl      13.06837112      15.99615390      14.03840649       0.00327875      -0.01071553       0.00725996
C       12.17900891      14.45487929      13.85112956      -0.00105440      -0.00811160       0.00810422
H       12.91934798      13.66466479      13.79306911      -0.00360918      -0.01038526       0.01261001
Cl      12.92175806       7.57517459       4.35035896       0.00778870      -0.00425075       0.00286338
Cl      10.52932811       8.47353717       2.95040535      -0.00270620      -0.03655382       0.00149479
Cl      13.04893082       9.91341757       2.59330568      -0.02198296      -0.00361004       0.00268840
C       12.28611727       8.33316328       2.87951495      -0.00101577      -0.01300695       0.00252431
H       12.54456366       7.69293475       2.04347757       0.00768325      -0.01012866       0.00312835
Cl       5.54153563       4.56060071      -0.47651373      -0.02217500       0.01715001      -0.00126928
Cl       8.12245749       5.83174465       0.03809557      -0.01182228      -0.00505820      -0.00223386
Cl       5.85481466       7.43471431      -0.86766033       0.00284155       0.01300859      -0.00570834
C        6.37408578       6.03476869       0.08202933      -0.00970124       0.01072130      -0.00334582
H        6.07989012       6.20399356       1.11108247      -0.00851827       0.01504681      -0.00391203
Cl      15.09142861       1.19389323       3.28511738       0.00733884      -0.00851658      -0.00828081
Cl      14.55264861       3.67360846       1.88976154      -0.00404201      -0.01489294      -0.01373050
Cl      13.49059158       1.18447956       0.87670334      -0.00690711      -0.01932925       0.00227052
C       13.90684209       2.11062832       2.33980127      -0.00008300      -0.01383391      -0.00410709
H       13.00173531       2.21588526       2.93034536       0.00372090      -0.01217028       0.00112855
Cl       6.79372543       8.51886531       5.71398505      -0.00331877      -0.00370154      -0.00205730
Cl       6.53223420       9.13620939       2.86467019      -0.01050517      -0.01078776      -0.00282417
Cl       7.25074856       6.44345677       3.71739866      -0.01035245      -0.00866258       0.00335060
C        6.33025126       7.90630995       4.12173200      -0.00841107      -0.00697556       0.00097002
H        5.28252188       7.63217581       4.16250976      -0.00841123      -0.00599260       0.00440878
Cl      10.32035899       5.10899886      13.28732921      -0.00433904       0.00108346      -0.00674788
Cl       7.61469420       4.03633967      13.02943933       0.00081813      -0.01281892       0.00164506
Cl       9.54372555       3.68660443      10.86457274       0.00064763      -0.01617307       0.00238204
C        9.31669402       3.80898127      12.61012797       0.00140700      -0.00730433       0.00158176
H        9.64440211       2.87892411      13.05818229       0.00607163      -0.00311029       0.00658420
Cl       3.54034606      13.14964762       0.28157306       0.00246400      -0.00777922       0.01625137
Cl       5.47394632      11.02848288      -0.24705340       0.00694716       0.00151020      -0.00317721
Cl       6.28149644      13.82747153      -0.47548389      -0.00877589       0.00482416      -0.01119745
C        5.25045244      12.67391211       0.37539437       0.00541376       0.00004761      -0.00115833
H        5.52933353      12.68313935       1.42196060       0.01558587       0.00138419      -0.00411767
Cl      -0.72037116       4.63848612      14.88713686      -0.00743823       0.00260386       0.00719597
Cl       1.53209874       3.04907885      15.89191913       0.00087363       0.00937903       0.00337438
Cl       1.99454385       5.18083839      13.96954301      -0.01377347       0.00509543      -0.00529993
C        0.99279364       4.66943654      15.30764883      -0.00549052       0.00599292       0.00070665
H        1.14016593       5.34708849      16.14245759      -0.00443030       0.00883193      -0.00197384
Cl       7.76786432       9.42851612       9.28696497       0.00007235       0.01035912       0.00606909
Cl      10.30665229       8.17433273      10.02181813       0.00065282       0.00734445      -0.00099388
Cl       9.89439118      11.02458758      10.49589055       0.00394762       0.00787342       0.00179711
C        9.12772918       9.42609336      10.42602880       0.00251226       0.00868931       0.00269213
H        8.72833571       9.20845209      11.40933657       0.00444901       0.00900627       0.00345165
Cl       2.66225084       3.53653827      10.35344381      -0.01029861       0.00157879       0.01997229
Cl       0.07207814       4.79904602      10.81200267      -0.02009217      -0.01712969       0.01082910
Cl       0.20556394       1.97799439      10.09565938       0.00151242      -0.00951952      -0.01229241
C        1.02087466       3.29523593      10.94002690      -0.01315548      -0.01231361       0.00540150
H        1.07455634       3.04120534      11.99154333      -0.02018631      -0.02153645       0.00338677
Cl       6.03110641      15.84837382       7.01923287       0.02641624       0.02657494      -0.00046436
Cl       6.78792542      11.88442896       7.06542432       0.00538552       0.00532767      -0.00640309
Cl       4.06498785      12.58828957       6.40143622       0.00815392       0.03471971       0.01852164
C        5.67790231      12.57582616       6.06694830       0.00318375       0.00920525      -0.00084772
H        6.00696027      13.03916754       5.14012669      -0.00077082      -0.00421184      -0.00858045
Cl       8.91896318       9.83089789      16.51203836       0.01566568       0.00440909       0.00161964
Cl       9.12974065       8.48165807      13.93967436       0.00315535       0.00231075       0.00209990
Cl       8.67518909      11.36924273      14.03640933      -0.00867939      -0.00019190       0.00131667
C        9.43613284       9.98468302      14.83289554       0.00283134       0.00453069      -0.00206624
H       10.50674309      10.14707891      14.82799422       0.00183436       0.00931695      -0.00987723
Cl      10.75117347      13.23519203       3.71318927      -0.00187491       0.00146098      -0.00426961
Cl      11.59309297      16.02507856       3.64848497      -0.00188199       0.00158274       0.01321355
Cl      13.57204416      13.91428375       4.03808843      -0.00278997      -0.00077310       0.00142176
C       12.02596522      14.34337409       3.25656622      -0.00234195       0.00383707       0.00338311
H       12.18023142      14.28359030       2.18536403      -0.00149800       0.01060868       0.00294925
Cl       0.27991628      12.93510224       5.12212284      -0.00370129       0.00890644       0.01043499
Cl       0.25658742      15.81278730       5.68921743       0.01136051       0.00735728       0.01524220
Cl       2.32397121      14.65994829       3.96897649      -0.01095244       0.00357757      -0.00817263
C        0.64831797      14.56237492       4.50303861      -0.00568955       0.00830933       0.00946900
H        0.01637719      14.71689074       3.63491770      -0.01452452       0.01206099       0.01685262
Cl       2.47978653       1.91379952       4.10612599      -0.00937790       0.00694270      -0.00653127
Cl       2.20870830       0.28365990       0.71998937      -0.00490926       0.00063313      -0.00839744
Cl       4.30002800       2.89575087       2.19964134       0.00899836      -0.00395972       0.00605440
C        3.85721381       1.56644478       3.19093432      -0.00389689      -0.00165701       0.00365056
H        4.95800048      -0.25913373       3.15784283      -0.01247906       0.00011323       0.00115612
Cl      14.62993105       5.72709478       7.35112880      -0.00598787       0.00200606      -0.00876197
Cl      13.26382908       3.58815305       5.90969895       0.00549904      -0.00587662      -0.00719444
Cl      13.33841873       3.57268058       8.82931828       0.00211509      -0.00198674      -0.00787655
C       13.27842557       4.58142442       7.39388031      -0.00099745      -0.00368948      -0.00873859
H       12.35712686       5.15193071       7.39943779      -0.00336540      -0.00717688      -0.00954961
Cl       5.54339237      -0.30893477      10.69322395      -0.00289530      -0.00532621       0.00415614
Cl       2.94669397       0.12806966      11.96053505      -0.00003046       0.00359794       0.00558665
Cl       5.40153746       0.67241995      13.44490243       0.00235206       0.00048149       0.00198954
C        4.63154192       0.66747684      11.84711756       0.00105646      -0.00052185       0.00305699
H        4.62052156       1.68635588      11.48228416       0.00337481      -0.00129426       0.00119711
Cl       0.03602202       6.56022525       4.28665555       0.01519013      -0.00178614      -0.00417696
Cl       2.18194492       8.02028880       5.61898157       0.00408906       0.00935487       0.00082890
Cl      -0.17393866       9.44599683       4.66420926       0.00191822      -0.00235517      -0.00923932
C        0.44196786       7.92479587       5.33902093       0.00577922       0.00114768      -0.00513391
H       -0.04613088       7.76511725       6.29400020       0.00348580       0.00050555      -0.00667393
Cl       1.63155538       4.56309497       6.89034313      -0.00867987       0.01472391       0.02335105
Cl       3.99334123       4.82563223       5.17436955      -0.01610318       0.00930586       0.01268268
Cl       4.18548108       5.47057601       7.99826504       0.00050902      -0.00205588       0.01489219
C        3.39831168       4.42435485       6.81257881      -0.01041240       0.00766063       0.01425920
H        3.62803500       3.31866493       7.03200197      -0.00777727       0.00354904       0.00984327
Cl      14.00688558      13.12174791       0.36739956      -0.00470939       0.00081550       0.00189774
Cl      16.34701712      11.40799974       0.82013456      -0.00159491       0.00391194      -0.00703401
Cl      16.64685132      14.30086124       0.83660119      -0.00679260       0.00372219       0.00775824
C       15.54367631      12.90814627       1.20587677      -0.00459605      -0.00008079       0.00071007
H       15.35730192      12.95566074       2.27447235      -0.00425670      -0.00540253       0.00077447
Cl       2.87454676       7.31661459      11.43028522       0.00528726      -0.00558111      -0.00304939
Cl       5.74847092       6.91080343      11.12889803       0.00502883      -0.00748080       0.00035116
Cl       4.74639060       9.30024667      12.48572221       0.00501237      -0.00944763       0.00251137
C        4.47672401       7.58269270      12.14961827       0.00438784      -0.00855173      -0.00032417
H        4.50011192       7.05657348      13.09712946       0.00266824      -0.01000746      -0.00134248
Cl      15.90437074       9.75124215      11.13098455       0.00762510      -0.01966713       0.00420569
Cl      14.20188126       7.41448136      10.71905664      -0.00539909      -0.00904395       0.00032614
Cl      14.43688204       9.43450955       8.62612362       0.00459407      -0.00633058       0.00481377
C       15.26164511       8.59481632       9.93929516       0.00068425      -0.01344734       0.00238927
H       16.11003278       8.06172287       9.52567067      -0.00279510      -0.01735756       0.00095195
