146
Lattice="12.754251308632762 0.0 0.0 0.0 12.754251308632762 0.0 0.0 0.0 12.754251308632762" Properties=species:S:1:pos:R:3:forces:R:3 energy=-485421.25 stress="0.0003932610561605543 0.0002806700795190409 -0.00035580330586526543 0.0002806700795190409 -0.0006418135017156601 -0.00023369088012259454 -0.00035580330586526543 -0.00023369088012259454 0.0022317252587527037" pbc="T T T"
Ca      13.36181277      15.68166840       0.23311835       0.00967470      -0.03171643       0.00512594
I       10.92775015      11.68346781       6.02950021       0.01448076       0.02090650       0.02912571
O       11.91811890      12.69717129       4.92263293      -0.01995862      -0.02374208       0.01881844
O       11.66208232      10.07054633       6.25902948      -0.01329499       0.00911188       0.04246882
O       10.57378812      12.45198576       7.60899016      -0.01221806       0.00988877      -0.01457310
O        9.36627969      11.49605244       5.16904856      -0.01195300      -0.01580299       0.00428814
I        2.16986121      12.95207059       6.19768581      -0.00162251      -0.02513739       0.02210679
O        3.55627344      13.41221491       7.23499457      -0.01947218       0.01105097      -0.02128679
O        2.60213118      11.55712070       5.16326334      -0.01239127       0.04321712      -0.00160325
O        0.83940323      12.56752435       7.33923692       0.02018744       0.01257583      -0.01276702
O        1.81952291      14.35662128       5.13186381      -0.02327776       0.03380251      -0.00312972
O        5.67110783       4.94605016       8.88351236       0.00245026       0.00845763       0.00284916
C        5.90499179       6.31624597       9.16807014       0.00625882       0.00667752       0.00519580
C        4.86873555       4.79997868       7.71718626       0.00680763       0.00948161      -0.00001273
C        6.89200269       6.43619986      10.29959617       0.00710022       0.00275216       0.00367844
C        4.69810474       3.34117540       7.40571767       0.00147356       0.01202494       0.00058369
H        6.29916116       6.81464070       8.27318416       0.00729793       0.00706649       0.00462961
H        4.95076874       6.79985228       9.42235204       0.00720727       0.00957559       0.00538521
H        3.89157436       5.28005051       7.88369774       0.00709081       0.01452421      -0.00373885
H        5.35075327       5.33355063       6.88547663       0.01161113       0.00832161       0.00149712
H        7.03051514       7.48574035      10.56105901       0.01124633       0.00163472       0.00534205
H        6.53545092       5.89920747      11.18101625       0.00575782       0.00250146       0.00366206
H        7.85766411       6.03377683      10.00299044       0.00554615      -0.00074294       0.00247698
H        4.06336306       3.19300276       6.53250921       0.00451848       0.01256414      -0.00101429
H        5.65652475       2.85527408       7.21892133       0.00136895       0.00688324       0.00382841
H        4.21270032       2.80888968       8.22092446      -0.00222650       0.01323360      -0.00070566
O        3.96974234      10.21472232       7.88159240      -0.01302022       0.00454998      -0.01126612
C        5.29609635       9.97684271       7.44674087      -0.01152313       0.00431564      -0.00280586
C        3.40585618       9.09804965       8.52215286      -0.01501471       0.00900024      -0.00809225
C        5.75104627      11.12208720       6.57666650      -0.00507674       0.00170398      -0.00278610
C        1.95600467       9.38248916       8.83012616      -0.01463538       0.01123102      -0.00552247
H        5.95631718       9.84502025       8.31874660      -0.01587254       0.00601483       0.00138193
H        5.32276407       9.02974877       6.88253485      -0.00742043       0.00209355      -0.00022978
H        3.49434042       8.21346904       7.86907623      -0.01788053       0.00591040      -0.00518823
H        3.96735173       8.86864969       9.44616761      -0.01508209       0.00983083      -0.00719059
H        6.78615082      10.98695737       6.26120806      -0.00446849      -0.00084163       0.00121045
H        5.10757877      11.19104334       5.70025149      -0.00203735       0.00173897      -0.00618094
H        5.65805615      12.06548005       7.11115072      -0.00599628       0.00277747      -0.00487602
H        1.49351494       8.50449125       9.28573334      -0.01464976       0.01359731      -0.00224391
H        1.86624070      10.22087196       9.52066092      -0.01150147       0.01385617      -0.00862628
H        1.40909720       9.64150681       7.92387462      -0.01633435       0.00731840      -0.00658485
O        9.03896264      10.67593805      10.42276216       0.00910595       0.00576335      -0.00450557
C       10.38734315      10.57783896      10.84070875       0.01116899       0.00492078      -0.01014902
C        8.54968531      12.00237339      10.50704385       0.01323158       0.00782216      -0.00795794
C       10.88412930       9.18431959      10.54266654       0.00516249       0.00133336      -0.00461565
C        7.21683434      12.06706516       9.80560345       0.00948948       0.00955150      -0.00222281
H       10.98755708      11.32119757      10.29833859       0.01037657      -0.00016838      -0.01587382
H       10.45621535      10.79519084      11.92017599       0.01624287       0.00920528      -0.00996190
H        8.45641833      12.29589768      11.56655354       0.01741714       0.01161004      -0.00841540
H        9.26482299      12.68294117      10.02614038       0.01287115       0.00443193      -0.01242164
H       11.88382024       9.04761465      10.95769950       0.00714217       0.00048559      -0.01166402
H       10.21517928       8.44201841      10.98175212       0.00502625       0.00623454       0.00340015
H       10.93283836       9.01916573       9.46684718      -0.00254086      -0.00497990      -0.00473800
H        6.79095155      13.06793764       9.88323195       0.01353898       0.01101060      -0.00516526
H        7.34369818      11.83323636       8.75063242       0.00538066       0.00204056      -0.00193346
H        6.50791024      11.35813041      10.23759415       0.00833297       0.01447311       0.00412416
O        9.12044190       6.66872689       7.59737456      -0.00016123      -0.01440980       0.00946987
C        9.70362211       5.44060668       7.22861354       0.00639123      -0.01299542       0.00986668
C        9.41117820       7.70740341       6.66484276      -0.00527495      -0.01478487       0.00926013
C        9.31527600       4.40285810       8.25408131       0.01024301      -0.01569429       0.00891396
C        8.65133300       8.93726405       7.07061163      -0.01045063      -0.01694977       0.00607374
H        9.34953327       5.15348599       6.22631132       0.00821409      -0.01397645       0.00992888
H       10.79768708       5.54458425       7.16230199       0.00555187      -0.00734177       0.01121023
H       10.48915746       7.90611096       6.63128590      -0.00496262      -0.00883062       0.01080019
H        9.10624017       7.37772194       5.65800095      -0.00112027      -0.01690635       0.00895923
H        9.73140533       3.42831005       8.00359361       0.01461166      -0.01376174       0.00685360
H        9.68907572       4.69836853       9.23623116       0.00971943      -0.01579573       0.00910059
H        8.22903807       4.31754899       8.31455454       0.01088908      -0.02015290       0.00927482
H        8.76311462       9.71430781       6.31543577      -0.00784866      -0.01644915       0.00847282
H        7.59365393       8.69912656       7.17256647      -0.01122354      -0.01955857      -0.00071533
H        9.00810847       9.33486337       8.02133848      -0.01751393      -0.01771368       0.00903602
O        4.37658468       7.57363709       3.57281104      -0.00174886       0.00238770       0.00128666
C        5.62662734       7.24366453       4.14487833      -0.00220135       0.00540030       0.00388631
C        4.04592455       8.94929558       3.74402206      -0.00830215      -0.00009757       0.00108624
C        5.85966540       5.76943402       3.92952124       0.00401333       0.00899899       0.00004995
C        2.76285860       9.22747625       3.00640147      -0.00202531      -0.00129798      -0.00629419
H        6.42316926       7.84195674       3.67934241      -0.00364649       0.01147032       0.00703558
H        5.62390435       7.48120545       5.21933347      -0.00744872       0.00425044       0.00427806
H        3.93305112       9.18423300       4.80943360      -0.01491694      -0.00007959       0.00149351
H        4.86882636       9.57025432       3.35877977      -0.00763214       0.00601757       0.00866506
H        6.80159175       5.45539288       4.38065102       0.00262387       0.01013272       0.00261348
H        5.05195819       5.18769458       4.37507389       0.00388260       0.00359541      -0.00515404
H        5.89478308       5.53958200       2.86312129       0.00840070       0.01164964      -0.00054799
H        2.48960158      10.27136722       3.14303764      -0.01426444      -0.00723085       0.00084363
H        2.87336902       9.00857013       1.94281077       0.00814417       0.01118543      -0.00911087
H        1.95823600       8.60986761       3.40466282      -0.00105000      -0.00914209      -0.01159385
O       11.34990240       3.56420245       1.20307679       0.01492456      -0.01502766      -0.00354892
C       10.08408199       4.13652657       0.77671148       0.01617402      -0.01140848      -0.00588633
C       11.26846857       2.19234483       1.66924927       0.01206648      -0.01000033       0.01309526
C       10.15149073       5.63871381       0.84671459       0.02550733      -0.01194116      -0.01274726
C       12.32972743       1.92452116       2.70881407       0.01394284       0.00013890       0.01353484
H        9.85606127       3.78125348      -0.23444727       0.01399877      -0.01520728      -0.00422132
H        9.31468456       3.75399409       1.45099880       0.01483013      -0.00503943      -0.00386736
H       10.28034983       2.02137279       2.09737602       0.01227948       0.00053358       0.01914896
H       11.32333668       1.50753273       0.79335646       0.00355586      -0.01859223       0.02190375
H        9.18991386       6.05215728       0.53933722       0.02707402      -0.00529071      -0.00646165
H       10.34847109       5.97407679       1.86451295       0.03622068      -0.01058251      -0.01498646
H       10.91302451       6.04928164       0.18264196       0.02461277      -0.02016691      -0.01808424
H       12.24593964       0.90531960       3.09489561      -0.00219406       0.01154068       0.03987217
H       13.38412305       2.02640257       2.38915471       0.01343543      -0.03317201       0.00221446
H       12.21026188       2.58080581       3.56806705       0.03202044       0.02710342      -0.00707111
O        7.52584874       1.81082835       4.28415970      -0.00540711      -0.00183827      -0.00902834
C        6.30115277       2.29166969       3.77040798      -0.00964677      -0.00223240       0.00034052
C        8.32072911       2.83730081       4.84102142      -0.00393510      -0.00079513      -0.00998628
C        5.46627387       1.12204807       3.31257572      -0.00913113      -0.00388038       0.00127603
C        9.55812277       2.21672463       5.43407631      -0.00174659      -0.00102845      -0.01519746
H        5.76868074       2.85967411       4.54495866      -0.00607285      -0.00689292       0.00568682
H        6.49832207       2.98657786       2.93502510      -0.01594621       0.00112107       0.00195393
H        8.58100484       3.57259794       4.05661160      -0.00831261       0.00045276      -0.00950328
H        7.74437611       3.38428752       5.60463288      -0.00227109      -0.00377867      -0.00683415
H        4.52322747       1.48197153       2.89813705      -0.01394106      -0.00457528       0.00785924
H        5.99974146       0.54388600       2.55604249      -0.01305269       0.00167763      -0.00500552
H        5.22836518       0.46904174       4.15107242      -0.00289713      -0.00682743      -0.00061855
H       10.26321514       2.97906088       5.76547345      -0.00161891       0.00020897      -0.01455644
H        9.30899388       1.58277208       6.28429545       0.00223110      -0.00253712      -0.01557410
H       10.06075074       1.58153443       4.70719775      -0.00113709       0.00224306      -0.01717037
O        7.62955477       9.21441895       1.57750079       0.00443564      -0.00441241      -0.00190772
C        8.45668050      10.32385914       1.91255277       0.00620383      -0.00652837      -0.00088620
C        6.54779633       9.58607792       0.74712383       0.00326359       0.00106359       0.00107580
C        9.73379275       9.81519640       2.52834244       0.00651294      -0.01080649      -0.00289053
C        5.69935155       8.36279713       0.49273697      -0.00209457       0.00437725       0.00087310
H        8.66776395      10.89814409       0.99747648       0.00625886      -0.00430700       0.00169235
H        7.93114683      10.98851645       2.61130659       0.00822449      -0.00800917       0.00237954
H        5.95123366      10.37644787       1.22780846       0.00772831       0.00195971       0.00498402
H        6.93780324       9.99659266      -0.19613654       0.00222659       0.00167026       0.00158197
H       10.37403778      10.65284642       2.80143745       0.00665693      -0.01227523       0.00219926
H        9.52915623       9.26934318       3.44801884       0.00585987      -0.01636188      -0.00670636
H       10.25984249       9.16374617       1.82792381       0.00645106      -0.00635126      -0.00720298
H        4.92122907       8.58816142      -0.23943685      -0.00219239       0.00906817       0.00245683
H        6.32419701       7.56375336       0.09497666      -0.00599845       0.00257371      -0.00153152
H        5.22573728       8.01253400       1.41102385      -0.00166894       0.00489197       0.00095290
O        2.50465264       3.00483165      11.72907784       0.00022671      -0.00112942      -0.00146499
C        2.92653818       1.78475671      11.03669369      -0.00733453       0.00294182      -0.01376744
C        3.63082637       3.86599749      12.04183946      -0.00134414       0.00098805      -0.00962893
C        1.75572479       1.11523483      10.37782889      -0.01822063       0.00592576       0.00315583
C        3.16231817       5.27963964      12.25936410      -0.01148213      -0.00433040       0.01392172
H        3.65974221       2.07976275      10.28722356      -0.01831125       0.00720081      -0.02195822
H        3.42646950       1.14216109      11.76802474       0.00282139      -0.00037403      -0.02374962
H        4.14254518       3.45952396      12.92023646       0.01065537      -0.00291363      -0.01666296
H        4.31842868       3.82808386      11.19485480      -0.01138678       0.01662000      -0.01750714
H        2.11080345       0.25131341       9.81382171      -0.03177297       0.00704670      -0.00769064
H        1.00924201       0.73723382      11.09148049      -0.00636482       0.00380502       0.01545428
H        1.27478419       1.76247814       9.64563697      -0.02926743       0.00845438       0.01370640
H        4.02189078       5.90007118      12.51702645      -0.01450482       0.00462040       0.00808299
H        2.71215665       5.68312683      11.35206940      -0.03367911       0.00275359       0.02536188
H        2.45739005       5.38073940      13.09289238      -0.00345436      -0.03022824       0.02296703
