143
Lattice="12.94409753894688 0.0 0.0 0.0 12.94409753894688 0.0 0.0 0.0 12.94409753894688" Properties=species:S:1:pos:R:3:forces:R:3 energy=-206569.1875 stress="1.9893325315933907e-06 1.9078509922110243e-05 0.00016526986291864887 1.9078509922110243e-05 -0.00023029983276501298 3.3050916499632876e-05 0.00016526986291864887 3.3050916499632876e-05 4.647159221349284e-05" pbc="T T T"
Ca      11.05793174      13.70566559       2.70307530       0.00185666       0.00422892       0.03075808
Br       8.54552539      14.30804087       2.16457538       0.03861258       0.00207406      -0.01948873
Br       0.50200837      14.39660775       1.88399466       0.00852283      -0.01130302       0.00517851
C        5.34684267       3.82052031       4.98793461      -0.00127824       0.00679523       0.00837569
C        3.97571850       4.11877172       5.58003253      -0.00328444      -0.00007772      -0.00967270
C        6.29383596       5.01451927       5.01587113       0.00126179      -0.01036841      -0.00205231
C        3.03992833       2.91579475       5.56336521       0.00271169      -0.00439262       0.00317419
C        7.68497682       4.66921790       4.50366908       0.00015220       0.00968364       0.00519477
C        1.70496989       3.18906405       6.24292821       0.00183544       0.01099008       0.00957289
H        5.80310393       2.98987159       5.53981866      -0.00009951      -0.00128014       0.00171416
H        5.23658278       3.46888138       3.95681892      -0.00061069      -0.00268674      -0.00186151
H        3.51423802       4.94972304       5.03159072      -0.00060640      -0.00119826       0.00029655
H        4.09877144       4.46731993       6.61272714      -0.00089617       0.00284147       0.00384295
H        5.86467268       5.82765742       4.41942815       0.00060809       0.00159705      -0.00285980
H        6.35941535       5.39763777       6.04053588      -0.00194904       0.00120778       0.00348806
H        2.87190778       2.59982494       4.53001537      -0.00031722      -0.00056946       0.00094828
H        3.53721022       2.07771793       6.06087818      -0.00188711       0.00492123      -0.00056106
H        8.13273220       3.87297737       5.10269290       0.00129431      -0.00371328       0.00945374
H        8.35423534       5.52993430       4.53829409      -0.00185833      -0.00629896       0.00281285
H        7.65176420       4.30884062       3.47418419       0.00180054      -0.00602101       0.00202876
H        1.84848130       3.51303318       7.27654938      -0.00107106      -0.00037062      -0.00606017
H        1.15232568       3.97679728       5.72600777      -0.00071345      -0.00224370       0.00093590
H        1.07311281       2.29929150       6.26206042      -0.00356470      -0.00474732       0.00296178
C       10.06574515      10.17252650       4.56382742       0.00063868       0.00061628      -0.00094479
C        9.43939630       9.55476897       3.31737559      -0.00605623       0.00256096       0.00226170
C       10.75425212      11.49672374       4.24681899      -0.00995615       0.00544283      -0.00479564
C        8.48208125       8.40834349       3.61418532       0.00266889      -0.00200331       0.00146359
C       11.42661881      12.16398745       5.44463648      -0.00774688       0.00640643      -0.00658041
C        7.90958832       7.78864342       2.34684322       0.00224513      -0.00872065       0.00533548
H        9.28752919      10.36359872       5.31111508       0.00320470      -0.00641134       0.00608236
H       10.77543024       9.47599287       5.02350817       0.00525707       0.00537752      -0.00945812
H       10.23414008       9.20477035       2.64715375      -0.00745067       0.01052743      -0.00520849
H        8.89537595      10.33163586       2.76398721      -0.01307729       0.00193962       0.00729398
H       11.49399365      11.31679778       3.44387036      -0.01792790       0.00810669      -0.00876926
H        9.93477962      12.12356203       3.85360126      -0.01471411       0.00401935       0.00001870
H        8.99886630       7.64650110       4.20565919       0.01275349      -0.00467885      -0.00208510
H        7.66666008       8.78186024       4.24367207       0.00523037      -0.01459403       0.00796910
H       10.68629382      12.44659614       6.19518612       0.00510418      -0.00904243       0.00089379
H       12.01051398      13.06268168       5.19009700      -0.01939482       0.01823778      -0.00740704
H       12.13295047      11.47701843       5.91461860       0.01170750       0.01439835      -0.02525995
H        7.39149248       8.54309216       1.75134434      -0.00257848      -0.00562416       0.00467920
H        8.70025063       7.36350066       1.72488259       0.00245988      -0.00208808       0.00161202
H        7.19873879       6.99214262       2.56943545       0.00645801      -0.00747006       0.00343565
C        1.53379724       8.14865380       9.86391884      -0.00071578      -0.00469798       0.00477135
C        1.64812158       9.56894840      10.40033213      -0.00643456       0.00181961       0.00397992
C        1.98712206       7.99292987       8.41879339       0.01018061       0.00041834       0.00023425
C        1.26267938       9.67775476      11.87081633      -0.00551957      -0.00062433       0.00494364
C        1.92294112       6.55188864       7.93491634      -0.01172027      -0.00150371      -0.00174779
C        1.39608151      11.08691192      12.42718183       0.01463088       0.00017753       0.00097160
H        2.12771295       7.48106537      10.49633032      -0.00478850      -0.00070344      -0.00204015
H        0.49751658       7.80531407       9.95729151      -0.00252846       0.00001582      -0.00050936
H        1.02030822      10.24200518       9.80478133       0.00132275      -0.00183193       0.00690201
H        2.67847938       9.92451908      10.27258167       0.00223660      -0.00131489       0.00209524
H        1.37552518       8.63371659       7.77292374      -0.00229621      -0.00124145      -0.00262734
H        3.01369447       8.36259885       8.32298381      -0.00666127      -0.00340573       0.00113799
H        0.23346090       9.32362986      11.99925886       0.00346288       0.00301677       0.00495452
H        1.88994405       8.98946701      12.44853927       0.00056580      -0.00386667       0.00524940
H        2.56243286       5.91161547       8.54697066       0.00323081      -0.00440512       0.00217569
H        2.25018019       6.45146055       6.89962940       0.00139164      -0.00073344      -0.00036278
H        0.90639587       6.15742395       8.00129085       0.00589873      -0.00136114      -0.00181491
H        2.41265350      11.46637025      12.29839870      -0.00033358      -0.00612065       0.00849201
H        0.72558619      11.78294078      11.91954929       0.00708158       0.00394283      -0.00327893
H        1.16550974      11.13016901      13.49287380       0.00660057       0.00121257      -0.00395057
C       10.96328737       9.37644234       9.05750528      -0.00381464       0.00038332       0.00209478
C       10.00280959       8.25411542       8.68578329      -0.00159925       0.00096325      -0.00562172
C       10.34511746      10.76253984       8.92551873      -0.00209898       0.00056785      -0.00474980
C       10.57924016       6.85990930       8.89926736      -0.00220317       0.00102763      -0.00407225
C       11.29523055      11.88457111       9.31879028      -0.00111002       0.00217432      -0.00782965
C        9.58956398       5.75076992       8.56905750      -0.00086281      -0.00045812      -0.00474907
H       11.30727257       9.23399831      10.08889026      -0.00312523       0.00081939      -0.00499102
H       11.86209066       9.31321211       8.43135526      -0.00070018       0.00065939      -0.00406860
H        9.69714163       8.36579922       7.63816335      -0.00199452       0.00071837      -0.00228897
H        9.08667830       8.35813156       9.27811702      -0.00303128       0.00081736      -0.00297010
H       10.00162979      10.90407305       7.89525429      -0.00341891      -0.00009262      -0.00183937
H        9.44704309      10.80960470       9.54939245      -0.00196072       0.00124783      -0.00165713
H       11.48129095       6.74541251       8.28888215      -0.00223464       0.00125161      -0.00292207
H       10.90576162       6.76445746       9.94045437      -0.00297016       0.00014527      -0.00313234
H       11.61720898      11.77398379      10.35625142       0.00025759       0.00189732      -0.00430951
H       10.82771239      12.86593997       9.22041120      -0.00096300       0.00019003      -0.00577599
H       12.19409602      11.87915670       8.69765206      -0.00303394      -0.00044221      -0.00565091
H        8.68983644       5.83618863       9.18310909      -0.00296704       0.00057136      -0.00503375
H        9.27770968       5.79744771       7.52317590      -0.00162179       0.00178089      -0.00534290
H       10.01735797       4.76253911       8.74413025      -0.00254884       0.00187606      -0.00559717
C        5.41234517       4.65165911      10.28423067       0.00303957      -0.00340125       0.00300398
C        6.48843477       3.59472733      10.06925630       0.00055096      -0.00218429      -0.00014776
C        5.34775170       5.16549963      11.71865773      -0.00063857      -0.00188626      -0.00302038
C        6.58633264       3.10895072       8.62784736      -0.00077924      -0.00202233      -0.00197583
C        4.21645379       6.15880314      11.94057590       0.00469682      -0.00190747       0.00817903
C        7.66740277       2.05483131       8.43163318       0.00240508      -0.00208881       0.00707186
H        5.58777417       5.49575839       9.60558445      -0.00021248      -0.00227866      -0.00022741
H        4.43688248       4.23722538      10.00193176      -0.00026506      -0.00375538       0.00148727
H        6.29047183       2.73977333      10.72624440       0.00203371      -0.00231913       0.00044359
H        7.45960287       3.99528298      10.38239606       0.00145328      -0.00157617      -0.00049291
H        5.23007008       4.31663256      12.39991179       0.00259268      -0.00278276       0.00177777
H        6.30527887       5.63005552      11.97614954       0.00307861      -0.00117689       0.00001514
H        5.61643175       2.70679148       8.31505170       0.00078771      -0.00212716       0.00115393
H        6.78414055       3.96316268       7.97170229      -0.00056753      -0.00263274       0.00039931
H        4.30513727       7.00935285      11.26088757       0.00088976      -0.00141515      -0.00094920
H        4.20844101       6.54861124      12.96016017       0.00226428      -0.00325210      -0.00279266
H        3.24604800       5.69368210      11.75419716      -0.00033136      -0.00395247       0.00153137
H        8.64893296       2.44865876       8.70431069      -0.00149909      -0.00267652      -0.00222439
H        7.47882476       1.18025668       9.05834876       0.00137141      -0.00018933      -0.00220792
H        7.71971008       1.71821468       7.39497120      -0.00017915      -0.00337382      -0.00495684
C        5.39534211      11.27796656       8.66049384      -0.01672453      -0.00268120       0.00895511
C        5.83089941      10.01922146       9.40041119       0.01244844       0.00414902      -0.00412077
C        4.68420740      11.00784925       7.33954911       0.00627348      -0.00128669      -0.00203143
C        6.53538318      10.31930756      10.71836976      -0.00719044      -0.00098050       0.00272274
C        4.22552938      12.28454545       6.64952453       0.00648525       0.00023198      -0.00409065
C        6.91647592       9.06851147      11.49865013      -0.00125683       0.00495279       0.00703415
H        4.73446886      11.86578570       9.30949335       0.00210357      -0.00265248      -0.00380483
H        6.27244756      11.90898437       8.47375406       0.00521827       0.00390272       0.00033477
H        6.49598371       9.42823911       8.75824637      -0.00443804       0.00233491       0.00625606
H        4.95584199       9.38674305       9.59214760      -0.00732097      -0.00298204       0.00351084
H        5.35232699      10.44617017       6.67721384      -0.00091350      -0.00043641       0.00309826
H        3.82019799      10.36052216       7.52058154      -0.00158265      -0.00138567       0.00077437
H        7.42937094      10.91708790      10.51427384      -0.00104815       0.00365378       0.00164507
H        5.88796991      10.95271709      11.33396641      -0.00228065       0.00045754       0.00223774
H        3.53130308      12.83894796       7.28506388      -0.00100195      -0.00004852      -0.00235286
H        3.71877547      12.07865864       5.70569590       0.00452682      -0.00192190      -0.00271960
H        5.07087505      12.94231477       6.43453441       0.00010458      -0.00349206       0.00155171
H        6.02920673       8.53688195      11.84825253       0.00010057       0.00063236       0.00085100
H        7.48880141       8.37493394      10.87816063       0.00245938       0.00142607       0.00138931
H        7.52378051       9.30729756      12.37275735      -0.00347322       0.00212367       0.00162286
C        3.59390260       9.80059296       3.15238901      -0.00219741       0.00407028      -0.00269747
C        2.52404009       8.71862619       3.23543023       0.00276946       0.00100383       0.00115564
C        4.40523057       9.75751353       1.86230340       0.00549342      -0.00005782       0.00443226
C        1.75618175       8.73045986       4.55271911      -0.00496037       0.00621408      -0.00448078
C        5.43938652      10.87150400       1.77643288       0.00050965       0.00408173      -0.00296499
C        0.64658830       7.68838844       4.60694171       0.00247985      -0.00167733       0.00150374
H        3.12073949      10.78485752       3.24743283       0.00128825       0.00169700      -0.00111667
H        4.27290490       9.70684405       4.00881468       0.00034259       0.00225419       0.00117406
H        2.98750031       7.73396843       3.09860730      -0.00074928       0.00388113      -0.00027443
H        1.82077078       8.83948619       2.40257542      -0.00035480       0.00313272      -0.00262862
H        4.90076204       8.78321406       1.78510374       0.00038204       0.00403854       0.00084706
H        3.72321331       9.82050172       1.00793833       0.00122771       0.00549117      -0.00269330
H        2.45792211       8.56737373       5.37768319      -0.00006360       0.00406460       0.00050023
H        1.33430882       9.72999907       4.71136502      -0.00252900       0.00020412      -0.00277016
H        4.96364546      11.85345671       1.79714449       0.00363877       0.00203824       0.00398799
H        6.02707389      10.80798626       0.85933461       0.00028954      -0.00087776       0.00678927
H        6.13454264      10.83123307       2.61752098       0.00527576      -0.00298723       0.00856325
H       -0.09704802       7.86754688       3.82658928      -0.00034744      -0.00102673      -0.00412357
H        1.04441275       6.68277054       4.45228481       0.00190765       0.00294003       0.00025740
H        0.13099465       7.69327225       5.56954716      -0.00053129       0.00155647      -0.00217819
