145
Lattice="12.254921051846685 0.0 0.0 0.0 12.254921051846685 0.0 0.0 0.0 12.254921051846685" Properties=species:S:1:pos:R:3:forces:R:3 energy=-290222.9375 stress="0.00016558525385335088 -0.0002844164555426687 4.5365151891019195e-05 -0.0002844164555426687 -4.1321265598526224e-05 0.0004955638141836971 4.5365151891019195e-05 0.0004955638141836971 -0.001386752468533814" pbc="T T T"
Cd      11.80623286      11.96573287      -2.44518447      -0.02516286      -0.00559899      -0.01749820
S        4.99476773      11.31507682       4.57586127      -0.00425959       0.00099848       0.00327738
O        5.45219308      11.80243856       3.30074549       0.00162768       0.00470734       0.00729895
O        5.37048089      12.24551472       5.68426959      -0.00865142      -0.00397742       0.00794196
O        5.34938702       9.93976130       4.91303997      -0.00588065      -0.00093830       0.00044334
C        3.21856139      11.36676819       4.61136754      -0.00417650       0.00055220      -0.00443427
H        2.84423254      10.62442461       3.91090761      -0.00090091       0.00345275      -0.00920704
H        2.90340753      11.12424303       5.62324958      -0.00843774      -0.00337239      -0.00680591
H        2.89080322      12.36692854       4.34054674      -0.00289104       0.00165282      -0.00180847
S        8.91600993      10.92095521      11.31955148       0.01219440       0.00068069       0.00108290
O       10.29058537      11.41436942      11.57232301       0.01194870       0.00248122      -0.00124735
O        7.90885942      11.96551798      11.53890275       0.01228058      -0.00109613       0.00365031
O        8.64230405       9.68829740      12.03042333       0.01925221      -0.00052595       0.00229144
C        8.85118619      10.54525994       9.58287297       0.00860127      -0.00115703       0.00222957
H        9.60503420       9.78793538       9.37315032       0.01193534       0.00259829       0.00101436
H        7.85505848      10.17716259       9.34623207       0.00963932      -0.00605616       0.00534435
H        9.05332849      11.46234127       9.03377104       0.00252613      -0.00037996       0.00135287
O       11.74963717       7.40106168      -1.49692169       0.00658037       0.00024843      -0.00481123
O       11.36723144       6.08752976       0.25677953      -0.00135189      -0.01515961      -0.01116106
C       11.60919857       8.46286813       0.60049357      -0.00215958      -0.01114780      -0.00025827
C       11.56497409       7.20292279      -0.17782796       0.00325763       0.00206923      -0.00893605
H       11.51979111       8.24287494       1.65858487       0.00048202      -0.01611527      -0.00096762
H       12.52730621       9.00444232       0.37417242      -0.00570697      -0.00394510       0.00105213
H       10.76852009       9.09161177       0.29600417      -0.00660297      -0.01402736       0.00527306
H       11.71848169       6.52867745      -1.91675321       0.00722854       0.00364727      -0.00966033
O       10.91338486       3.72204362       1.42073994       0.00187738       0.00118071       0.00352114
O       13.11434876       3.30199402       1.34991044       0.00468075       0.00390911      -0.01684213
C       11.58738059       1.50549317       1.79441124       0.00641552       0.00020772      -0.00728929
C       11.96464250       2.92159164       1.49825432      -0.00193918      -0.00132394      -0.00643270
H       11.02511264       1.47511100       2.72907929       0.00807169      -0.00223893      -0.00630794
H       10.93624587       1.11211944       1.01074990       0.00489524      -0.00014117      -0.00635444
H       12.47824564       0.89202671       1.87457893       0.00696132       0.00085458      -0.00798722
H       11.17539781       4.62915001       1.13845775      -0.00199708      -0.00146839      -0.00348341
O        9.09587625       3.74758373       3.82695456      -0.00662100       0.00263298      -0.00435340
O        7.96718343       4.75488228       2.17169069      -0.00360742       0.00649440      -0.01054811
C        7.76164643       2.38576222       2.44586699      -0.00144738       0.00169945      -0.00747910
C        8.27569858       3.74654752       2.77803154      -0.00188280      -0.00503469      -0.00306395
H        8.59652587       1.73665728       2.18085282      -0.00019786       0.00188772      -0.00535319
H        7.28699919       1.94483606       3.32311966      -0.00334743       0.00068206      -0.00862589
H        7.06629492       2.42712826       1.61397415       0.00037551       0.00016769      -0.00918373
H        9.39874331       4.65280585       4.05249510      -0.00620832       0.00133947      -0.00376952
O        6.03869240       7.30770257       4.88265677      -0.00343189       0.00277436      -0.00052950
O        4.71800583       6.31003851       3.35533471      -0.01965392       0.00184906      -0.00316644
C        5.85902280       4.97294342       4.98776626       0.00075558       0.00347507       0.00110334
C        5.46774292       6.24330956       4.29712195       0.00651711      -0.00034064       0.01802468
H        6.92588445       4.96242998       5.20341486       0.00206970       0.00582519      -0.00078049
H        5.33798408       4.91094054       5.94573522       0.00385698       0.00055536       0.00304200
H        5.58026476       4.11868401       4.37810051       0.00226615       0.00188536       0.00246917
H        5.69622693       8.14964090       4.51580290      -0.00504050       0.00187775       0.00332792
O        8.79917443       2.12096063      11.30985832       0.01426667       0.00030314       0.00865978
O        9.87356368       1.29792614       9.52865536       0.00176677       0.00773668      -0.00154710
C       10.54153152       3.41615491      10.38778437       0.00099605       0.00907689      -0.00258719
C        9.69681554       2.18396469      10.35866792       0.00612497       0.00607157       0.00223875
H       10.09922102       4.19427957      11.00148234      -0.00246445       0.00847363      -0.00455065
H       11.50784674       3.14278004      10.82354205       0.00285277       0.01651114      -0.00238958
H       10.73643853       3.74122401       9.36857178      -0.00216113       0.00697095      -0.00371516
H        8.37118018       1.20060945      11.32741676       0.01447112       0.00060233       0.00712109
O       10.73589896       7.84960767       5.34427032      -0.00230100      -0.00137150      -0.00604415
O       10.08408874       5.70368770       5.41548708      -0.00425488      -0.00082314      -0.00522137
C       11.06733309       6.69094403       7.36106077       0.00271508      -0.00318559      -0.00794303
C       10.57620878       6.68421622       5.94153226      -0.00178456      -0.00177455      -0.00600207
H       12.13279078       6.92784507       7.37969359       0.00443149      -0.01032856      -0.01231415
H       10.55126961       7.46802590       7.92513457       0.00955526       0.00057650      -0.00697917
H       10.90667730       5.71278422       7.80317979      -0.00135797      -0.00172447      -0.00640900
H       10.31049313       7.82286409       4.42782546      -0.00418153      -0.00065595      -0.00493574
O        1.54971076       5.55317139       2.59629094      -0.00685701      -0.00056392      -0.00581559
O        2.26201799       6.71105574       0.82495958      -0.00533479       0.00958070       0.01104963
C        2.22359082       7.77871853       2.97591504      -0.01055755      -0.00185001       0.00841373
C        2.03253024       6.64322612       2.02185454      -0.00470477       0.00353700      -0.00936931
H        2.08113491       7.45605526       4.00269864      -0.00759943      -0.00874677       0.00567968
H        3.23080648       8.16781738       2.84037878      -0.01312572       0.00401233       0.00873550
H        1.50674489       8.56239064       2.72223164      -0.01487663      -0.00416796       0.01367348
H        1.39050852       4.83582000       1.93323272      -0.00347242       0.00314291      -0.01145974
O        5.47404728      11.20913387       8.02569807       0.00763959      -0.00926217       0.00481844
O        4.14219495      12.83350262       8.78984474       0.00898564      -0.00959957       0.00942403
C        4.76224286      11.05933108      10.26326813       0.02280296      -0.00817841       0.00884259
C        4.76296158      11.79310941       8.96706871       0.01277381      -0.01042575       0.00863022
H        5.33457687      10.13784715      10.22150875       0.02966112      -0.00366233       0.00719260
H        5.16314121      11.72042017      11.03306281       0.01587366      -0.00445542       0.00874428
H        3.72669347      10.83141817      10.51124259       0.02841637      -0.02251852       0.01421368
H        5.39554858      11.69228761       7.14142969       0.00176255      -0.01002784       0.00519556
O        2.60496361       9.28099570       0.12711537      -0.00633121       0.01110011       0.00969249
O        4.50206118       9.41142494       1.32264709       0.00332117       0.00071144       0.02875108
C        3.24829983      11.41761060       0.89992037      -0.00313129       0.01222718       0.00136054
C        3.55742510       9.95169041       0.80764788      -0.03049302       0.02630687      -0.00084719
H        2.65682963      11.75896113       0.05347029       0.00570726       0.01390082      -0.00685400
H        2.65144343      11.56084112       1.80337058      -0.01283392       0.01740150      -0.00558396
H        4.16276014      11.99113087       1.01489969      -0.00312033       0.01063163       0.00955600
H        2.72904594       8.30671392       0.26678853      -0.00968510       0.01285830       0.01035760
O        3.49494244       2.42588604      10.59581085       0.00742424      -0.00199053      -0.00251800
O        5.30269537       1.83323957      11.78819056       0.00082326       0.00427663      -0.00049812
C        4.22728646       3.94174713      12.23605175       0.00041039      -0.00123632      -0.00115263
C        4.42126453       2.62818912      11.54481541       0.01077151      -0.00615454      -0.00048786
H        4.42390764       4.75626231      11.53430033      -0.00387608       0.00103202       0.00073517
H        3.19193154       4.04794335      12.55679310      -0.00039434      -0.00970801      -0.00263405
H        4.89908040       4.03506647      13.08304412      -0.00090507       0.00047906      -0.00039352
H        3.73172761       1.63142709      10.04429098       0.01123160      -0.00359121      -0.00018653
O        2.40157750       8.96892936       7.06515152      -0.00753921       0.00238806      -0.00164554
O        2.65922717       6.83687563       6.44221318      -0.01500469      -0.00477695       0.00665098
C        4.44512505       7.93988052       7.63677617      -0.00916487       0.00028270       0.00083947
C        3.11782702       7.81832592       6.97965758      -0.00703219       0.00521302       0.00634620
H        4.92015880       8.87861610       7.35791479      -0.00842946       0.00022969       0.00086585
H        4.30908168       7.92821269       8.72037663      -0.00654135      -0.00036624       0.00124806
H        5.06594868       7.09508095       7.36540674      -0.00957692       0.00014821       0.00024151
H        1.55816985       8.80289119       6.61934770      -0.00844926       0.00246650       0.00183207
O        6.80907673       5.22243052       9.34837402       0.00296500       0.00659776       0.00834864
O        5.62441837       6.79268960      10.44287742       0.00285792       0.01460528      -0.00126678
C        8.02023893       6.91932191      10.42322194       0.00572407       0.00048649       0.01616377
C        6.68374470       6.32596054      10.09757330       0.00627840       0.00718069       0.00592290
H        8.69733285       6.14348849      10.77848483      -0.00300401      -0.00347738       0.02451767
H        8.44701257       7.32355175       9.50238729       0.01596492      -0.00483939       0.01844366
H        7.92439163       7.71372758      11.15536046       0.00616823       0.00338803       0.01330118
H        5.91529832       4.91738296       9.06398789       0.00306186       0.01083848       0.00317756
O        7.63509182       7.37679836       2.03539380      -0.00786132       0.00032139      -0.00103605
O        9.57504730       7.67487699       3.06930053      -0.00721192       0.00170916      -0.00460005
C        8.09000836       9.55322040       2.81094700      -0.00724405       0.00071168       0.00011808
C        8.51174250       8.13459352       2.64831940      -0.00541717       0.00094324      -0.00097750
H        7.31676894       9.82293305       2.10004503      -0.01034443       0.00071466       0.00381660
H        7.68171190       9.66565533       3.81894215      -0.00296733       0.00026318       0.00180408
H        8.95125766      10.20969298       2.71194944      -0.00800958       0.00126051      -0.00326898
H        7.91196815       6.42660253       2.09222983      -0.00629725       0.00151711      -0.00261203
O        7.45995998       1.54531576       5.92652773      -0.01586957       0.00279671      -0.00280583
O        6.11296591       2.65322933       7.33905090      -0.01227951       0.00558409      -0.00105876
C        8.44992160       3.21129483       7.25000385      -0.01051712      -0.00108790      -0.00255528
C        7.21663708       2.45621401       6.86569817      -0.01163995       0.00255379      -0.00322007
H        9.26454309       2.51900997       7.45126932      -0.01555850      -0.00474404       0.00484520
H        8.77119114       3.83719342       6.41657298      -0.00344981      -0.00850354      -0.00519446
H        8.24813281       3.83560990       8.11399231      -0.00968570       0.00478207      -0.00674038
H        6.63377711       1.01626312       5.75298071      -0.01576838       0.00111169       0.00034462
O        3.11585450       3.12587815       7.75145941       0.02375755       0.00612766      -0.00785965
O        4.33624084       4.82969931       8.53226488       0.00704992       0.01353139       0.00384523
C        1.99865552       4.81873002       8.97816898       0.00640690      -0.00985435      -0.00124788
C        3.26704010       4.27410830       8.40637615       0.01043165       0.00323628      -0.00186294
H        1.20839311       4.83569427       8.23190980       0.00679885      -0.01319084      -0.00170575
H        1.68115809       4.15431575       9.78270603       0.01143973      -0.01559661      -0.00404081
H        2.19381477       5.80958283       9.37735643      -0.00212439      -0.01002519       0.00299495
H        4.00216212       2.75713047       7.55192911       0.02814713       0.01687899      -0.00974628
O        0.47321579       1.72378622       6.04096523       0.00543183      -0.00752658       0.00390908
O       -0.30400844       3.41462591       7.28221933       0.00355834      -0.00515825      -0.00507700
C        0.90361915       3.90956682       5.26429255      -0.00351000      -0.00907069      -0.00670522
C        0.29762035       3.03093295       6.30804847      -0.00026304      -0.00669824       0.00137162
H        1.88675749       3.54914224       4.97226791      -0.01078667      -0.01586374      -0.02053056
H        0.26708292       3.90252657       4.37901490      -0.01554905      -0.00016293       0.00223459
H        0.97993876       4.93031381       5.62516781       0.00899493      -0.01075666      -0.00483592
H        0.11294102       1.22286597       6.79448105       0.00833844      -0.00603089       0.00736851
