131
Lattice="12.497356382221842 0.0 0.0 0.0 12.497356382221842 0.0 0.0 0.0 12.497356382221842" Properties=species:S:1:pos:R:3:forces:R:3 energy=-207274.3125 stress="-0.000405287544708699 9.51675174292177e-05 -0.0005664467171300203 9.51675174292177e-05 0.0003776747325900942 0.00014857145288260654 -0.0005664467171300203 0.00014857145288260654 -9.922413300955668e-05" pbc="T T T"
Cd      13.20990490      12.11835181       0.96627733       0.04017456       0.01895398       0.00865033
O        4.41679090      10.50423096       5.58134891      -0.01853043       0.01797032       0.00853154
O        4.61738695      12.34450704       6.82240752      -0.00300241       0.03548956      -0.02122760
O        5.45104782      12.32232475       4.76010238      -0.01243007       0.00021696      -0.02364755
C        4.84768980      11.80995140       5.73133309      -0.01146269       0.01774335      -0.01107571
H        4.65885233      10.25895733       4.68064750      -0.02865454       0.00456539       0.00933906
O        7.53331689      10.86132426      11.71072698       0.00310230       0.03285277      -0.03527278
O        5.53361592      10.59625773      10.77304239      -0.00559020       0.03810620      -0.01844656
O        6.19470568      12.64590141      11.39381113      -0.00286210       0.02821064      -0.00917266
C        6.32826666      11.40969352      11.25640139      -0.00373864       0.04003102      -0.01956195
H        8.01175267      11.60338128      12.09686620       0.00114983       0.03076950      -0.02707617
C        4.41705814       5.40784728       9.87116326      -0.00314194      -0.00588761      -0.00544223
C        3.37267293       4.32411134      10.12686684      -0.00134867      -0.00654652       0.00148233
C        3.83319933       6.79973193       9.64436971      -0.00376678      -0.00512111      -0.00276965
C        3.97041650       2.93847035      10.35886675      -0.00032961      -0.00722924      -0.00404850
C        4.88721775       7.86576189       9.38224969      -0.00494817      -0.00379390      -0.00294580
C        2.93783740       1.84761969      10.60329658       0.00102448      -0.00798333      -0.00035707
H        5.11749905       5.44720921      10.71366818       0.00303423      -0.00620004      -0.01036522
H        5.01825162       5.12366396       8.99993091      -0.00885935      -0.00616169      -0.00910100
H        2.68686831       4.28336140       9.27144158      -0.00770131      -0.00633947       0.00672695
H        2.75909609       4.61086725      10.99146599       0.00512014      -0.00740573       0.00646061
H        3.13044525       6.75718997       8.80431224      -0.00442788      -0.00315904      -0.00225985
H        3.23808739       7.08648542      10.51817357      -0.00347592      -0.00694823      -0.00178513
H        4.58172663       2.65758453       9.49993959      -0.00547257      -0.00649998      -0.00797579
H        4.65541281       2.97353696      11.21039857       0.00416407      -0.00966156      -0.00762695
H        5.56770301       7.98242148      10.22645164      -0.00589530      -0.00381156      -0.00207463
H        4.45528766       8.85160865       9.22173143      -0.00619307      -0.00486171      -0.00715817
H        5.48044333       7.61167025       8.50191398      -0.00264753      -0.00229952      -0.00186981
H        2.31710369       2.08346972      11.47411997       0.00116794      -0.00727415      -0.00019783
H        2.27596172       1.73413215       9.74156378       0.00055017      -0.01193713       0.00049737
H        3.42759483       0.88861883      10.78285841       0.00324892      -0.00642514       0.00277702
C        5.62360514       3.36956926       1.85165603      -0.00742269      -0.00967133      -0.00259453
C        5.15006404       4.71493243       1.31522887      -0.00587401      -0.00848857      -0.00246841
C        6.74957573       2.74474100       1.03411476      -0.00254607      -0.00904362       0.00292647
C        4.05744046       5.36885122       2.15333408      -0.00657541      -0.00655954      -0.00411361
C        7.23502851       1.42660016       1.61829542       0.00242773      -0.00333983       0.01210752
C        3.60482942       6.71207895       1.59485839      -0.00554201      -0.00709224      -0.00641508
H        5.95547006       3.49122941       2.88877660      -0.01243183      -0.01144233      -0.00090733
H        4.78191713       2.67022307       1.89332770      -0.00738609      -0.01006171      -0.00801751
H        4.78618004       4.59199384       0.29011126      -0.00406806      -0.00676984      -0.00337374
H        6.00331922       5.40058155       1.24846117      -0.00508070      -0.00902236       0.00010290
H        6.41128564       2.56308034       0.01076157      -0.00005540      -0.01807977       0.00386027
H        7.58068421       3.45717307       0.96631513      -0.00498885      -0.00654420       0.00070934
H        3.20322572       4.68748133       2.22069301      -0.00764698      -0.00517347      -0.00394909
H        4.41810941       5.49889236       3.17880492      -0.00724205      -0.00427820      -0.00415990
H        7.55581170       1.53668801       2.65616206      -0.00499276       0.00230648       0.01363376
H        8.06596781       1.03181007       1.03150956       0.01051950       0.00006660       0.02082662
H        6.43979862       0.68348876       1.59004747       0.00683451      -0.00791785       0.00988384
H        4.44035861       7.40927673       1.51334760      -0.00395736      -0.00945240      -0.01051455
H        3.18284661       6.59828806       0.59469743      -0.00925031      -0.00961895      -0.00453229
H        2.84778930       7.17801489       2.22790469      -0.00273769      -0.00299040      -0.00594850
C        7.46882752       6.48483754       3.88437953       0.00002402       0.00366459       0.00148046
C        7.43436282       7.65526991       2.91070271       0.00132230       0.00473350       0.00222361
C        8.42037502       5.36690834       3.47795636      -0.00254750       0.00186300      -0.00110021
C        6.46686603       8.75885950       3.32129054      -0.00017175       0.00532650      -0.00106364
C        8.43434101       4.21070125       4.46692543      -0.00303850       0.00112638      -0.00191832
C        6.43509462       9.92067324       2.33896294       0.00107709       0.00701284       0.00043553
H        7.74265426       6.85399347       4.87938454       0.00076856       0.00025895       0.00246030
H        6.45977162       6.07093672       3.98910759      -0.00097421       0.00563079      -0.00061667
H        7.16767766       7.29360084       1.91094237       0.00291644       0.00167079       0.00266612
H        8.44065295       8.08014915       2.81335113       0.00126368       0.00535801       0.00334246
H        8.14018238       4.99877070       2.48710250      -0.00652181       0.00288884      -0.00045422
H        9.43274468       5.77196710       3.37400020      -0.00165471      -0.00089079      -0.00235522
H        5.46552747       8.32423258       3.42836982      -0.00073245       0.00607912      -0.00413689
H        6.73871943       9.12106447       4.31832225      -0.00180031       0.00643948      -0.00099790
H        8.74389450       4.55116241       5.45723962       0.00181822      -0.00079602      -0.00273712
H        9.11725908       3.42046102       4.15285373      -0.00657007      -0.00128189      -0.00381114
H        7.44624043       3.76192371       4.57814133      -0.00486678       0.00591959      -0.00041081
H        7.43111338      10.35077198       2.21976539       0.00242749       0.00384012      -0.00047185
H        6.10716012       9.60955764       1.34621409      -0.00410652       0.00987703       0.00119066
H        5.78452109      10.72506706       2.68783649       0.00450648       0.00802200       0.00406156
C       11.40539511       1.14400958       6.64857941       0.00432545      -0.00658882       0.00286613
C       11.29790469       1.70080685       8.06367465       0.00807543      -0.00949073       0.00463741
C       11.58008129       2.23052520       5.59339916       0.00674191      -0.00498873       0.00488561
C       11.10157769       0.62571162       9.12705621       0.00916138      -0.01333261       0.00168058
C       11.62774357       1.69109788       4.16932618       0.00286478      -0.00306921       0.00430393
C       10.95835428       1.18749545      10.53660097       0.01026848      -0.01866660       0.00231966
H       12.24355506       0.44012929       6.59217370       0.00271973      -0.00815299       0.00246651
H       10.50289474       0.56515778       6.42144458       0.00308827      -0.00433497       0.00065523
H       10.45723612       2.40070764       8.10287003       0.01148027      -0.00443400       0.00509977
H       12.19577001       2.28671682       8.29467833       0.00981891      -0.01292892       0.00663836
H       10.75434770       2.94190901       5.68377837       0.00892922      -0.00252078       0.00715883
H       12.49189516       2.79908000       5.80468250       0.00954589      -0.00939572       0.00395677
H       10.21181583       0.03816594       8.87991134       0.00838801      -0.01077551      -0.00140529
H       11.94835995      -0.06727597       9.09282102       0.00955027      -0.01282631       0.00802339
H       12.46532202       1.00016104       4.03291431       0.00096305      -0.00481866       0.00182655
H       11.74137346       2.49386943       3.43681106       0.00329234      -0.00331202       0.00409834
H       10.71313134       1.14619155       3.92296046       0.00075552      -0.00039928       0.00707587
H       11.84268401       1.76189538      10.82724180       0.00888936      -0.01593406       0.00129186
H       10.09206506       1.84618593      10.61265072       0.00433248      -0.02671482      -0.00241343
H       10.81922740       0.39105249      11.27181681       0.02252571      -0.02213596       0.00128213
C        9.10388451       4.55697958       9.59383192      -0.01214138      -0.00331536       0.01376629
C        8.20129329       3.91359227       8.54658107      -0.01005192      -0.00134525       0.01098448
C        9.69139429       5.87803941       9.12185928      -0.00606748      -0.00472435       0.01483446
C        7.59636157       2.57984419       8.96692441      -0.01173762      -0.00266737       0.00398773
C       10.65317120       6.52521767      10.10768935      -0.00495577      -0.01037751       0.01768297
C        6.69907813       1.96001468       7.90747707      -0.00512999       0.00263411      -0.00443074
H        8.53883650       4.70729004      10.52028569      -0.01433583      -0.00145793       0.01223826
H        9.92251643       3.87422984       9.84274590      -0.01568520      -0.00628495       0.01830101
H        8.77360931       3.77316931       7.62043389      -0.00768492       0.00133429       0.01202103
H        7.39665897       4.61352445       8.29029256      -0.00959161      -0.00074416       0.01109679
H       10.21197459       5.70427698       8.17602806      -0.00535275      -0.00466314       0.01488629
H        8.87867386       6.57331564       8.89392682      -0.00249639      -0.00050354       0.01383857
H        8.40068200       1.87840715       9.21045870      -0.01273215      -0.00366852       0.00534261
H        7.03758878       2.70811103       9.89863969      -0.01834989      -0.00700813       0.00046766
H       10.16312571       6.73014190      11.06082159      -0.00491028      -0.01044748       0.01773266
H       11.03519005       7.47384672       9.72542729      -0.00024725      -0.01126528       0.02017280
H       11.50977305       5.87726616      10.30531149      -0.00819817      -0.01449944       0.01771401
H        5.89687241       2.63941469       7.61183006       0.00016861       0.00652048      -0.00977801
H        7.25409700       1.71150821       7.00002634       0.00267369       0.00297451       0.00026461
H        6.22525549       1.04479073       8.25647188      -0.01287518       0.00392407      -0.01190675
C        9.29818417       9.28211734       6.31307622       0.01180654       0.01331750      -0.00015652
C       10.01084075       7.95306862       6.49979267       0.01346629       0.01249731      -0.00373960
C        8.32758690       9.59672441       7.44702494       0.00483483       0.00365232      -0.00349796
C       10.99472796       7.58743228       5.39815769       0.01199953       0.01268500      -0.00618279
C        7.61222168      10.92316986       7.26009444       0.00639078       0.00591022       0.00689253
C       11.68099317       6.25117344       5.65407570       0.00986099       0.01010311      -0.01275732
H       10.03789536      10.08697938       6.23052042       0.00946018       0.01636615       0.00803801
H        8.75263870       9.27566189       5.36238628       0.01566160       0.01864652      -0.00251001
H        9.26317101       7.15753921       6.58646734       0.01302597       0.01282081      -0.00255420
H       10.53755018       7.96409551       7.45936408       0.01444682       0.01021763      -0.00400782
H        7.58700324       8.79353034       7.51714760       0.00452489       0.00282216      -0.01751787
H        8.86574571       9.58803807       8.40091718      -0.00100207      -0.00617044      -0.00029296
H       10.46622990       7.55474137       4.44058970       0.01138061       0.01598194      -0.00601280
H       11.74493534       8.37862661       5.30443759       0.01496288       0.00999126      -0.00579326
H        8.31888624      11.75624061       7.27818374       0.00624673       0.00536822       0.02560924
H        6.86286359      11.09499199       8.03140346       0.00045601      -0.00374584       0.00342727
H        7.10563241      10.95964637       6.29580201       0.01430331       0.01822567       0.00308412
H       12.23509092       6.27042132       6.59546026       0.01259407       0.00497548      -0.01433896
H       10.95056943       5.44274751       5.72598091       0.00852256       0.01103607      -0.01553155
H       12.38194546       5.98927403       4.86041604       0.00766325       0.01277300      -0.01567166
