147
Lattice="12.373287417033934 0.0 0.0 0.0 12.373287417033934 0.0 0.0 0.0 12.373287417033934" Properties=species:S:1:pos:R:3:forces:R:3 energy=-293870.78125 stress="-0.001743949600495398 -0.00011094506771769375 -5.2874784159939736e-05 -0.00011094506771769375 -0.0007985073025338352 -0.00034079035685863346 -5.2874784159939736e-05 -0.00034079035685863346 0.0001354529958916828" pbc="T T T"
Cd      11.91221103      12.36039131      -0.67662935      -0.00028733       0.02028155       0.00238807
O        7.11210080      10.85905486      11.38665330       0.01620746      -0.00106573      -0.00814724
N        5.30952791      12.36710015      10.91701525      -0.01849174      -0.00522089      -0.02989411
C        6.20761758      11.62164492      11.15699446       0.01422466      -0.01654232      -0.01534580
O        9.91359312      10.99325373       7.39344703       0.02294266      -0.03428888      -0.00901341
N       10.47613683      13.12323445       6.43781917      -0.00866795      -0.00915337       0.02255225
C       10.20868690      12.05089838       6.90173790       0.00386909      -0.03190798       0.01231909
O       10.29599974      10.82186699       1.28472395      -0.00499931      -0.00347781      -0.01458357
O        9.09823350       9.49941520       2.60340994      -0.00013036      -0.01163883      -0.01861894
O       11.32329321       9.20065504       2.46421838      -0.00305521      -0.02361017      -0.04373035
C        8.96542382      11.40057543       1.29016050      -0.00185604       0.00328064       0.00325699
C        8.12426086      10.26840934       1.84226939      -0.00274396       0.00181907      -0.00142410
C       10.32560162       9.78720515       2.15473918      -0.00324494      -0.01325622      -0.02720955
H        8.68961911      11.67573052       0.27591540      -0.00937757       0.01488122       0.00846350
H        8.98689861      12.28052564       1.93261220       0.00912163      -0.00365141       0.01241562
H        7.32526573      10.57634520       2.50975804       0.00492397      -0.00142159       0.00901842
H        7.72813913       9.64236848       1.04277153      -0.01329035       0.01285964      -0.00493681
O        1.46798901       9.56412831       4.66960240      -0.01524127      -0.00189801       0.01126307
O        1.28256008       7.88555050       6.11788245       0.01499392      -0.00773948       0.00758834
O        0.82446793       9.98395715       6.78870998       0.02169532      -0.01189184       0.02343082
C        1.76963888       8.39018491       3.89244111      -0.00555168       0.00506517       0.00472277
C        1.81345597       7.27397338       4.93574138      -0.00689528      -0.00391340      -0.00372568
C        1.16397150       9.23030896       5.93150705       0.00826050      -0.00770074       0.01529026
H        2.73097403       8.53952810       3.40986789      -0.00302494       0.01263193       0.01175097
H        0.97165169       8.27232829       3.16201336       0.00029159       0.00724100      -0.00191310
H        1.19093455       6.41556064       4.68452865      -0.01981628       0.00559539      -0.00380098
H        2.83349069       6.95415345       5.13310750      -0.00872308      -0.01752366      -0.01764943
O       11.77231524       0.86945924       2.31801564      -0.01281473      -0.00275270       0.02393192
O       11.15647501       2.99587919       2.41492707       0.01213798       0.00444952       0.01883304
O       10.86154071       1.83180572       0.51704778      -0.00270092       0.00320666       0.02237648
C       11.89570764       1.20284262       3.72642084       0.00570868       0.00223464       0.02065733
C       11.65554379       2.70778078       3.74405325       0.00918366       0.00322348       0.01926386
C       11.24381270       1.90372836       1.65746552      -0.00130476       0.00160866       0.02176511
H       12.87995619       0.90343568       4.07105527       0.01036784       0.00250375       0.00733897
H       11.14670559       0.65926735       4.30163722       0.01295301       0.00571093       0.03309968
H       10.90680564       3.01332659       4.46990298       0.00809386       0.00509795       0.01752827
H       12.55781194       3.29739534       3.89385040       0.01026496       0.00089346       0.02137723
O        7.28734373       1.89208500       2.73832383       0.01007833      -0.00509402       0.00953299
O        7.05587828       0.64077713       4.56100215      -0.00576642      -0.00730639       0.00563216
O        5.82884848       0.19264816       2.72015805       0.00060236       0.00369781      -0.00038874
C        8.36625292       2.25730046       3.61290630       0.00667101      -0.01069663       0.01616138
C        7.89585053       1.75632627       4.95621613      -0.00242069      -0.01254972       0.01256180
C        6.64542019       0.84554348       3.30162584       0.00116843      -0.00264353       0.00406456
H        8.54538885       3.32330746       3.55474346       0.00972540      -0.01103091       0.01992438
H        9.25174885       1.71872717       3.27821978       0.00689936      -0.01278117       0.01995237
H        8.70459934       1.38683216       5.59355107      -0.00723219      -0.01774041       0.01536897
H        7.26957807       2.47928725       5.47877138      -0.00175902      -0.01076204       0.01086900
O        2.82736607       2.42606387       4.99762002       0.00021496      -0.00049233      -0.00652505
O        4.95214180       2.78549772       4.45377413       0.00041412       0.00721183       0.00031760
O        4.38668949       2.60175902       6.61998219      -0.00774068       0.01569415      -0.00101507
C        2.88082606       2.31674150       3.56245755       0.00801367      -0.01042888      -0.00572448
C        4.22292062       2.93155881       3.21813117       0.00297028       0.00156054      -0.00221255
C        4.07738796       2.58813343       5.46717492      -0.00264211       0.00838664      -0.00205857
H        2.04345921       2.86182963       3.13996594       0.00408340      -0.02315676      -0.01386094
H        2.81341175       1.26343224       3.29720438       0.02146032      -0.01323444       0.00203521
H        4.75232838       2.40762587       2.42922066       0.01019537       0.00652939      -0.00051367
H        4.16456349       3.99298185       2.99528367      -0.00570042       0.00108355      -0.00206082
O        6.95162571       7.44053213       3.60373245      -0.00322506      -0.00781579       0.00204822
O        5.52369032       5.96078374       2.76871740       0.00624484      -0.01178512      -0.00626227
O        4.77674880       7.56095917       4.15811874      -0.00553858      -0.01906717      -0.00444126
C        7.73964170       6.61868430       2.71565787       0.00191820       0.00014022      -0.00091370
C        6.83130873       5.43087357       2.45227966       0.00984709      -0.00478029      -0.00336535
C        5.67220862       7.04659406       3.55414120      -0.00099170      -0.01355249      -0.00284535
H        8.66257627       6.36158757       3.22628860       0.00390771       0.00526880      -0.00236169
H        7.94144077       7.19229453       1.81418978      -0.00301977       0.00447246       0.00083631
H        6.84563157       5.09831338       1.41836318       0.01363757      -0.00455164      -0.00331324
H        7.01417987       4.60201622       3.13405535       0.01321624      -0.00371203      -0.00296775
O        8.77220007       1.38515010      10.79740979       0.00660374      -0.00998658       0.00883500
O        9.24534024       3.46530129      10.17369063      -0.02023110      -0.00840241      -0.00387636
O        8.12707662       3.10506494      12.09715943      -0.01421058      -0.01112598      -0.00098383
C        9.51148658       1.22697918       9.57819935      -0.00289887      -0.00899637       0.00265335
C        9.67402523       2.65286208       9.06175331      -0.00401802      -0.00840682       0.00302774
C        8.67199104       2.69287489      11.11910465      -0.00946376      -0.00992569       0.00057536
H        8.96739129       0.56253257       8.91553337      -0.00964889      -0.00600213       0.00507623
H       10.47519504       0.74725420       9.82446977      -0.00215739      -0.01195438      -0.00555980
H       10.70117500       2.91018114       8.80962477      -0.00211942      -0.00502828       0.01458313
H        9.03808927       2.87408893       8.20531553       0.00579551      -0.01296601      -0.00499058
O        9.34943585       6.89386627       5.90396897      -0.00137009       0.01716459       0.00168760
O       10.87596099       5.46498817       6.64281203      -0.00112212       0.01378253      -0.00675336
O        9.36380903       4.78949586       5.12217590      -0.00456971       0.01989317      -0.00599128
C       10.25351627       7.69779093       6.70460221       0.00071090       0.01358241       0.00327179
C       11.02992262       6.64442504       7.47667387      -0.00055546       0.01024365      -0.00110269
C        9.82086963       5.64146000       5.83719861      -0.00227663       0.01750427      -0.00379288
H        9.66666104       8.37393510       7.31719780       0.00310603       0.01298234       0.00572410
H       10.87403971       8.28141273       6.02636490       0.00087437       0.01483455       0.00478691
H       12.08923273       6.85839019       7.56831904      -0.00034052       0.00777152       0.00093877
H       10.57728263       6.41789025       8.43872917      -0.00165194       0.00540584      -0.00298786
O        2.85261457       4.09542982       0.83433323       0.00879577       0.00087786      -0.00977414
O        0.75205945       4.69515824       0.44953690       0.00526017      -0.00550026       0.00200977
O        1.31365210       2.51002289       0.46877695       0.00660691      -0.00434911       0.02176088
C        2.83205082       5.51859965       1.08464646       0.00870198       0.00335094      -0.02070817
C        1.48756762       5.94451508       0.51705900       0.00370014      -0.00352228      -0.01365760
C        1.60364292       3.67137015       0.56049026       0.00687625      -0.00311720       0.00617059
H        3.68072979       5.97268005       0.59469484       0.00422809       0.00052181      -0.03108302
H        2.90593046       5.67659645       2.16223815       0.01729885       0.01210816      -0.02277857
H        0.93652705       6.62078997       1.16650735       0.00745994       0.00063923      -0.01498252
H        1.57025575       6.34890874      -0.48743824      -0.00499633      -0.01139352      -0.01744747
O        5.18905328      10.16725795       6.76423603      -0.03447801      -0.02043211       0.00116172
O        3.73367167      11.84546440       6.84829068       0.00815538       0.01477003      -0.00129071
O        4.30778217      10.98741592       4.85229914      -0.02122021      -0.00776125      -0.00025725
C        5.17873345      10.58489991       8.14907865      -0.00895637       0.00115445      -0.00461906
C        3.94693040      11.47254175       8.22589802      -0.00600845       0.00119904      -0.00185622
C        4.40118714      10.99973256       6.04313525      -0.01662473      -0.00472582      -0.00018084
H        6.10001639      11.12538031       8.36282249      -0.00614816       0.00704622      -0.03144227
H        5.13126376       9.69958221       8.77737827       0.00337134       0.01229596       0.01162109
H        3.05859197      10.94493534       8.57565854      -0.01009828      -0.00246897      -0.01677042
H        4.11207105      12.36085300       8.82514569      -0.00966427      -0.00614011       0.00971350
O        3.69362410       9.96693123       1.82448397      -0.00375813      -0.00331178      -0.01528496
O        2.74920102      10.23132316      -0.16500358      -0.01751390       0.01186451      -0.00640830
O        3.49622419       8.20253790       0.45445292      -0.02017942       0.00568128      -0.02409250
C        3.10501955      11.28505721       1.86418596       0.00235183      -0.00092431      -0.00418234
C        2.82298025      11.55966023       0.39842824      -0.00316222       0.00868507      -0.00125456
C        3.33409499       9.36983458       0.67753879      -0.01427107       0.00463051      -0.01621485
H        3.83426918      11.94466462       2.31911081       0.00693727      -0.00699118      -0.00308788
H        2.20281449      11.22388677       2.47833701       0.00499678      -0.00067686      -0.00037938
H        1.85211399      12.04173845       0.21051465       0.00039971       0.01794335       0.00547945
H        3.62783157      12.09246506      -0.11733685      -0.00118369       0.00376219      -0.00248402
O        4.15014053       4.97780514      10.54965045       0.00263637       0.00924847      -0.02548888
O        3.08021362       3.26640469       9.62249167      -0.00759942      -0.00420225       0.01230372
O        2.01115731       5.21985640       9.90144945       0.00077581       0.00475824      -0.01967010
C        5.14005389       3.92906714      10.51688172      -0.00262767       0.00414410      -0.00335273
C        4.37328531       2.72367766       9.96886217      -0.00175512       0.00164872      -0.00073704
C        2.99278008       4.53943563      10.01042801      -0.00113785       0.00346836      -0.01174939
H        5.53187989       3.77973565      11.51924624      -0.01556544       0.01240318       0.00290173
H        5.95731874       4.25437216       9.87475958       0.00666574      -0.00637528       0.00360763
H        4.81214840       2.30901100       9.06582464      -0.00761470       0.00730357      -0.00608498
H        4.24544108       1.92415074      10.69316407       0.00850577      -0.00187159      -0.00281838
O        7.18197315       5.22986586       7.44605327       0.00218476       0.00327945       0.01240216
O        6.22651637       7.06138031       8.25755085       0.01530677       0.01993531      -0.01100712
O        8.30874058       6.51040725       8.90586883       0.00707078       0.00894572       0.00278449
C        6.03048232       5.45859667       6.60963448       0.00528166       0.00165159       0.00764382
C        5.21532695       6.44033631       7.43398621       0.01220787       0.02020553      -0.00755689
C        7.32208412       6.29163581       8.26518158       0.00839520       0.01069890       0.00164026
H        5.54352203       4.50451089       6.43636481      -0.00272533       0.00334933       0.02076516
H        6.38603657       5.90139077       5.67972427       0.01081187      -0.01546082       0.00175130
H        4.73909195       7.21762733       6.84193018       0.02283981       0.01796082      -0.01883265
H        4.49161854       5.95282032       8.08873126       0.00522193       0.03605229      -0.00366026
O        8.20676551       8.13238878      11.32437470      -0.00644988       0.00218457       0.00257197
O        9.42130515       6.31868324      11.73514235      -0.00383985       0.00372624       0.00107419
O        7.17345753       6.21212789      11.85331061      -0.00413573      -0.00082636      -0.00204216
C        9.53174531       8.49664751      10.92353134      -0.00668478       0.00555235       0.00492325
C       10.38034363       7.35918174      11.49187405      -0.00509787       0.00512782       0.00173935
C        8.17472416       6.82590864      11.63351752      -0.00358552       0.00202641       0.00009638
H        9.76459260       9.47374299      11.33999684      -0.00901005       0.00437877       0.00883728
H        9.55774601       8.54932900       9.83680330      -0.00584781       0.00975841       0.00538170
H       11.13164829       6.98030419      10.80153115      -0.00620893       0.00717004      -0.00058925
H       10.85550266       7.61893321      12.44013417      -0.00360839       0.00337824       0.00124967
