147
Lattice="12.332022049044056 0.0 0.0 0.0 12.332022049044056 0.0 0.0 0.0 12.332022049044056" Properties=species:S:1:pos:R:3:forces:R:3 energy=-227147.4375 stress="-0.000940836442168802 -0.0006399015546776354 -9.300135934608988e-05 -0.0006399015546776354 -0.0011129204649478197 -0.00019870171672664583 -9.300135934608988e-05 -0.00019870171672664583 -0.000958707882091403" pbc="T T T"
Cd      10.91192642      12.57776703       0.79855152      -0.01217571       0.00802870       0.00934991
F        2.86333013      11.74183473       3.68825627      -0.00096214      -0.00477141      -0.00479245
F        7.88529443      13.20501064      12.36126407      -0.01184982       0.00690764       0.00921132
O        9.24801590       7.65804415       0.81760627       0.00736219      -0.00485706      -0.00528005
C       10.46497894       7.05644482       1.25787514       0.00735995      -0.00037202      -0.00122248
C       11.59364794       8.04999907       1.44756770       0.00373837       0.00298691       0.00041347
H       10.29990723       6.48219909       2.17546515       0.00741889      -0.00085343      -0.00210938
H       10.72729511       6.34255544       0.47435384       0.01134202       0.00011972      -0.00107652
H       12.53237691       7.53096702       1.65021694       0.00516170       0.00683711       0.00240447
H       11.72706474       8.64939447       0.54589528       0.00358329       0.00324364       0.00037582
H       11.40687438       8.71874048       2.29022476      -0.00007457       0.00275560      -0.00024012
H        8.80900623       8.06192602       1.57029586      -0.00097585      -0.01259536      -0.00210682
O       12.04832973       1.71613149       1.52216568      -0.00155233       0.00141108       0.00369763
C       11.18629891       2.47035081       2.39320094       0.01069278       0.01041144       0.00769946
C       11.66004417       3.89839616       2.46079061       0.02318987       0.00620300       0.00010185
H       10.15087189       2.45322688       2.02266151       0.00825673       0.01786009       0.01435789
H       11.18365769       2.01755925       3.39399711       0.01396755       0.01323457       0.00871557
H       11.00654505       4.47715426       3.11479731       0.03633687       0.01289041       0.00645778
H       12.66655384       3.94809692       2.87253037       0.02801530      -0.00274878      -0.01102270
H       11.65689278       4.34429308       1.46601262       0.01707040       0.00477466      -0.00040592
H       13.45054227       1.55492218       2.39222740       0.00094394      -0.00381509      -0.00533774
O        7.97649044       1.86462901       6.13610968      -0.01774311      -0.01196116       0.00368982
C        8.24415554       2.56306178       4.91463463      -0.00747168      -0.00940381       0.00623372
C        7.77668772       1.79061503       3.70445224      -0.00347580      -0.00477681       0.00224462
H        7.77909498       3.55283300       4.95007319      -0.00491682      -0.00818923       0.00676126
H        9.32600519       2.70730452       4.89713794      -0.00729430      -0.01273648       0.01211128
H        7.94680788       2.35427131       2.78538657       0.00156113      -0.00177705       0.00524710
H        8.30215943       0.83771677       3.63791937      -0.00414057      -0.00541243       0.00105249
H        6.70663277       1.58300944       3.76630079      -0.00374010      -0.00390252      -0.00337267
H        7.05204056       1.59925878       6.13462850      -0.01635429      -0.00333764       0.00139733
O        9.30217343      11.37017787       0.58074561      -0.01065952       0.00797197       0.00626945
C        8.92725450      10.82085891       1.85719130      -0.00752205      -0.00436038       0.00173923
C        7.44613214      10.52999935       1.87486241      -0.00681937      -0.00761798       0.00063912
H        9.51924778       9.91798971       2.02029710      -0.00582767      -0.00431508      -0.00771151
H        9.17908163      11.51557414       2.67022582      -0.00804042      -0.01116988       0.00733197
H        7.17051321      10.10280844       2.84153082      -0.00547332      -0.01288840      -0.00136836
H        6.87135259      11.44706507       1.73745503      -0.00890932      -0.00853652       0.00540414
H        7.15996437       9.82699384       1.09161977      -0.00531848      -0.00478859      -0.00235064
H        8.43132693      12.36277464       0.24926374      -0.01206857       0.00701711       0.00977313
O        2.80573200       0.29371400       8.80458825       0.00796060      -0.00418150      -0.00452185
C        2.91107656       1.58040635       9.39610550       0.00533707      -0.00298300      -0.00668049
C        2.28237270       1.62706202      10.77641233       0.00358939      -0.00365112      -0.00758231
H        3.95919386       1.89190003       9.46952605       0.00463825      -0.00137497      -0.00565717
H        2.40775751       2.27674465       8.72081258       0.00507793      -0.00465649      -0.00812617
H        2.38098021       2.62325839      11.21198827       0.00006723      -0.00334446      -0.00813465
H        1.22272426       1.37374346      10.72842407       0.00466421      -0.00734105      -0.00893687
H        2.77533786       0.91503144      11.44267770       0.00493336      -0.00176330      -0.00685429
H        3.21781141      -0.34035351       9.43071681       0.00252912      -0.00282802       0.00025976
O        1.95270779       1.60991169       2.92353794       0.00199705      -0.00498468      -0.00669512
C        2.88389876       2.40550627       2.18098548       0.00065321      -0.00196012      -0.00458689
C        4.27282537       2.18800847       2.72568729       0.00067866      -0.00176096      -0.00501582
H        2.84017920       2.13190287       1.12464149       0.00085198       0.00109063      -0.00536674
H        2.60178512       3.46189177       2.26358288      -0.00031507      -0.00263125      -0.00164858
H        4.98963383       2.78113676       2.15652523      -0.00040826       0.00293362      -0.00105759
H        4.32344879       2.49131616       3.77334495      -0.00134872      -0.00713544      -0.00341524
H        4.55269797       1.13670124       2.65527692       0.00291774      -0.00054687      -0.01011282
H        2.49015069       0.25385162       3.40142367       0.00068568      -0.00462157      -0.00639266
O        6.04518769       5.88326920       1.21196097      -0.00177216      -0.00789404       0.00469846
C        6.57685667       6.22757704       2.48601376       0.00432841      -0.00540225       0.00131023
C        6.03107793       5.33170253       3.57693072       0.00371155       0.00201315       0.00693849
H        7.67226543       6.18051451       2.46032799       0.00385690      -0.01136952      -0.00246075
H        6.29237593       7.26815719       2.66255977       0.01028579      -0.00339931      -0.00165536
H        6.37069383       5.65505748       4.56411826       0.00876262       0.00469033       0.00415145
H        4.94165620       5.34281372       3.56107572       0.00386418       0.00780665       0.01070117
H        6.35844871       4.30461324       3.41697914      -0.00226054      -0.00022691       0.01030428
H        6.45315957       5.03760429       0.94697093       0.00067962      -0.00597438       0.00231027
O       10.33319224       0.64285188       6.96973569      -0.00191886       0.01213202      -0.00622112
C       10.39329482       1.33412752       8.20926259       0.00196469       0.00630403      -0.00480744
C       11.75127412       1.98094341       8.36069224       0.00463164      -0.00502487      -0.00304550
H        9.60138335       2.08930902       8.24990669       0.00755155       0.00658324       0.00515332
H       10.21506845       0.63338590       9.03938840       0.00101214      -0.00361526      -0.00575942
H       11.82032510       2.51025697       9.31392874       0.01094765      -0.01104779       0.00071603
H       12.53965452       1.22807634       8.32092678       0.00238237      -0.00878581      -0.00884090
H       11.91889133       2.69395435       7.55164379       0.00790860      -0.00111289       0.00194131
H        9.44196879       0.78783305       6.62344531      -0.01287206       0.00183685       0.00551477
O        7.69647813       3.66030412      12.91649851       0.00208306       0.00622207       0.00030670
C        8.22456492       4.31603616      11.75011859       0.00182042       0.00415297      -0.00070772
C        9.08624956       3.40080096      10.91107459       0.01098213       0.00567457       0.00711745
H        7.39350682       4.69619886      11.14892540       0.00134754      -0.00414784      -0.00564161
H        8.78863164       5.17239511      12.12227321      -0.00539491       0.00945297      -0.00287475
H        9.48634645       3.94328610      10.05169617       0.01098189       0.00353864       0.00618635
H        9.92840426       3.00977253      11.48723273       0.01107357       0.01431708       0.01287621
H        8.50608508       2.55633576      10.53704361       0.01785637       0.00012369       0.00929179
H        7.50992246       2.73875380      12.68037634       0.00148972       0.00578344       0.00223476
O       11.08841841       5.97149789       5.18055316      -0.01324838      -0.00029953      -0.00373948
C        9.70364949       6.13699521       5.47812313      -0.01255660      -0.00359371       0.00458935
C        9.29387927       5.41487609       6.74312915      -0.00133490      -0.00690776       0.00657338
H        9.45311616       7.20318451       5.54131342      -0.01346514      -0.00484005       0.00865105
H        9.17587183       5.72447149       4.61528092      -0.01660468      -0.00311825       0.00727704
H        8.22673567       5.54253703       6.93359963      -0.00128886      -0.00965986       0.01356342
H        9.51539233       4.35057329       6.67673843      -0.00096486      -0.00689825       0.00163638
H        9.82533161       5.81683773       7.60904734       0.00291872      -0.00847942       0.00229141
H       11.59539516       6.38824743       5.88428831      -0.01044887      -0.00137095      -0.00753760
O        2.19500073       8.51396422       3.93502988      -0.02142030       0.00027487      -0.01056416
C        1.51334560       7.41014367       4.50425364      -0.00809776      -0.00156647       0.00126445
C        2.11315068       6.07428355       4.11477232       0.00153908       0.00080615       0.00804594
H        1.47401619       7.49881790       5.60056889      -0.00338944       0.00623938       0.00047094
H        0.49106014       7.48337023       4.13715796      -0.01030579      -0.01360387       0.00554658
H        1.48347704       5.25289908       4.46005767       0.00976284      -0.00178869       0.01661672
H        2.20694968       6.00753113       3.02929507      -0.00295647      -0.00643195       0.00825959
H        3.10469577       5.94734164       4.55438053       0.00435948       0.01191351       0.00426406
H        3.09526803       8.53958635       4.27257310      -0.02257922       0.01656000      -0.01060550
O        4.24081149      10.78903120      10.22032923       0.00177795      -0.00315738      -0.00089520
C        5.47897480      11.36166305      10.65228282       0.00009060      -0.00124475       0.00074054
C        6.64533142      10.44430360      10.36803756       0.00151902       0.00033212       0.00093943
H        5.63075128      12.33851307      10.17405880      -0.00071116      -0.00096822       0.00132975
H        5.37734168      11.53704225      11.72457654      -0.00116426      -0.00209497       0.00048906
H        7.57533530      10.89421112      10.71723869       0.00062421       0.00109866       0.00250242
H        6.49768449       9.49356653      10.87917279       0.00190975      -0.00021248       0.00012323
H        6.73885095      10.26454052       9.29426770       0.00253582       0.00163778       0.00136718
H        4.38527101      10.39013613       9.33933070       0.00050877       0.00684672      -0.00533396
O        5.18773624       8.49638345       0.44966465       0.00074273      -0.01434118      -0.00267243
C        4.19131924       8.84828878       1.40998492       0.00231457      -0.01133594      -0.00220759
C        2.91921607       9.32816335       0.74283950       0.00480694      -0.00597262      -0.00235227
H        3.97300623       7.99239923       2.05596214      -0.00129004      -0.01156515      -0.00344032
H        4.58254322       9.65050973       2.04922903       0.00494295      -0.01379514      -0.00119004
H        2.22818492       9.69418374       1.50334869       0.00561709      -0.00447110      -0.00252299
H        3.14338530      10.12732371       0.03656891       0.00844743      -0.00585574      -0.00105198
H        2.44347094       8.51568319       0.18905226       0.00250826      -0.00330900      -0.00374822
H        5.42268452       7.56471606       0.56375392       0.00275263      -0.01307800       0.00138658
O        5.12091789       4.08917456      10.33407400      -0.00501758       0.00158814       0.00383735
C        4.21885042       5.13787089      10.69881236      -0.00263855       0.00543237      -0.00208441
C        4.67655229       6.48993908      10.19878650      -0.00090671       0.00134051      -0.01024976
H        3.20927461       4.90862586      10.33406453      -0.00338346       0.00492401       0.00045852
H        4.19130813       5.12256146      11.78888888      -0.00205033       0.01258619      -0.00175357
H        4.01863543       7.28531054      10.55090529       0.00031257       0.00308837      -0.01302460
H        5.67849805       6.71012834      10.56571407      -0.00016317       0.00240820      -0.01243460
H        4.69329210       6.51727737       9.10569468      -0.00232547      -0.00525177      -0.01037049
H        5.20283808       4.09800113       9.37594560      -0.00435255      -0.00377496       0.00395593
O        4.23607958      10.22403039       7.52890373      -0.01982519       0.03200942      -0.00503438
C        3.13563926       9.40006954       7.11447448      -0.00803721       0.01654094      -0.00188231
C        1.99054968       9.42525150       8.10669287      -0.00663549       0.00155835      -0.00010526
H        2.79563264       9.72560969       6.12778344      -0.01449125       0.00977473      -0.00195843
H        3.54795951       8.39106876       7.02134950       0.00626700       0.02258033      -0.00099601
H        1.15624110       8.81885264       7.74825696       0.00212443      -0.01129957       0.00302432
H        2.30377868       9.04184928       9.07894757       0.00070968       0.00870860       0.00038068
H        1.62842195      10.44473460       8.23976973      -0.02149735      -0.00362426      -0.00135902
H        3.94974015      11.14312109       7.43419172      -0.03877246       0.02762814       0.01417059
O       10.28872381       8.48029732       8.68686445      -0.00446349       0.03682250       0.01343906
C        9.72119309       8.30018414       9.98728631       0.00623196      -0.00421432      -0.01025301
C        8.51564829       7.38578826       9.97568363       0.00314248       0.00920460      -0.00355979
H       10.47964557       7.92105207      10.68210541      -0.00080186       0.00556691      -0.00090909
H        9.44400243       9.29756530      10.32652723       0.00432779       0.01131177      -0.00925103
H        8.08568086       7.32706741      10.97546573      -0.00200375       0.01128296      -0.00742614
H        7.76137946       7.75423771       9.28018952       0.00275485       0.00907482      -0.00972004
H        8.79656526       6.37333414       9.67428242      -0.00070448       0.00646815      -0.00295544
H       10.55812955       7.61333277       8.37574652       0.02189892      -0.03584026      -0.00750138
