145
Lattice="12.421156817996003 0.0 0.0 0.0 12.421156817996003 0.0 0.0 0.0 12.421156817996003" Properties=species:S:1:pos:R:3:forces:R:3 energy=-319749.90625 stress="-0.0014111008495092392 0.0010648041497915983 -0.00046000217844266444 0.0010648041497915983 -0.0015805125003680587 -0.00027942647284362465 -0.00046000217844266444 -0.00027942647284362465 -0.003254072740674019" pbc="T T T"
Cd      12.17052117      14.51987375       1.42466441       0.03621284       0.02975690       0.01474464
O        7.85992512       3.95444887       1.51820262       0.01399088      -0.01801491      -0.00099006
O        9.63760348       3.36186887       3.51834744       0.00942850      -0.00438547       0.00163442
O       10.35406560       3.21413393       0.87674768       0.01124352      -0.02205423      -0.00152761
O        8.61190247       1.46185854       1.83039843       0.01390141      -0.01539111       0.01804810
Cr       9.05429754       2.98645652       1.89352601       0.01383638      -0.01660603       0.00401056
Cr      11.07324680       2.78838938       4.35405718      -0.00875527      -0.01540244       0.02056533
O       10.94622333       1.20617661       4.51135275      -0.01920262      -0.01291180       0.02005665
O       12.36435867       3.12763682       3.37193548       0.00687587      -0.02693206       0.03494179
O       11.17656861       3.54693888       5.74475460      -0.03258798      -0.01533920       0.02234185
O        2.97853287       2.72330970       5.94767366      -0.00464136      -0.00517738      -0.00035489
O        1.69279703       4.22232749       6.81242127      -0.00381616      -0.00677425       0.00102094
O        3.61734797       4.89807139       5.84212891      -0.00675595      -0.00282300      -0.00731573
C        4.21720934       2.33036200       5.30588947      -0.00457030      -0.00606239       0.00042425
C        4.55576112       0.94115622       5.76264717      -0.00045614      -0.00164020       0.01011625
C        2.84153429       4.02989502       6.16242366      -0.00857949      -0.00928402      -0.00137386
C        1.38855168       5.60726612       7.04166302      -0.00293745      -0.00768903       0.00431294
H        4.06914336       2.37850124       4.22713621      -0.00644803      -0.01360504       0.00049365
H        4.98211490       3.05984185       5.55651106      -0.00657323      -0.00194794      -0.00533602
H        5.55273000       0.69087090       5.40388728       0.00015725      -0.00203209       0.01276325
H        4.55235558       0.87344512       6.84942287      -0.00083108       0.00691227       0.01044977
H        3.86541986       0.20290326       5.36729382       0.00135705      -0.00592373       0.01545757
H        2.24487530       6.12759393       7.45762246      -0.00269032      -0.00981638       0.00665022
H        0.55660603       5.59551960       7.73789099      -0.00341451      -0.00852567       0.00330660
H        1.09344486       6.08326911       6.10764850      -0.00091314      -0.00442322       0.00553167
O        4.75634405       2.96322903       8.59969892       0.00571254       0.00121777      -0.00620519
O        2.84469540       2.82564178       9.59764528       0.00802246      -0.00540681      -0.00348619
O        3.73012244       4.88014257       9.22758753       0.00295525      -0.00089169      -0.00112046
C        5.88263714       3.73909006       8.11408874       0.00224489       0.00632739      -0.00482818
C        6.93360732       2.74851095       7.68123258       0.00515831       0.01165608      -0.00821145
C        3.77618386       3.67697847       9.14709203       0.00515663      -0.00599849      -0.00371221
C        1.66232542       3.45679998      10.10152018       0.00912673      -0.00922529       0.00303865
H        5.53827341       4.37493142       7.29731667      -0.00115585       0.00741670      -0.00245547
H        6.23566745       4.37966762       8.92043951       0.00033163       0.00550312      -0.00338393
H        7.87763781       3.26034869       7.49536044       0.00459406       0.01353166      -0.00393995
H        7.08811437       2.00611587       8.46260520       0.00465516       0.00829722      -0.01146762
H        6.64795138       2.22885790       6.77053691       0.00701587       0.01587335      -0.01099117
H        1.91817728       4.31351883      10.72228547       0.01033552      -0.00919008       0.00249541
H        1.14733379       2.69602640      10.68481937       0.01269723      -0.01040465       0.00458314
H        1.03643236       3.77662492       9.26968769       0.00503710      -0.00925572       0.00649467
O        2.97138365      10.52997975       6.05686458      -0.00342551      -0.00397047       0.00248595
O        4.83033105       9.50727211       6.45463337      -0.00350276      -0.00269967       0.00201425
O        2.89699467       8.33482569       6.59024111      -0.00304699      -0.00235128       0.00575548
C        1.52908413      10.52848884       5.95318482      -0.00402169      -0.00168973       0.00432605
C        1.10133909      11.93748336       5.64784440      -0.00074241      -0.00259376      -0.00388473
C        3.51493157       9.35140310       6.38757558      -0.00531065      -0.00268197       0.00393037
C        5.57021591       8.27982971       6.56538523      -0.00350213      -0.00169731       0.00335218
H        1.23168744       9.83286560       5.16989111      -0.00657064      -0.00598818       0.00971445
H        1.10785428      10.15106438       6.88630332      -0.00322570       0.00614890       0.00766802
H        0.01915228      11.98622166       5.54189538      -0.00052732      -0.00059797      -0.00420772
H        1.40215067      12.63282577       6.43197329       0.00078414       0.00071134      -0.00761724
H        1.54027402      12.28079416       4.71075085       0.00017612      -0.00891430      -0.00561038
H        5.22231394       7.70151361       7.41986757       0.00028655       0.00102443       0.00644350
H        6.60328808       8.58677611       6.69508012      -0.00322187      -0.00129557      -0.00209543
H        5.45454520       7.70931913       5.64646893      -0.00683568      -0.00511634       0.00590706
O        5.89807980       9.87694928       9.34657566       0.00043797       0.01405196       0.00005613
O        3.94616902      10.74700640       8.99909991       0.00286001       0.01957329       0.00090177
O        4.35224422       9.77799068      10.99908766      -0.00548795       0.00016499      -0.01071525
C        6.83998803       9.22929419      10.23631007      -0.00270849       0.00879927      -0.00093076
C        8.03173243       8.79099143       9.43561479      -0.00086212       0.01357830      -0.00054243
C        4.70266110      10.10191264       9.89106413      -0.00365853       0.00857356       0.00251019
C        2.61679223      11.02091971       9.45631643       0.00136294       0.01744300      -0.00159700
H        7.10081277       9.94464386      11.01768050      -0.00470597       0.00396553       0.00348067
H        6.34963698       8.37877308      10.70334767      -0.00442332       0.00642249      -0.00731441
H        8.75986097       8.34948870      10.11717959      -0.00155523       0.01155026      -0.00117247
H        7.75644725       8.03478303       8.70441354       0.00181419       0.01667169      -0.00434215
H        8.49275632       9.62380166       8.90631365      -0.00075354       0.01631224       0.00430193
H        2.10911811      10.09415752       9.72208173      -0.00155927       0.01614183      -0.01344410
H        2.12199781      11.50536880       8.62129423       0.00678357       0.02700010       0.00082520
H        2.64011039      11.68273019      10.32051856      -0.00143030       0.00760034       0.00557745
O        9.59522032       7.81891389       6.80775068      -0.00330960       0.00276367      -0.00311969
O        9.08465755       9.77774995       6.05502507      -0.00488367       0.00206563      -0.00345849
O       11.18136849       8.99827969       5.69843463      -0.00996554      -0.00081983      -0.01201770
C       10.55581083       6.75350563       7.02313232      -0.00317806       0.00256100      -0.00455314
C        9.96900255       5.79368412       8.02450044      -0.00086001       0.00533977      -0.00078335
C       10.06459850       8.87433694       6.14054023      -0.00252390       0.00171490      -0.00830847
C        9.46926876      11.01286108       5.42305707      -0.00518486       0.00213393      -0.00406301
H       10.75678410       6.26444249       6.06845508      -0.00777298       0.00020745      -0.00398874
H       11.48405099       7.20410252       7.37191523      -0.00146362       0.00214472      -0.00949553
H       10.61040109       4.91467719       8.09287008      -0.00402641       0.00294685      -0.00408798
H        9.86900381       6.24040982       9.01216229       0.00604289       0.00561221      -0.00036557
H        8.98422886       5.45516236       7.70565290      -0.00354552       0.00884356       0.00481645
H       10.18981350      11.54733458       6.03816938      -0.00552821       0.00221008      -0.00443053
H        8.55543858      11.59018518       5.33006371      -0.00518256       0.00194383      -0.00366714
H        9.90396003      10.82380978       4.44465926      -0.00564870       0.00209190      -0.00379604
O        2.80024249       9.92138058       2.70808141      -0.00256953       0.00007461       0.00555129
O        4.60120723      11.08977902       3.07036973      -0.00621700      -0.00006264       0.00436023
O        4.54456764       8.93226945       3.74055946       0.01056296      -0.02063322       0.01057595
C        2.15306566       8.63057126       2.76137679      -0.00343543       0.00272833       0.00245100
C        0.78292726       8.77927980       2.16368342      -0.00459015       0.00231291       0.00779663
C        4.03806183       9.89698255       3.23029572      -0.01616353       0.02842551      -0.01186243
C        5.94396648      11.16077863       3.59538421      -0.00568857       0.00495689      -0.00038260
H        2.76361569       7.91931360       2.20303624      -0.00458840       0.00308365      -0.00105891
H        2.11887467       8.29235596       3.79827100       0.00000201      -0.00135593       0.00231230
H        0.27009395       7.81721044       2.18685720      -0.00437641       0.00310913       0.00655229
H        0.18922702       9.49407741       2.73189238      -0.00309104       0.00062405       0.01182486
H        0.84805164       9.11320257       1.12790815      -0.00725108       0.00661884       0.00862779
H        5.91493532      11.04516355       4.67636008      -0.00134529      -0.00290688      -0.00055262
H        6.31446395      12.13873635       3.30462318      -0.00901297       0.00700593       0.00574905
H        6.55423643      10.38194457       3.15262277      -0.00348160       0.00938556      -0.00708115
O        8.49161286       9.98018229       1.25101449       0.00287302       0.01085922      -0.00756100
O        6.44752633       9.32893532       1.09220075       0.00575832       0.00479004      -0.00513307
O        8.08928608       7.84005349       0.60783556       0.01290262      -0.00507057       0.00867289
C        9.90681109       9.73964752       1.13606293       0.00353059       0.01344168      -0.00047812
C       10.58808839      11.08288704       1.22317813       0.00391366       0.01213276       0.00774948
C        7.71055862       8.92802009       0.95730016       0.00169086       0.02090633       0.00508678
C        5.46318829       8.29403226       0.93525352       0.00803716       0.00287656      -0.00122410
H       10.21058547       9.06362588       1.93884664      -0.00007743       0.00987691      -0.00205392
H       10.10197336       9.23516640       0.18803851       0.00883932       0.01692279      -0.00178492
H       11.66400460      10.96713531       1.09227152       0.00431235       0.01170864       0.01520154
H       10.21381245      11.74395539       0.44381151       0.00960597       0.01482181       0.00736961
H       10.40023894      11.56697487       2.18225752      -0.00251643       0.00946737       0.00770040
H        5.66094776       7.72610435       0.03328235       0.01010531      -0.00047775       0.00065681
H        4.51981302       8.81639432       0.82990420       0.00657317      -0.00110081      -0.00376258
H        5.48891393       7.65725338       1.81412776       0.00880919       0.00493729       0.00025785
O        5.09067847       4.61737362       3.35478084      -0.00127184      -0.00310785      -0.00709128
O        6.96335140       4.60732138       4.45955296      -0.00709522      -0.00252602      -0.00014041
O        6.24271443       6.54954335       3.56747611      -0.00546581       0.01012754       0.00076501
C        3.96044440       5.39165076       2.90250543      -0.00058308      -0.00574848      -0.01041666
C        2.85241169       4.43802563       2.54384111      -0.00081003      -0.00446314      -0.01195120
C        6.11076417       5.36761594       3.76548039      -0.00714531      -0.02014041       0.00195915
C        8.11576162       5.33949857       4.90216894      -0.01143142      -0.00340295       0.01057178
H        3.67673602       6.07236133       3.70478720      -0.00368844      -0.00564802      -0.01106709
H        4.27262866       5.98412694       2.04470865       0.00128020      -0.00432926      -0.00938585
H        2.01762856       4.99836078       2.11767300      -0.00191659      -0.00339897      -0.00717970
H        3.19447375       3.70657798       1.80878459      -0.00311526      -0.00221992      -0.01541914
H        2.46924010       3.90913986       3.41474223       0.00290679      -0.00706339      -0.01176536
H        8.65892896       5.73092375       4.04387001      -0.00762555       0.00390124       0.01584071
H        8.73358374       4.62508869       5.43370427      -0.01190183      -0.00269616       0.01077129
H        7.81368756       6.16384407       5.54663924      -0.01753235      -0.00672829       0.01278138
O        7.17317049       2.40767831      11.17056560       0.00766929      -0.00679332      -0.00470559
O        5.62771011       3.81066382      11.71063664       0.01032797      -0.00421001      -0.00757013
O        7.59056018       4.61692487      10.91405232       0.01495123      -0.00542402      -0.00627717
C        8.53679116       2.12637195      10.79312337       0.00609726      -0.01161897      -0.00534708
C        8.69003597       0.63153316      10.87598213      -0.00274700      -0.01280373      -0.01435581
C        6.87762961       3.70323021      11.24530883       0.00710386      -0.01147038      -0.00443111
C        5.25496017       5.15895635      12.01143458       0.01167889      -0.00416471      -0.00889510
H        8.71599323       2.51470786       9.78987596       0.00907919      -0.00619109      -0.00280046
H        9.20181747       2.65071852      11.47886071       0.00840008      -0.01914880      -0.00176573
H        9.71791803       0.34866669      10.64551601      -0.00876853      -0.02057008      -0.02938212
H        8.44517925       0.29563418      11.88342272       0.00674811      -0.01720754      -0.01367974
H        8.02921164       0.12894620      10.16838505      -0.01675393      -0.00315823      -0.00794844
H        5.93119433       5.55581895      12.76611176       0.01053864      -0.00471203      -0.00749195
H        4.23794836       5.09606564      12.38878229       0.01095736      -0.00165205      -0.01152158
H        5.27743245       5.77407237      11.11419494       0.01488729      -0.00414479      -0.00890183
