150
Lattice="16.33779942950312 0.0 0.0 0.0 16.33779942950312 0.0 0.0 0.0 16.33779942950312" Properties=species:S:1:pos:R:3:forces:R:3 energy=-1286673.125 stress="-0.0006602602661587298 -4.118090510019101e-05 0.00014468843437498435 -4.118090510019101e-05 -0.00018248688138555735 2.0755328478117008e-05 0.00014468843437498435 2.0755328478117008e-05 -0.0004952703602612019" pbc="T T T"
Cd      16.39606699      16.74358302       0.55748437       0.02599025       0.00457573       0.00512844
O       13.97677908      14.00648674       1.50003592       0.01719904       0.04143310      -0.00921834
O       15.53119619      14.84484329       0.10982683       0.00670755       0.00495744       0.00504541
O       14.95135909      15.97542636       1.95616638       0.00861736       0.01017928      -0.00127661
C       14.77857227      14.89114809       1.20219184      -0.02591237      -0.01432598       0.00892062
Cl      11.59001936      13.85249424       9.61541190      -0.00570256      -0.00600066       0.01615793
Cl      14.48754156      13.95003098       9.96050857      -0.00443645      -0.00541924       0.00382960
Cl      12.81987827      16.11846524      10.98627031      -0.00166006       0.00248110      -0.00689563
C       12.91779593      14.38194218      10.66893120      -0.00184211       0.00306337       0.00921086
H       12.82170952      13.85663213      11.61273623      -0.00180777       0.00829382       0.01221696
Cl       8.91740437       9.36844029       5.59915473      -0.00878565      -0.00633574       0.00661999
Cl       9.12476601      12.24638928       6.05414370       0.00005556      -0.00422832      -0.02927293
Cl       6.88523441      10.73813923       7.17388553       0.00963521       0.01266145       0.00855650
C        8.59905236      10.69794399       6.72218076       0.00940650       0.00393670      -0.00623203
H        9.16953162      10.50590645       7.62261841       0.01563965       0.01449442      -0.00741383
Cl       8.08376320       6.73410017       3.19665286       0.01123089       0.01212241      -0.00105025
Cl       9.72658179       4.49108433       4.10428850      -0.00210729       0.00032866      -0.00948341
Cl      10.01189165       5.49713764       1.38276163       0.00611297       0.00848895      -0.00926474
C        9.65190656       5.91480856       3.06375481       0.00541949       0.00239270      -0.00655524
H       10.40339022       6.61810331       3.40037153       0.00953095      -0.00272544      -0.00574905
Cl       5.05688428      14.93953780       8.84117728      -0.00198892      -0.02501741      -0.01026882
Cl       2.15790482      14.59394869       9.00567120       0.00196065       0.00606629       0.00754020
Cl       3.27016724      16.84172698       7.53346980       0.01137713       0.00752285       0.01377214
C        3.51247263      15.16077676       8.00450997      -0.00479749       0.00201138      -0.00152959
H        3.53477397      14.55083823       7.10908924      -0.01596016       0.01069163      -0.00798312
Cl      14.70254719       9.99657425       8.25490373      -0.00017390      -0.00224489       0.01601062
Cl      12.84828707      11.09904079       6.29626077       0.00011940      -0.00548904       0.01509163
Cl      11.82204771       9.78704899       8.68163787      -0.00061236      -0.00163817       0.01926131
C       13.13774730      10.77948955       7.99940107       0.00125263      -0.00423200       0.01636148
H       13.14501771      11.72046721       8.53633096       0.00099922      -0.00389564       0.01469164
Cl      11.78799828      10.67367290      12.89471894      -0.02464883      -0.01768765      -0.00926410
Cl      14.48169545      10.12171094      11.92830564      -0.00761911       0.02939579       0.02411491
Cl      13.28929588       8.40197915      13.96528244      -0.00785648      -0.00755160      -0.01173955
C       12.98395150       9.41302528      12.54476887       0.00064602       0.00123155      -0.00876108
H       12.57211501       8.77564586      11.77241357       0.01595423       0.00488910      -0.02028209
Cl       5.65950295       6.38849093      -1.09621715       0.00521111      -0.00201117       0.00978792
Cl       4.21134077       8.81608034      -0.37857236      -0.00263789      -0.00253040      -0.00970457
Cl       3.72437185       6.36232243       1.10758989      -0.00934500       0.00494131      -0.00108966
C        4.92718544       7.32794872       0.21963611      -0.00662153       0.00645321       0.00077645
H        5.71902958       7.57515899       0.91662318      -0.01155634       0.00639749       0.00540163
Cl       9.35631202       4.42895781       7.88756654       0.00958905       0.00544851       0.00628418
Cl       6.80899536       4.67961754       9.28230728       0.01392013       0.00566907       0.01592174
Cl       7.08884690       5.73793979       6.57669615       0.00512128      -0.00039878       0.01216355
C        7.59552197       4.47722713       7.70608414       0.00936516       0.00380630       0.01230214
H        7.28251999       3.52448260       7.29646672       0.01048177       0.00178576       0.01675290
Cl      15.85315344       8.34000597       5.02680785       0.00126019       0.00059278      -0.00006481
Cl      13.32816770       6.93435247       4.60654988       0.01165487      -0.01724018      -0.01241000
Cl      15.40003009       5.75596239       6.29457515       0.00766644       0.00197417       0.00581955
C       14.65088135       7.27124330       5.73771653       0.00262179      -0.00512853      -0.00573244
H       14.22674095       7.75663640       6.60886202      -0.00581203      -0.00374947      -0.01147065
Cl       3.06780846      11.15714404      11.02595758      -0.00856888      -0.00685780       0.00408168
Cl       3.19340931      13.17438866      13.14487339      -0.00859165       0.00570296      -0.01018956
Cl       4.98828652      10.87301914      13.19583968       0.00860921       0.01874000      -0.00872761
C        4.11479577      12.01646047      12.17159835      -0.00724429       0.00703697      -0.01034071
H        4.84099561      12.57608757      11.59507933      -0.01472546       0.00888979      -0.01705340
Cl       8.10352293       0.71546572       3.24684855      -0.00565649      -0.01499376       0.00985762
Cl       9.39565983       1.24790681       5.81893997       0.01619819      -0.00272301      -0.00115488
Cl       6.49272620       1.34551870       5.60022162       0.01556170      -0.00086769       0.01643251
C        7.98358221       0.57535254       5.00009985       0.01491182      -0.00595856       0.01396191
H        7.92588752      -0.47715270       5.24693137       0.01535166      -0.00423792       0.01989630
Cl      10.61885830      15.49075814      15.98321944      -0.01469624      -0.00372772      -0.00532085
Cl      12.98111152      14.55718717      14.57230485      -0.00066888       0.01509371       0.00477552
Cl      10.33268750      14.22713909      13.36076907       0.00659469      -0.01053715      -0.00297752
C       11.36438995      15.23734770      14.40489985      -0.00499395       0.00051334      -0.00316095
H       11.45584396      16.20033149      13.91818995      -0.01219090       0.00068632      -0.00321981
Cl      10.77191620       9.72773077       2.36984788       0.02233779      -0.00641994       0.00375493
Cl      12.17051872      11.21970785       0.28057523       0.01499632       0.00610009       0.00511429
Cl      13.29111108      11.07713415       2.95771897       0.00984561       0.01573074       0.00548631
C       12.35934234      10.23187432       1.73174736       0.01999503       0.01055492       0.00347698
H       12.89602636       9.33253588       1.45534581       0.02618246       0.01433793       0.00543620
Cl       6.44302709       2.29246649      -0.13665470       0.01251121       0.02025501       0.00955017
Cl       3.84671335       2.22885907       1.19711469       0.01672667       0.00976010       0.02020312
Cl       6.07593376       3.65590348       2.42012925       0.00226255       0.03110587       0.00028250
C        5.33178984       3.18352115       0.90029472       0.01031938       0.02085993       0.00611270
H        5.02646039       4.07927208       0.37442926       0.00017197       0.01332754      -0.00112903
Cl      15.90622694       2.89683902       1.83897960       0.00262453      -0.00313513       0.00235359
Cl      13.10304246       3.73449515       2.00342040       0.01192595       0.00040378       0.00862992
Cl      13.98653201       2.02157642      -0.18063379       0.00046766       0.00953075      -0.00249183
C       14.16484873       2.44688189       1.53540938       0.00001946      -0.00182862       0.00028531
H       14.00030077       1.53441549       2.10915194      -0.00086472      -0.00378707      -0.00435671
Cl       2.55470943       9.53180244       3.51216973       0.00475770      -0.00368563      -0.00083253
Cl       3.68122418       7.14558057       4.78674874       0.00689122      -0.00422439      -0.00440091
Cl       5.44326252       9.10252532       3.51647544       0.00539455       0.00280032       0.00404163
C        3.92705907       8.85588136       4.40539455       0.00261776      -0.00262056       0.00022864
H        4.00977945       9.39809580       5.33976472       0.00080707      -0.00501265       0.00170383
Cl      10.21162874       2.21071661      12.51454147      -0.00279776      -0.00622028       0.00352237
Cl       8.18556607       4.15849001      13.29657428      -0.00795522      -0.00490856      -0.00493222
Cl      11.00401339       4.70325198      13.82475275      -0.01231638      -0.00743866       0.01161951
C        9.84113300       3.93087673      12.72679857      -0.00418510      -0.00217411       0.00571786
H        9.93589060       4.40737906      11.75818163       0.00119780      -0.00408654       0.00548619
Cl       5.56640714      15.09130349      -0.17380061       0.00083979      -0.01367602      -0.01380548
Cl       5.06210098      12.33033779       0.64251420       0.00175691      -0.00692898       0.00107680
Cl       7.75904141      13.45207478       0.83649252      -0.00086856       0.00146198       0.01176736
C        6.02747089      13.78549648       0.93573423      -0.00207252      -0.00447435       0.00006874
H        5.81165324      14.12500092       1.94071389      -0.00760330       0.00086356      -0.00257686
Cl       2.92694852       4.11541970      14.48469602      -0.00094287      -0.00679861       0.02375709
Cl       0.03078335       4.13104426      14.34310550      -0.00100150       0.01179257       0.00290076
Cl       1.44333915       1.63230619      14.95387820      -0.02135719      -0.00105023      -0.01015389
C        1.43225128       3.46304959      15.12585972      -0.00670134      -0.00482979      -0.00086726
H        1.39903027       3.65261676      16.19331905      -0.01543153      -0.01728001      -0.00149203
Cl       8.89662589       8.00318786       9.03995079      -0.00420210       0.00338143       0.00216252
Cl       7.34185195       8.36610187      11.47336721      -0.00101086      -0.02103884       0.00797991
Cl      10.06289937       7.30515168      11.61794666       0.00748092      -0.00155348      -0.00693206
C        8.95345805       8.39644334      10.76338694       0.00056743      -0.00442357       0.00250239
H        9.35263832       9.39817138      10.87219161      -0.00814033      -0.00125429       0.00613037
Cl       1.75356103       2.32908758      11.11927884      -0.00021738       0.00735460       0.01005505
Cl       3.53880277       0.15708167      11.92342836      -0.01454164      -0.00229192       0.01139372
Cl       4.60628825       2.49807143      10.51348641      -0.00060482      -0.01442581       0.00554743
C        3.40067261       1.89517846      11.64845313      -0.00029244      -0.00185062       0.00769951
H        3.56698145       2.38950437      12.59664784       0.00374210      -0.00146248       0.00653142
Cl       1.92102034       9.65863223       8.03065906      -0.00125884      -0.00171506      -0.01516367
Cl       3.74681109      11.68832721       7.00559056      -0.01094228       0.01107001      -0.00527741
Cl       0.90399170      11.85334026       6.38759399      -0.01361325      -0.00599069      -0.01273581
C        2.09884088      11.35927902       7.58709017      -0.01151696      -0.00355245      -0.01020139
H        1.95773014      11.95893432       8.47826190      -0.01930439      -0.00537643      -0.01060754
Cl       7.68731048       9.59366945      16.90901093      -0.00929812       0.00167890       0.00452112
Cl       9.42768784       8.10199836      15.09715613      -0.01574697       0.00712609      -0.00587085
Cl       8.41534556      10.73217569      14.33088084      -0.02720821       0.00558874       0.00337693
C        8.94746008       9.70059038      15.66486256      -0.01540385       0.00579440      -0.00178571
H        9.81328874      10.16584965      16.11987032      -0.01407301       0.00817028      -0.00635807
Cl       3.23756037       7.40126615      12.05272531      -0.01251218      -0.00797951       0.00505431
Cl       0.32593881       7.15038942      12.09273242      -0.01279643       0.00584021      -0.03375276
Cl       1.79593070       6.54706018       9.65112637       0.01951168      -0.03581833       0.00051188
C        1.83999907       6.52164501      11.42461908      -0.00810232      -0.01401987      -0.00082825
H        1.93542279       5.48436296      11.72315824      -0.01741249      -0.01004839       0.01756925
Cl      11.90813431      16.83843304       3.25188960      -0.01358519      -0.00700986      -0.01041046
Cl      12.83775819      14.96350694       5.28834887       0.01413380      -0.00818639      -0.02560097
Cl      10.71959370      14.18625768       3.43223727      -0.01393551      -0.00724083       0.00622807
C       12.21716955      15.12616483       3.63908114      -0.00977036      -0.00733274      -0.01168251
H       12.95740617      14.73602307       2.92889565      -0.01784983      -0.00751942      -0.02685642
Cl       4.17686574      15.60182482       3.96135046      -0.00486548       0.02749181       0.00265778
Cl       2.30798233      15.58101978       1.74398186       0.00877613      -0.03961828      -0.00495084
Cl       1.41453967      14.82464876       4.42822885      -0.00884808       0.02371052       0.00657166
C        2.49625508      15.86025932       3.52818697      -0.00453197      -0.00125438      -0.00624549
H        2.24772231      16.90032374       3.71602265      -0.00900780       0.00038454      -0.03280587
Cl      12.98322625       6.43094296       9.04638195      -0.01306047      -0.00144845       0.00349134
Cl      13.02275081       4.21175683      10.93470372       0.01769352      -0.00889385      -0.00221318
Cl      12.78077657       3.67902160       8.07710247       0.01167402       0.00077893      -0.00179610
C       13.47237797       4.74442730       9.30762291       0.00603995       0.00235136       0.00136013
H       14.55170311       4.69750638       9.22311023       0.00610435       0.01669620      -0.00399776
Cl      -0.43082222       9.55295477       1.32586645       0.01132277      -0.01231706       0.00439454
Cl      -0.30979042       6.63868691       1.48410136       0.01785575      -0.01243795       0.00293609
Cl       0.58761651       8.00121153      -0.93082665      -0.00778934      -0.00824989      -0.00376579
C        0.45166830       8.10820899       0.82453967       0.00983796      -0.00920659      -0.00608587
H        1.44967636       8.16474755       1.24237788       0.01283151      -0.00895816      -0.01339915
Cl       3.35596198       3.33962125       4.88251734      -0.00192273      -0.00940752      -0.00903402
Cl       0.68090840       2.28683243       5.40590763      -0.00203734      -0.00330991      -0.00157903
Cl       2.06278027       3.83319468       7.45769945       0.00218924       0.00664054      -0.01197851
C        1.82051193       3.61187395       5.72508579       0.00074299      -0.00113170      -0.00930285
H        1.38261077       4.52142186       5.33123290       0.00159518      -0.00323486      -0.01488287
