147
Lattice="11.51391576659376 0.0 0.0 0.0 11.51391576659376 0.0 0.0 0.0 11.51391576659376" Properties=species:S:1:pos:R:3:forces:R:3 energy=-256298.921875 stress="0.0018335646018385887 0.000570847827475518 -0.0003000294236699119 0.000570847827475518 0.00046846800250932574 -0.0009673626918811351 -0.0003000294236699119 -0.0009673626918811351 0.0012640448985621333" pbc="T T T"
Cd      10.78343763      11.00644867      -2.70412048      -0.01837938      -0.01042308      -0.00720611
P        0.67661122       9.51781449       5.58009570      -0.01777798      -0.01359724      -0.01500100
F        1.94886516       9.96034387       6.30230229      -0.01843488      -0.00443265      -0.01469922
F        0.61305700       7.98267449       5.48382097       0.01492482      -0.01926100       0.01299901
F       -0.13547595       9.38029398       6.99889426      -0.03091231      -0.00719628      -0.02327135
F        1.37624121      12.77257931       6.64181009       0.00332915       0.00804414       0.00958523
F        1.30192135       9.59803372       4.13928294      -0.02402219      -0.03092555      -0.01803738
F       -0.26064689      10.70376170       5.24415650       0.00906175       0.00885135      -0.01299709
P        5.27480961       9.40382182       3.72112105       0.00471854       0.00230891      -0.00189023
F        4.33614043       9.27851317       5.03927345       0.01203379      -0.00189857       0.00391617
F        4.62790548       8.04271715       3.13875322       0.00802024      -0.00049946       0.00239509
F        4.12295499      10.26337651       2.97172055      -0.00246614      -0.00235337       0.00529745
F        6.20954050       9.53742761       2.40007424      -0.00260572       0.00620257      -0.00607899
F        6.43787447       8.54545971       4.46034485       0.01324201       0.00720473      -0.00731690
F        5.91617123      10.76699317       4.31346212       0.00261374       0.00499049      -0.00413792
N        9.26257272       9.83390598       9.83560739      -0.00394200      -0.01805305       0.00251224
H        8.94024689      10.29977249      10.71482075       0.00100876      -0.01638559       0.00392634
H        9.51730186       8.88093617      10.11217272       0.00334091      -0.01682049       0.00327472
H        8.41193050       9.71523023       9.26822268      -0.00820911      -0.02445588       0.00958583
N        9.72343885       8.46569933       3.96470558       0.03076115       0.00563058       0.00998989
H        9.96988655       8.80141530       3.03865175       0.02197098       0.00737294       0.00925753
H        8.71081345       8.53320557       4.03359663       0.03162101       0.01219520       0.02046296
H        9.94429109       7.47442600       3.97595181       0.02196554       0.00217751       0.00144658
N        4.56553051       5.02540095       0.75876153       0.00398391      -0.00045437      -0.00960049
H        4.66725908       5.96950723       0.39896336       0.01081512       0.00240406      -0.01031789
H        4.10630668       4.46875510       0.03685032       0.00663152       0.00268631      -0.01203319
H        5.50512738       4.66316813       0.87676921       0.00022215      -0.00209348      -0.00151240
N        7.93924580       2.59762671       0.44620231      -0.00492041       0.00194819       0.00096345
H        8.38760535       1.74906568       0.11944145       0.01778086       0.02006206      -0.01024631
H        8.68090162       3.25326164       0.67174468      -0.02345052       0.01205115       0.03099796
H        7.44616519       2.97561756      -0.35741920       0.00033355       0.01037129       0.00067203
N        9.21337878       6.70011148      10.81299386       0.00618444       0.00936568      -0.01204064
H        8.54569419       6.64567951      11.59224104       0.00978154       0.01320283      -0.00868391
H        9.79245305       5.86361882      10.88597485       0.00798807       0.01051964      -0.00980176
H        8.66887772       6.55994358       9.96729000       0.00232694       0.00433397      -0.00868998
N        1.66603903       6.69312209       2.42298494       0.00393699       0.00430360       0.00369307
H        1.22076137       7.47343535       1.94976876       0.00371168       0.00277310       0.00150019
H        1.88579520       6.00126060       1.71392342       0.02548348       0.01262443       0.00158121
H        2.56577957       7.02593635       2.75758832      -0.00626047       0.01236889       0.02160160
N        6.22159847       2.19757411       9.16433027      -0.00016081      -0.00436667       0.00296477
H        6.96100914       1.55166766       8.91048844      -0.00516781      -0.01264784       0.00741345
H        5.56043521       2.20469662       8.38168628       0.00033100      -0.00335583       0.00309193
H        5.73666730       1.78036118       9.95523939      -0.00341405       0.00501892       0.00596059
N        4.43118301       8.23093284      -0.06350400       0.00676645       0.00322598      -0.00314481
H        3.72803412       8.11776059      -0.78981880       0.00478286      -0.00494137      -0.00219883
H        4.75257365       9.19171523      -0.10730523      -0.00687892       0.00766467      -0.00357835
H        3.96685039       8.14469071       0.83515296       0.01143664      -0.00522419      -0.00316174
N       -0.31313050       4.00871069      11.22648301      -0.00543460       0.01880345      -0.00046487
H       -0.53762590       4.18679244      12.20793861      -0.01113143       0.00265726      -0.00174697
H        0.62906693       4.33040659      11.03470226       0.00393329       0.00866977       0.01417486
H       -0.27982948       3.00284659      11.10990487      -0.01825886       0.02164008      -0.02097329
N        6.09596199       5.38109960       7.85365737       0.00238319       0.00335888       0.01445371
H        6.12267680       4.45110816       8.26388275      -0.00383657      -0.00291497      -0.00460873
H        5.82476838       6.00702313       8.60331314       0.01879445      -0.00721916       0.03460069
H        7.05413948       5.60277373       7.59079236      -0.00108479      -0.00069098       0.00717286
N        1.04949749       3.76080917       8.03822408      -0.00984836       0.00352158       0.00816232
H        1.15906680       2.95285927       7.42047323      -0.00277438       0.00378203       0.00727660
H        1.61769451       4.50939217       7.65583150      -0.00041539       0.00586036       0.00769538
H        0.08507169       4.06371982       7.97172519      -0.00094800       0.00473627       0.00341925
N        3.44910446       6.33778165       6.02018849       0.00871293      -0.01438818       0.01296133
H        4.35458012       6.27650606       6.48389245       0.00123730      -0.04351631       0.02330711
H        3.48544547       7.19085168       5.46959276       0.02994563      -0.00111224       0.03662417
H        3.46961908       5.58519814       5.32945742       0.00059254       0.00221771      -0.00552421
N        3.12180063       3.16989950      10.23382961       0.00212216       0.01549479      -0.03087822
H        2.24293356       3.12495153       9.71904682       0.00185141       0.00376248       0.00890352
H        3.22858651       2.39538057      10.88066193       0.00611695      -0.01458009       0.00804931
H        3.85248258       3.06325216       9.54005909      -0.01378475      -0.00464694      -0.00475874
N        8.43500363      10.82875498       0.92052752       0.00570206       0.00433178      -0.00089711
H        8.08817889       9.93522064       1.25213063      -0.00352699       0.01427140       0.01568834
H        7.76983261      11.50901681       1.27432011       0.01230084       0.01844627      -0.01659092
H        9.32846384      10.99948452       1.38925973       0.00744104       0.00501657      -0.00412214
N       -0.12264408      11.11301900       1.79720908       0.00504100       0.00020150      -0.00053184
H        0.31431325      11.85354007       1.26110787       0.01373519       0.00154802       0.00787689
H        0.21077399      10.23117043       1.40902490       0.00839311       0.00169127       0.00125719
H        0.26891867      11.17598641       2.72939670      -0.00636359      -0.00336674       0.00534108
N        4.87459016       1.37669527       1.05914381      -0.00693340       0.00275040      -0.00555998
H        5.01544099       0.43956635       1.42471917      -0.01403060       0.00348254       0.00330602
H        4.31662126       1.84861566       1.76549359      -0.00745819       0.01123375      -0.01037521
H        5.78443086       1.83384965       1.07744981      -0.00597321      -0.00394423      -0.00667431
N        8.73266519       2.43728420       4.67842586      -0.01796244      -0.00886005      -0.00983625
H        8.57637382       1.99328670       3.78035129      -0.00467909      -0.00303291      -0.01299649
H        8.18067392       1.92677253       5.35761615      -0.00885083      -0.02487932      -0.01576886
H        9.70677172       2.29160185       4.91487729      -0.01347236       0.00796682      -0.00684645
N        1.48579666      -0.15824354       8.89771235      -0.01767701      -0.00535368      -0.00372472
H        2.11835237      -0.95144845       8.81831457      -0.01402593      -0.00276792      -0.00271246
H        1.84963523       0.41078383       9.65619737      -0.02250975      -0.00605246       0.00034311
H        1.59143901       0.41500665       8.01804089      -0.01544531      -0.00154099      -0.00094116
N        0.36634422       5.28693340       4.95239220       0.00119513      -0.01129908      -0.00415695
H        0.53864674       4.29052795       4.86167678       0.00436531      -0.01034438      -0.00858913
H        1.00226802       5.59712790       5.68234169      -0.00193250      -0.01295453      -0.00097016
H        0.71524592       5.73233506       4.09736445       0.00308402      -0.00618594      -0.00116837
N        3.36278166       4.21589931       3.53698626       0.00092001      -0.00215193      -0.00855961
H        3.69959546       4.46452707       2.60333484       0.00096723      -0.00625669      -0.00845526
H        2.44437089       4.63059889       3.62977344      -0.00045726      -0.00129910      -0.01124964
H        3.23258695       3.20444807       3.59228388      -0.00019546      -0.00197122      -0.00213730
N       11.83566874       8.44312750      -0.01052634       0.01740401       0.00339220      -0.00288033
H       11.01095013       7.86697313      -0.19481921       0.01818156       0.00325857      -0.00417024
H       12.64232968       7.90448506      -0.31043770       0.01767126       0.00532874      -0.00392704
H       11.79260655       9.21151031      -0.67074725       0.01617773       0.00481299      -0.00246499
N        2.26477537       7.07240299       8.97417715      -0.00105099      -0.00962198       0.00516898
H        2.60928876       6.94473469       8.01914802      -0.00147256      -0.00713649       0.00483026
H        1.25264871       7.06452296       8.90017706      -0.00081833      -0.00730558       0.00602310
H        2.50070687       6.20520696       9.45052389      -0.00259919      -0.01244687       0.00192573
N        4.69356806      11.02321911       7.64752044      -0.00893694      -0.00088944       0.00138484
H        5.67870442      11.19192393       7.82039150      -0.01148994       0.01306327      -0.00069035
H        4.31224189      11.94985011       7.46931173      -0.02210465      -0.00523745       0.00425459
H        4.64341732      10.52824134       6.76119160      -0.00478169       0.00047369       0.00059986
N        8.87963407       5.59714796       6.09584459       0.00010768      -0.00633158      -0.00212415
H        9.85556715       5.76925700       5.85008046       0.00234921      -0.01471122      -0.00252768
H        8.66724438       4.71689969       5.62868382      -0.00814958      -0.00348817      -0.00413381
H        8.32407799       6.28477414       5.59504893       0.00714925      -0.00001809       0.00062801
N        6.35300914       4.81375982       4.27252861      -0.00108905       0.00067355      -0.00772650
H        5.38508708       4.60827691       4.01971655      -0.00298320       0.00156786      -0.00380172
H        6.31193906       5.09884919       5.24642153      -0.00073476       0.02591644      -0.01546177
H        6.87501916       3.94407798       4.25941545      -0.00827515      -0.00313205       0.01526576
N        2.52554881       1.23876207       3.87380983       0.01243336      -0.00745142       0.04434586
H        1.78679980       1.24702748       3.18296767      -0.02085203      -0.01250127       0.00169809
H        2.08856410       1.23060576       4.79726859       0.00657760      -0.00221906       0.00759575
H        3.02627518       0.36505000       3.75703093       0.00177066       0.00441469       0.01668659
N       10.28695611       1.18343594       7.49795993      -0.00171408      -0.00313277      -0.00442761
H       11.17561851       1.34622050       6.99288058       0.00078118      -0.00202846       0.00152270
H        9.92797253       2.07131664       7.90370924      -0.00285771      -0.00409815      -0.00272590
H        9.58493243       0.78527319       6.87975926       0.00085738      -0.00010060      -0.00960910
N        7.22528376       6.70901904       1.73926612       0.00979505       0.00828121      -0.00080836
H        6.92688010       6.07985637       2.49154832       0.00589006       0.00142394      -0.00827687
H        6.36640542       7.02751324       1.29772702       0.01164023       0.00785584      -0.00636381
H        7.55605471       7.52966189       2.23534211       0.00078033       0.00622946       0.00782411
N        4.05657665       2.65450234       6.83605168       0.00290215       0.00502200       0.00107865
H        4.44168558       2.66849438       5.89596540       0.00299940      -0.00549011       0.00200862
H        3.93129354       3.63372069       7.07319755       0.00487398       0.00969045      -0.00907766
H        3.12258103       2.25059544       6.74095313       0.00201270       0.00786532       0.00550931
N        6.48853554       8.77391641       8.92472036       0.00409302       0.00284776      -0.01710760
H        5.64107845       9.32145812       8.78183733       0.00759222       0.00604523      -0.01191752
H        6.31924586       8.22576593       9.76475204       0.00335170       0.00801281      -0.00550842
H        6.52483987       8.11795525       8.15137999      -0.00524441      -0.00310036      -0.00648313
N        8.36885016      10.36862283       6.43408460      -0.00147465       0.01115996      -0.00494602
H        8.85383465       9.47869799       6.49738689       0.00072090       0.01269774      -0.00201456
H        8.40765933      10.60020742       5.44566531      -0.01532721       0.00354704      -0.00712034
H        7.39217560      10.14746742       6.59870426       0.00116172       0.01258770       0.01206495
N        9.79259359       4.80261185       2.40826506      -0.01911171      -0.00683375       0.00839472
H        8.89913512       4.41206096       2.69218057      -0.00912788       0.00105166       0.04637347
H        9.56134224       5.73074610       2.06782478      -0.02861593      -0.01495491      -0.00710684
H       10.31304215       4.93063247       3.27107578       0.00916632       0.01163404      -0.01141089
N        9.20754214       3.66726414       8.66321876      -0.00459330      -0.00350061      -0.00076844
H        8.25760978       3.50247921       8.98476523      -0.00445985      -0.00630782      -0.00249467
H        9.15438572       4.45155074       8.01306836      -0.00592174      -0.00731154      -0.00467970
H        9.75481944       3.95398392       9.47403806      -0.00858528       0.00586377      -0.00066508
