149
Lattice="12.636448327460215 0.0 0.0 0.0 12.636448327460215 0.0 0.0 0.0 12.636448327460215" Properties=species:S:1:pos:R:3:forces:R:3 energy=-271522.0 stress="0.0004765625635627657 0.00036751879088114947 -0.00016936899191932753 0.00036751879088114947 -0.0005252051050774753 -0.00024357265647267923 -0.00016936899191932753 -0.00024357265647267923 -0.00026761609478853643" pbc="T T T"
Cd      12.42871633      12.80156742       0.59085607      -0.01006061      -0.00667863      -0.01067341
N       10.88561876      13.41253921       1.78813890      -0.00027937       0.01181513      -0.02812337
C       10.10229754      13.62833607       2.63617501      -0.02254111       0.03663970      -0.02236521
N        0.64099599      12.58888159      11.37219343      -0.01458237      -0.00811698      -0.01232898
C        1.26204064      12.21547313      10.45573096      -0.01665470       0.00055171      -0.01575648
O        3.90764767       0.56090236       3.26352079       0.00737673       0.00836396       0.00614676
O        4.73710045       2.63258543       3.35144093       0.02017930       0.00319010      -0.00626270
C        6.26165676       0.76609785       3.11615792       0.00954753      -0.00302163      -0.01671603
C        4.95237938       1.45583459       3.25778249       0.01361615       0.00180161      -0.00569116
H        6.39093895       0.08962573       3.96119141       0.01310298      -0.00881788      -0.02192309
H        6.29395144       0.17452970       2.19981059       0.00270612       0.00207928      -0.02025822
H        7.07127286       1.48878952       3.10518583       0.01193173      -0.00555886      -0.01786717
H        3.08413638       1.06807884       3.33354966       0.01387936       0.01708436       0.01977718
O        8.32478576       6.04334061       4.39319749       0.00958133       0.01519680      -0.00964528
O        9.36150800       5.37356281       2.52374396       0.01666355       0.01831495      -0.00633782
C        7.09171579       4.65926134       2.94584036       0.02233845      -0.00131050      -0.00602344
C        8.37337869       5.36513367       3.22512167       0.01602858       0.01151533      -0.00734234
H        6.91326942       3.90767856       3.71461157       0.02929395       0.00007312      -0.00272270
H        6.26224815       5.36279765       3.02634126       0.01533899      -0.00914373      -0.00953438
H        7.10562722       4.19087893       1.96738069       0.02666709      -0.00335151      -0.00511423
H        9.17784500       6.50522485       4.49119256       0.00798792       0.01839267      -0.00833257
O       11.57863009       1.60288317       7.35875662       0.01351437       0.00737704      -0.01187897
O       12.80688829       3.15209154       8.41729510       0.00434470       0.01530987      -0.01315522
C       11.00272606       2.05162916       9.58387199       0.00817758       0.00907508      -0.01333582
C       11.90157964       2.34647191       8.42301323       0.00836509       0.01071370      -0.01266988
H       10.00212669       2.43388782       9.36720529       0.01150192       0.02055471      -0.00866225
H       10.90305265       0.97357799       9.69327327      -0.00245880       0.00953263      -0.02046069
H       11.39168214       2.51373533      10.48568921       0.01361075      -0.00031110      -0.01085804
H       12.12156381       1.90764722       6.61771556       0.01069489       0.01139262      -0.01235485
O        8.49692342       5.41530273       7.39055983      -0.02814162      -0.01087338      -0.01492593
O       10.14309938       4.10923046       6.59658753      -0.01805595      -0.00018275      -0.01172805
C       10.71054757       6.27049784       7.45528732      -0.03207156      -0.00358987       0.00645582
C        9.78793576       5.14506588       7.09857277      -0.02573934      -0.00456119      -0.00774550
H       10.55542225       7.09620181       6.76118227      -0.03195255       0.00199731       0.01290172
H       10.50224517       6.64975529       8.45361985      -0.03928623      -0.01371585       0.00900449
H       11.73936306       5.93000877       7.37771656      -0.03019451       0.00140809       0.00904195
H        7.95510573       4.64758634       7.11099203      -0.02438097      -0.01219797      -0.02107358
O        2.47092186       6.39954066       0.73487944       0.02025425      -0.01517296       0.00524658
O        3.62364482       8.04486918      -0.25825821       0.00196177      -0.00315237       0.00398028
C        3.98667664       7.59572922       2.07700623       0.00647694       0.00274268       0.00458455
C        3.36053788       7.39447680       0.73346929       0.00913087      -0.00556445       0.00456214
H        3.22488735       7.77847587       2.83596415       0.00376002      -0.00094642       0.00277609
H        4.50253790       6.68282586       2.37208944       0.01329220       0.00768857       0.00801647
H        4.68677388       8.42242712       2.04337448      -0.00020292       0.00842196       0.00343316
H        2.28665476       6.16850515      -0.21197524       0.01803841      -0.01537547       0.00561927
O        6.51276336       9.28013291       8.70332058      -0.00416616      -0.01336035       0.00361288
O        7.02772798      11.45438718       8.56022774      -0.01056433      -0.01209354      -0.00034696
C        5.96358162      10.62737795      10.56141037      -0.00914487      -0.01088278       0.00075746
C        6.54876768      10.54083784       9.19305388      -0.00859874      -0.01254112       0.00100839
H        4.93252570      10.27334410      10.54426337      -0.00881463      -0.01188303       0.00246195
H        6.52705510       9.97762559      11.23279584      -0.00841603      -0.00939132       0.00158556
H        6.00181788      11.65321510      10.91514985      -0.00992559      -0.01014163      -0.00149620
H        6.92337996       9.28632034       7.82262397      -0.00158520      -0.01433513       0.00456026
O        3.24941776      10.86893240       2.15166385      -0.02359316      -0.00624031       0.04042821
O        1.51562303      12.21708951       1.87507622      -0.01153588      -0.00111270      -0.00789919
C        1.30370669       9.90066937       1.23608257      -0.00254042      -0.00153929      -0.00935856
C        2.01811832      11.08478489       1.77241138      -0.01282728      -0.00296441       0.00830526
H        1.77950787       9.57553358       0.30864834       0.01079306       0.00775868      -0.00598377
H        1.37314557       9.08260813       1.95293798      -0.01038127      -0.00760680      -0.01572004
H        0.24942578      10.11614817       1.06992019      -0.00052503      -0.00189753      -0.02384489
H        3.62233996      11.71864447       2.50623070      -0.02318919      -0.00538033       0.03831498
O        7.05814654       3.49870142       9.66864142       0.01011115      -0.01178414       0.00104462
O        6.06838127       3.01367985      11.62307498      -0.00174953       0.00054294      -0.00184667
C        5.46015663       1.75891564       9.65664686       0.00257570      -0.00426412      -0.00024408
C        6.19637589       2.79592749      10.44162892       0.00350881      -0.00469798      -0.00038362
H        4.97685788       2.20786652       8.78779661       0.00921561      -0.00432818      -0.00398798
H        6.15879940       1.01219454       9.27067528       0.00104216      -0.00864443       0.00546812
H        4.71740801       1.27612186      10.28441662      -0.00312331       0.00137844      -0.00246102
H        7.47731957       4.17190225      10.23852794       0.00882337      -0.00971103      -0.00052059
O        2.94039121      10.58996343       8.65514370      -0.01181306       0.01213595      -0.00211847
O        1.32054635      10.47541150       7.09915437      -0.01595235       0.00146213       0.00324047
C        3.35495790       9.22828579       6.78600365      -0.01194847       0.00758207       0.00155821
C        2.41776043      10.15687081       7.50120302      -0.01338446       0.00648779       0.00098796
H        4.34852005       9.67209226       6.73847277      -0.01250453       0.00886729       0.00236674
H        3.44500774       8.30555076       7.36112311      -0.01126634       0.00793360       0.00212483
H        2.98475295       9.00427261       5.79021978      -0.01075322       0.00637496       0.00131850
H        2.29170987      11.17418292       9.12301991      -0.01326340       0.01135805      -0.00215568
O        8.15612215       5.74604788      11.02816663       0.00156236      -0.00539056      -0.00695299
O        7.88687979       7.94543983      11.30971316      -0.00707150      -0.00802481       0.00514086
C        5.99526016       6.62221815      10.61654579      -0.00107723      -0.01189353      -0.00471005
C        7.40419579       6.87606542      11.01764717      -0.00271073      -0.00831211      -0.00135355
H        5.97824807       6.38153680       9.55176918       0.00199055      -0.00721707      -0.00586963
H        5.59950776       5.76118078      11.15735725       0.00201194      -0.01617752      -0.00922291
H        5.38849945       7.50157446      10.80289994      -0.00499406      -0.01523638      -0.00182078
H        9.05495659       6.00462127      11.30795917       0.00002024      -0.00341433      -0.00375620
O       10.33701049      10.51356578       1.79063054      -0.02020705       0.01973134       0.00283431
O        8.13779935      10.60550391       1.35060810      -0.02659661       0.00632465       0.03389673
C        9.18199439       8.45384930       1.57917811      -0.00941422       0.01238036       0.00750711
C        9.12770610       9.94471462       1.53474598      -0.01965243       0.01215065       0.01669310
H       10.19692585       8.06827944       1.50935199      -0.00756802       0.01888176      -0.00016825
H        8.78342583       8.13185735       2.54306367      -0.00390071       0.00388808       0.00694484
H        8.54576382       8.03940861       0.80255128      -0.01043877       0.01309006       0.00766806
H       10.18293943      11.47517137       1.88983047      -0.02516210       0.01873326       0.00430267
O        6.60317184       3.25923557       6.40406688       0.01052594      -0.00220865       0.00108419
O        5.81263217       1.17837647       6.13678171       0.00442910       0.00234079      -0.01359788
C        8.16423012       1.46727212       6.52252958       0.00325006      -0.00943986       0.00182497
C        6.75265846       1.90996912       6.34705261       0.00635147      -0.00290090      -0.00451694
H        8.60464557       1.32452632       5.53021475       0.00855624      -0.00486568       0.00353654
H        8.76721546       2.21549279       7.02691086       0.00299673      -0.01492676       0.01018020
H        8.18899283       0.51595988       7.04867954      -0.00435547      -0.01257277      -0.00350401
H        5.64867880       3.45241996       6.27446576       0.01158226       0.00163352      -0.00087754
O        2.16283095       7.02885493       9.40416688      -0.00729042      -0.00337493       0.00973791
O        2.46709528       5.42723885      10.94515647       0.00299302      -0.00855112       0.00242656
C        3.33524669       5.08900254       8.75291623      -0.00198707       0.00371879      -0.00162208
C        2.64070588       5.85993624       9.81845631      -0.00193381      -0.00326325       0.00341916
H        2.60210902       4.39915167       8.32835604      -0.00055744       0.00257862      -0.00212479
H        3.71192493       5.72435797       7.95623760      -0.00690809       0.00866014      -0.00004095
H        4.13215304       4.48978915       9.18372138       0.00182082       0.00535892      -0.00636514
H        1.59671784       7.40673972      10.11526439      -0.00632207      -0.00737265       0.01289141
O        9.57443049      10.83103540      10.75127873       0.00171453      -0.00174540       0.00874546
O       10.11786465      11.73015184       8.76101303      -0.01129118       0.00885463       0.01027811
C       10.15424708       9.34184966       9.01623749       0.00212020       0.00795305       0.00015974
C        9.95442847      10.75887945       9.44734230      -0.00307417       0.00513107       0.00674474
H       11.19451146       9.06576675       9.20613788       0.00254723       0.00942988       0.00065671
H        9.49277592       8.67319113       9.56432328       0.00277777       0.00343283      -0.00441666
H        9.97799506       9.27498172       7.94693264       0.00399188       0.01313841      -0.00048608
H        9.38543088      11.76221743      10.93700421      -0.00132015      -0.00307089       0.01290303
O        7.33074669       8.19097179       6.08366223       0.00642726      -0.00002545       0.00892434
O        5.59616691       7.47615199       4.84739307       0.00280833       0.00151283       0.01305215
C        6.37960177       9.73990733       4.57297475      -0.00186399       0.00353736       0.01696017
C        6.35705763       8.35815306       5.14499376       0.00243080       0.00180602       0.01296648
H        6.33859067      10.48958039       5.36575265       0.01011077       0.00202905       0.01899311
H        7.31145821       9.90209820       4.02767606      -0.00863361       0.00232631       0.00484799
H        5.54464166       9.86490612       3.89043270      -0.00986695       0.00678464       0.02731010
H        7.34424900       7.24984306       6.33063666       0.00880934      -0.00099725       0.00635521
O        2.10782046       2.63171772       5.22795472       0.02670714      -0.01367188      -0.00075209
O        3.86308120       3.58960020       6.21705100       0.01466852       0.00688571       0.00101632
C        2.67354323       4.83862988       4.54590461       0.00771126      -0.01033789      -0.00656262
C        2.97589454       3.65537889       5.39789318       0.01658177      -0.00448054      -0.00183016
H        2.39036670       4.54973561       3.53635338       0.01322296      -0.01638231      -0.00636035
H        1.83133592       5.37868085       4.98727510       0.00148042      -0.01697338      -0.01031381
H        3.53625592       5.49834894       4.52759098       0.00176308      -0.00257808      -0.00653042
H        2.35440070       1.95551808       5.87993954       0.03041378      -0.00893295       0.00284678
O       10.84449394       7.24222848       4.19764379       0.01472381       0.00131953       0.00024211
O       12.83693021       8.17846246       3.79468269       0.01591319      -0.00219184      -0.00204852
C       11.18722281       9.43859067       5.02298934       0.02226485      -0.00157350       0.00498912
C       11.74516984       8.26257636       4.29342539       0.01697063      -0.00130774       0.00070016
H       10.75796390      10.10768954       4.27196432       0.03898334       0.01028788       0.00604869
H       10.38351958       9.15498000       5.69929928       0.01163960       0.00162735      -0.00645393
H       11.97903163       9.96546135       5.55022533       0.02276108      -0.01533680       0.01840486
H       11.17615293       6.56494286       3.58451964       0.01022154       0.00182259      -0.00285310
O       10.64740708       6.93999410      11.61425434      -0.01079793       0.00471699      -0.00832623
O       12.68609641       7.65852431      11.05602291      -0.00373366      -0.00116779       0.00995515
C       12.06087779       5.36763871      10.59151886      -0.00252931      -0.00209218       0.01359124
C       11.87690748       6.75763377      11.08923330      -0.00553751       0.00038981       0.00561409
H       12.63252915       4.79847638      11.32617427       0.00453067       0.00513305       0.01358467
H       11.10469926       4.87876905      10.42426213      -0.00127020      -0.00688437       0.02122478
H       12.64048036       5.35670221       9.67399461      -0.00735906      -0.00531432       0.01021349
H       10.52796579       7.86750143      11.87377208      -0.01422442       0.00594532      -0.01443569
