147
Lattice="17.266028277408296 0.0 0.0 0.0 17.266028277408296 0.0 0.0 0.0 17.266028277408296" Properties=species:S:1:pos:R:3:forces:R:3 energy=-1526046.875 stress="4.208245445624925e-05 0.00010525862307986245 -0.0001369951496599242 0.00010525862307986245 0.00017551473865751177 -5.191404670767952e-05 -0.0001369951496599242 -5.191404670767952e-05 0.00032116888905875385" pbc="T T T"
Cd      17.46260263      15.66654928      -0.15015333       0.01885803       0.02004391      -0.01776819
S        7.39171485      16.96584967      10.84782203      -0.00211942       0.00215974       0.01578870
O        6.83050840      16.94101104       9.50309680      -0.00384808       0.00190002      -0.00435948
O        7.04106988      15.79709207      11.65313492      -0.01274514       0.01462245       0.00347841
O        7.10450286      18.22308089      11.56182281       0.00571752       0.00585413      -0.00314474
C        9.16567005      16.91748837      10.64369179      -0.00393856      -0.00773013       0.00565478
H        9.46399682      17.80596539      10.09027087       0.00415301      -0.00962432       0.00721448
H        9.63596353      16.88703686      11.62498594      -0.00375555      -0.01000928       0.00630166
H        9.40378753      16.02204969      10.07559127      -0.00802571      -0.00936849       0.00719354
S        9.30170408      15.97330925      15.39003866       0.00116611      -0.01972049      -0.01382393
O       10.29936304      16.22128618      14.34223578      -0.00773430      -0.01635629       0.00208879
O        9.66763412      16.56129833      16.68062241       0.00701708      -0.00557804       0.00415039
O        8.95390488      14.55135677      15.50281253      -0.00283974       0.00061941       0.00389421
C        7.81272769      16.79712340      14.86196549       0.00705314      -0.00456637      -0.00263461
H        7.52890732      16.39757397      13.88941460      -0.00020547      -0.01172284       0.00093158
H        7.04381412      16.59083287      15.60458334       0.00662939       0.00970145       0.00083545
H        8.00434259      17.86560012      14.80519214       0.01782385      -0.00767943      -0.01627598
Cl      12.48709666       3.88573893       4.20475407       0.00472343       0.00266024       0.00017056
Cl      12.21898152       6.41485615       5.60813057       0.00883505      -0.01125258       0.02313790
Cl      11.25339056       3.97273458       6.82526747       0.00458713      -0.01935068       0.00377071
Cl       9.87152986       5.08967205       4.53733246       0.00643253      -0.00055040       0.01292074
C       11.45365020       4.84077199       5.29146936       0.00640171      -0.00725721       0.01060116
Cl       5.98937115       5.96800346      15.19797215      -0.00477710      -0.00188438       0.00601435
Cl       6.94421824       5.12113210      12.60893780       0.00660449       0.00448596       0.00776497
Cl       5.70624757       7.72860981      12.90809201      -0.00591978      -0.00207627       0.00639483
Cl       4.10355342       5.32245583      13.08435417       0.00448525      -0.01088652       0.00135142
C        5.69514452       6.03331411      13.43962829       0.00003022      -0.00266270       0.00540447
Cl      16.61918455      14.95590490      10.22682028      -0.02813056      -0.03254107       0.00067461
Cl      15.82526426      15.66047064      12.92655348      -0.00181702       0.00853354      -0.00298941
Cl      14.08158716      16.27797611      10.70135079      -0.00693291      -0.00921210      -0.00996719
Cl      16.56306464      17.73939723      11.03478652       0.00174502      -0.01586205      -0.01133621
C       15.77269962      16.16110348      11.22635593      -0.01002898      -0.01142266      -0.00655810
Cl      10.04725888      10.11421762       6.37128637       0.00353557       0.00601523      -0.00001358
Cl       7.77427031      10.34816240       8.14885983       0.00190988      -0.00248279       0.00048709
Cl       7.35091600       9.84694031       5.32744142       0.00281304      -0.00529999       0.00191495
Cl       8.31324099      12.42768245       6.20472391      -0.00376698      -0.00122380      -0.00157830
C        8.37230982      10.68256432       6.51597236       0.00106583      -0.00064560       0.00037118
Cl       1.83246729       4.57215260       4.19583346      -0.01177579      -0.00742772      -0.01029947
Cl       3.78908816       4.38277801       6.31722445      -0.00838998       0.00093669      -0.00993973
Cl       4.38583329       3.28892206       3.70310842      -0.01272920      -0.01114298      -0.00606906
Cl       2.43545071       1.99518683       5.39734913      -0.01193550      -0.00096554       0.00291894
C        3.11007429       3.56274667       4.90390942      -0.01122686      -0.00437468      -0.00584432
Cl       3.80931902      15.48106540       9.68610868       0.00331430       0.01008445      -0.00212300
Cl       4.62051374      16.63409512       7.15243612       0.00124210      -0.01811495      -0.01175439
Cl       3.74107105      18.35150860       9.31913785       0.00425453       0.00551993      -0.01948696
Cl       1.83098900      16.66716471       7.92856003       0.00111300       0.00470747      -0.00977525
C        3.52138837      16.78300679       8.53573827       0.00370610       0.00122044      -0.01098002
Cl      14.03473749      11.37039411       6.24214309      -0.00361796       0.00784111       0.00741568
Cl      13.08533840       9.18836405       7.89679250       0.00748789       0.00592513       0.01604369
Cl      15.66387770      10.37879684       8.43289919       0.01065084       0.00883672      -0.00452471
Cl      15.28939560       8.76336125       6.05672125      -0.00893879       0.00912654      -0.00413966
C       14.51961386       9.92847762       7.15880338       0.00095703       0.00756270       0.00432172
Cl      14.66309391       9.08631913      12.87573218      -0.01592675       0.01837132       0.00236405
Cl      16.57901430      10.98907008      11.81173261      -0.00565198       0.00810623       0.00228219
Cl      17.07259669       8.13741066      11.57745844      -0.02100463       0.00705266      -0.00698400
Cl      17.23920945       9.43686234      14.16402340      -0.01011235      -0.00584190      -0.00235343
C       16.38981930       9.40556911      12.60824481      -0.01268081       0.00703993      -0.00127723
Cl       6.95516229       6.52962760       7.16393538      -0.00077793      -0.00121945       0.00070658
Cl       8.49941669       5.27846568       9.27897565      -0.00076073       0.00113634       0.00081101
Cl       7.35267195       3.66103232       7.16993941      -0.00371852      -0.00219339       0.00165880
Cl       5.63227151       4.89313326       9.15580299       0.00001752      -0.00015764       0.00239900
C        7.11343397       5.08806459       8.18922076      -0.00093040      -0.00105810       0.00123951
Cl       3.01736424      10.03303509      11.44664796       0.00836509       0.00438016       0.00476742
Cl       4.61144125      11.66479259       9.66564452      -0.00563097      -0.00300717      -0.01407499
Cl       2.10648823      10.54217617       8.73634744      -0.00669074      -0.01453356       0.00596178
Cl       4.38147506       8.80553277       9.20316986       0.00049257      -0.00599146       0.00455949
C        3.53148178      10.26552069       9.76279471      -0.00096765      -0.00503200       0.00029293
Cl       7.63141811      -0.29235461       2.30755868       0.01427490       0.00794375      -0.01321316
Cl       7.05911502       0.95565855       4.86032774       0.01020041      -0.00756928      -0.00607944
Cl       7.60610387       2.59465457       2.52092775      -0.00516124       0.00692970      -0.00034142
Cl       9.73411019       1.07424246       3.75478877       0.00714284       0.01520061      -0.01137589
C        8.00297066       1.06601466       3.35686390       0.00632685       0.00532384      -0.00789938
Cl      13.04949852      12.59273116      16.92397563       0.00407401      -0.00419477       0.01225603
Cl      14.22273033      12.53049342      14.28405369      -0.00797382      -0.00808474       0.01004910
Cl      15.24329473      14.44891873      16.27508392      -0.01175904       0.00882894      -0.00292632
Cl      12.54031279      14.75994850      15.08175780      -0.01251519      -0.00801104       0.00778547
C       13.68007090      13.56578925      15.60581261      -0.00433779      -0.00228508       0.00840881
Cl      14.89806996       9.33974823       0.15138946      -0.01052374      -0.00331628      -0.00381127
Cl      16.08717317       8.29390725       2.57514380      -0.00296201       0.00243431      -0.00192250
Cl      15.11984445      11.02254147       2.50405819      -0.01487938      -0.00389510      -0.00273350
Cl      17.49433413      10.29654611       1.01198193      -0.01427707       0.00506836      -0.00724299
C       15.89343900       9.74763569       1.55399842      -0.01089306      -0.00039477      -0.00407261
Cl      17.50423188       1.94774046       1.57691138       0.00058293      -0.00565025       0.02267492
Cl      15.70884992       4.16844662       2.07193811       0.00204226       0.00251228       0.00591267
Cl      16.19526150       2.21505063       4.15131068      -0.01825408       0.01150885       0.01263267
Cl      14.64971536       1.48119126       1.81330802       0.00084096       0.00041941      -0.00125521
C       16.01800920       2.45607065       2.41222664      -0.00414615       0.00161130       0.00976799
Cl      12.20739555       7.05807542      19.29372567      -0.00153610       0.00406367      -0.00628471
Cl      11.73824611       7.40726098      16.45644420       0.00285089      -0.00628215      -0.00735855
Cl       9.84481172       5.91832181      18.06353777      -0.00187790       0.00062643      -0.00625243
Cl      12.46287627       4.79923609      17.50062293      -0.00155145      -0.00271100      -0.00077329
C       11.56770822       6.29664078      17.82428929      -0.00064416      -0.00159122      -0.00435545
Cl      15.42565412      15.98347051       4.71874159       0.00348604       0.00110927       0.00904480
Cl      13.09827090      17.48424744       5.58575515       0.00480613       0.01352948      -0.00721176
Cl      15.49559031      17.45230822       7.21096161      -0.00554416       0.00693962       0.00474799
Cl      13.86936228      15.06336559       6.97980341      -0.01608932       0.01340148       0.00113007
C       14.46691643      16.49510053       6.12051921      -0.00280616       0.00808337       0.00204360
Cl       3.55124979       8.24067485       5.45279567       0.01158719       0.01401119       0.00396442
Cl       5.02294894       6.87397052       3.36846735       0.00535595      -0.00127384       0.01136081
Cl       4.61542127       9.73825554       3.20541670       0.00334051      -0.00350571      -0.01276602
Cl       2.38798321       7.94487704       2.80960770       0.00138068      -0.00353434       0.01019558
C        3.89612665       8.20092189       3.71066133       0.00523284       0.00095181       0.00297209
Cl      10.81060312       4.83699288      12.35792102       0.00633344      -0.01323760      -0.01052850
Cl      11.75296169       2.43690159      13.69896577       0.00205076      -0.00155377       0.01212774
Cl       9.07594244       2.50895935      12.58901874       0.00299150      -0.00431913       0.00547433
Cl       9.71985507       4.09068281      14.93737808       0.00585228       0.00844637      -0.00286603
C       10.33287025       3.45024446      13.39196568       0.00333418      -0.00281631       0.00087984
Cl       6.81081535      13.90470080      -0.10614371       0.01816809       0.00639036       0.01008892
Cl       6.38660945      12.62325420       2.45661672       0.00062117       0.00362021       0.00605917
Cl       4.63856400      12.00350166       0.22486976       0.01421177       0.00987780      -0.00582641
Cl       4.48171702      14.59777087       1.50990396       0.00849387       0.00771326      -0.00076774
C        5.59257635      13.29233218       1.00137984       0.01066300       0.00805426       0.00259612
Cl       0.73382107       5.56188847      14.57831698       0.00643434       0.00845116      -0.00917545
Cl       2.48085112       4.63449298      16.70042607      -0.00302437       0.01069739      -0.00281836
Cl       0.32897782       6.48871611      17.29079426      -0.00913119       0.00934899      -0.01018733
Cl       2.63440540       7.38663723      15.80215990      -0.00319913       0.01289099       0.00151999
C        1.54707685       6.01592486      16.09282421      -0.00239038       0.01042417      -0.00433505
Cl      10.92663132      13.32184792       9.08937301      -0.00118424      -0.00271073       0.00152153
Cl      10.58996567      10.92440364      10.68122258       0.00161740       0.00469959       0.01080805
Cl      10.78518425      13.51162490      11.98441232       0.02137014       0.00847638      -0.00013936
Cl      13.11773703      12.33819720      10.71121032       0.00846839      -0.00127780      -0.00557402
C       11.34591148      12.53633898      10.63375918       0.00857252       0.00130202       0.00105627
Cl       2.30179444       1.72134251      14.10770839       0.00603294       0.01115274       0.02243243
Cl       2.09114188      -1.15896435      13.89980511      -0.00191909       0.01403159      -0.00747287
Cl       3.78083358       0.01946955      15.93586596      -0.00045685      -0.01168790       0.00626540
Cl       4.56673966       0.17807165      13.15162673       0.00508821       0.01257123       0.01004124
C        3.21147961       0.19407435      14.25035415       0.00287649       0.00713791       0.00722341
Cl       1.36276852      11.17621298       4.71371637      -0.00432094      -0.00509375       0.00573766
Cl       0.78810870      13.73055907       3.46807393       0.00604926      -0.00548416      -0.00365269
Cl       2.96285055      13.50984250       5.37070171      -0.00104100      -0.00775245       0.00012212
Cl       0.22609555      13.32196950       6.29184395      -0.00120604      -0.00116033      -0.00130847
C        1.34328825      12.92960047       4.96841775      -0.00170848      -0.00395172      -0.00092772
Cl       9.37826427      11.22949221      16.95867900       0.00829019      -0.00072324      -0.01332712
Cl       8.11766806      11.54821079      14.37290191       0.00385833      -0.01156014      -0.01065123
Cl       8.37020300       8.90959045      15.54474614       0.01677266      -0.00991434      -0.00627597
Cl      10.72524054      10.30647908      14.56473686       0.00845301      -0.00333667      -0.01712984
C        9.13629704      10.50788698      15.36212713       0.00877875      -0.00599121      -0.01086015
Cl      -0.95794917       4.31742656      10.41130281       0.01102304       0.00243884       0.01032597
Cl       0.57177633       3.39911003       8.12327629      -0.00546739      -0.00054005       0.00194061
Cl       1.71681790       5.34285586       9.94762888       0.00560629       0.01014248      -0.00888902
Cl      -0.45739284       6.11387824       8.19034595      -0.00558379      -0.00249067      -0.00164342
C        0.21595155       4.78864304       9.15999654       0.00207770       0.00247735       0.00098273
Cl      10.38878652      14.71328566       4.38597694       0.00888956       0.00711283       0.00098163
Cl      10.67478577      12.31346348       2.78517231      -0.01041171      -0.00079888       0.00782511
Cl      12.90540005      14.14130737       3.09112940      -0.00019658      -0.00673866      -0.00325669
Cl      10.59828684      14.92314202       1.50015384       0.00032529      -0.00656205      -0.00149488
C       11.12988774      14.03703573       2.91117247      -0.00099119      -0.00237228      -0.00015052
