139
Lattice="12.166946789157965 0.0 0.0 0.0 12.166946789157965 0.0 0.0 0.0 12.166946789157965" Properties=species:S:1:pos:R:3:forces:R:3 energy=-255412.609375 stress="-0.0010226520244032145 -7.519456630689092e-05 0.00040449814696330577 -7.519456630689092e-05 -0.0020741382613778114 -0.0006009626376908273 0.00040449814696330577 -0.0006009626376908273 -0.0024602345656603575" pbc="T T T"
Cd      11.38753265      11.99484864       0.84411463      -0.00062600      -0.01611488       0.03148936
S        6.03292516      12.15419932      10.31771197      -0.00811404      -0.00982001       0.01662159
N        5.01589104      11.41043316       7.79455454       0.01219922      -0.02260649      -0.00916624
C        5.42417286      11.74225799       8.84573055       0.01617973      -0.00639109       0.03424925
S        3.53421862      10.05112155       1.16546377      -0.02182549      -0.01862276      -0.01385688
N        1.15585436      11.48194366       1.24257550      -0.00082880       0.02853281       0.00736800
C        2.15895899      10.84723593       1.20433294       0.00386104      -0.00435069      -0.00239738
O        8.30293803       7.21618393      10.83708926       0.00770259       0.01040106       0.02346091
N        6.60116318       8.35214225       9.81609356       0.00327038      -0.01132628       0.00736155
C        7.48574181       9.24631507       9.09725625      -0.00017595      -0.01366589       0.00091416
C        5.17313732       8.61324477       9.74912111       0.00203654      -0.02189422       0.00081165
C        7.10494642       7.40886556      10.61963689       0.00716138       0.00041935       0.01837060
H        7.45133819      10.24786044       9.53661288       0.00201009      -0.01209947      -0.00263996
H        7.15139066       9.33164826       8.06305089      -0.00417556      -0.01821827       0.00214046
H        8.48879648       8.83501710       9.14973751      -0.00002332      -0.01322462      -0.00137930
H        4.93072673       9.53844436      10.27746161      -0.00777300      -0.02250841      -0.00289677
H        4.63693518       7.77654222      10.19384858       0.00637363      -0.02502193      -0.00030383
H        4.86481518       8.74350479       8.71134058       0.00629967      -0.02728601      -0.00101262
H        6.32148463       6.80403273      11.09643168       0.00979728       0.00094002       0.02292928
O        6.32479445       4.77502341       9.77765167       0.00865448       0.00436378       0.00290340
N        8.01768726       3.41988690      10.50250114       0.01081094       0.00809255       0.00503009
C        9.05602299       4.05550554       9.72378540       0.00920372       0.00751233       0.00253496
C        8.38365057       2.24074386      11.25131402       0.01149786       0.00538707       0.00094795
C        6.74028925       3.81989310      10.42377902       0.01033795       0.00589722       0.00464284
H        9.40130274       3.37504512       8.93955641       0.00208890       0.01047447      -0.00299877
H        9.90628875       4.30775580      10.35768483       0.01385963       0.00014482      -0.00106233
H        8.65569431       4.96473507       9.28565292       0.01058213       0.01125661       0.00912792
H        8.67184083       1.42929021      10.57781722      -0.00068685       0.00360483      -0.00167182
H        7.52423803       1.89642657      11.82119659       0.01602548       0.01098293       0.01086105
H        9.20563984       2.46346933      11.92712268       0.01964760       0.00043811      -0.00744331
H        6.07679653       3.18197622      11.02707825       0.01131132       0.00661367       0.00625247
O       12.30470229      10.56896312       7.88847871       0.01254910       0.00043023       0.00142884
N       11.60364768       9.33745871       9.67969187       0.00766655      -0.00625427      -0.00536506
C       11.22025432      10.50027866      10.43536989      -0.00905366      -0.01076205      -0.00735560
C       11.50727801       8.04586516      10.33239844       0.01133599      -0.00792068      -0.00839551
C       12.16947529       9.50280160       8.45743397       0.01557249      -0.00102717      -0.00063324
H       11.93895126      10.61696929      11.26845556      -0.01513205      -0.00032120      -0.00363377
H       10.20556863      10.39900569      10.82841132      -0.00866047      -0.02299739      -0.01094510
H       11.28650401      11.37779668       9.79490515      -0.01715672      -0.01027286      -0.00691034
H       12.12875036       8.02014177      11.23326108       0.00506498      -0.00568732      -0.00422844
H       11.86587831       7.27196106       9.65687010       0.02110476      -0.00444284      -0.00688374
H       10.47003015       7.82390126      10.59395719       0.01115030      -0.01398883      -0.01507166
H       12.47755146       8.53921439       8.01543276       0.02549712       0.00188601       0.00050317
O        9.08980349       6.73109294       3.69446990       0.00110240       0.01129460       0.00802362
N        9.85122091       7.81336210       5.56549022       0.00303973       0.02230351       0.00029473
C       11.04148891       7.01075297       5.73798386       0.00672399       0.02774279      -0.00095946
C        9.70645269       8.94736540       6.44766413       0.00168025       0.02444702      -0.00294970
C        8.97842955       7.57685721       4.57147225       0.00146872       0.01567417       0.00371802
H       11.05371915       6.58034354       6.74315440       0.01117701       0.03032569      -0.00014240
H       11.93522844       7.62434490       5.59955788       0.00322801       0.03159478      -0.00487419
H       11.02784572       6.21176061       5.00955729       0.00827292       0.02624571       0.00081803
H        9.71386200       8.61431356       7.48593050       0.00654288       0.02756792      -0.00220641
H        8.75926202       9.44444952       6.25107308      -0.00079882       0.02012978      -0.00135101
H       10.52909614       9.65029743       6.30335888      -0.00100857       0.02635148      -0.00733355
H        8.11757911       8.26900132       4.61486007       0.00020769       0.01385206       0.00220549
O        1.39742274       9.98462204       4.22410578      -0.03331256      -0.00814426      -0.01424688
N        2.83736085       8.21521842       4.10082324      -0.01301341       0.00498569       0.00593831
C        2.04167040       7.47060373       3.15379875      -0.00285214      -0.00931618       0.00890162
C        4.09449053       7.62645285       4.49442863      -0.00592783       0.01958805       0.00802545
C        2.44240442       9.43387121       4.53838779      -0.02907157       0.00277418      -0.00238824
H        1.73888590       6.51212915       3.58320351       0.01322010      -0.01261517       0.01211245
H        2.62103443       7.26917206       2.25063036      -0.00212333      -0.00249567       0.00821316
H        1.16679803       8.06523834       2.90157701      -0.01189274      -0.02272609       0.00981721
H        3.93026180       6.65548070       4.96501258       0.00461394       0.01724797       0.00695513
H        4.60376714       8.28859992       5.19386969      -0.01373149       0.02436766       0.00889388
H        4.72963990       7.44763144       3.62182155      -0.00220190       0.02761779       0.00882086
H        3.17243551       9.88878369       5.23045551      -0.03471923       0.01117951      -0.00086164
O        6.39234590       2.36425805       7.64757658       0.00821501       0.00641692      -0.00134182
N        5.96404122       4.48563069       6.90412268      -0.00013667       0.00217831      -0.00799681
C        4.52841598       4.33913764       6.95946096       0.00045763      -0.00137990      -0.00608756
C        6.50297787       5.81425383       6.74551575      -0.00485301       0.00276808      -0.01692017
C        6.75991827       3.47720565       7.32090323       0.00387551       0.00612879      -0.00652659
H        4.08069203       4.65759721       6.01601069      -0.00075601      -0.00977185      -0.00825608
H        4.11973469       4.94257704       7.77641276      -0.00071842       0.00353807      -0.01059029
H        4.29810156       3.29175489       7.14257582       0.00353873      -0.00044489       0.00189213
H        6.19496088       6.24230462       5.79001368      -0.00835195      -0.00412309      -0.01869336
H        7.59088833       5.75896424       6.75493122      -0.00486425       0.00674839      -0.01852812
H        6.17625460       6.46070039       7.56664997      -0.00557156       0.00660290      -0.02041170
H        7.82152894       3.77180530       7.29697457       0.00285530       0.00943501      -0.00997086
O       11.19270726       1.99996968       0.71522420       0.00636173      -0.00729656       0.02995746
N       11.09984906       3.80031907       2.12410117       0.01029779       0.00235623       0.01670757
C       10.68980449       4.79350222       1.14351506      -0.01111209      -0.01152918       0.01201662
C       11.27689354       4.28151097       3.47985546       0.01439212       0.01540110       0.01132983
C       11.30454207       2.53614905       1.84708887       0.01699007       0.00177568       0.02428912
H       11.46085172       5.56240550       1.08497056      -0.02394041       0.00016467       0.00055894
H        9.74929923       5.23786207       1.46772617      -0.01601008      -0.02371274       0.01428261
H       10.61168751       4.32809213       0.17073350      -0.01038527      -0.02088208       0.01653981
H       12.12219088       4.97180916       3.50486559       0.00767612       0.02372238       0.00097296
H       11.46885863       3.44118450       4.14173641       0.02626868       0.02284145       0.01715934
H       10.36351312       4.78199713       3.78802435       0.01167575       0.01000610       0.01211260
H       11.58781750       1.94261557       2.72516697       0.03383881       0.01060884       0.02452298
O        8.44326235       3.57970232       4.40425684       0.00132406      -0.02948356      -0.04012924
N        7.83975230       1.45290925       4.98695007       0.00149688      -0.01805508       0.00041870
C        9.19317304       1.01441334       5.22464192       0.00184683      -0.01519068       0.00183680
C        6.76962787       0.52433325       5.28712642       0.00222075      -0.01519176       0.01104580
C        7.59580195       2.72190452       4.61174122       0.00129443      -0.02399158      -0.01926939
H        9.48975776       0.25134229       4.49799312       0.00200569      -0.02059963       0.00767237
H        9.28066891       0.59076531       6.22662351       0.00311931      -0.00725906       0.00475666
H        9.85067843       1.87526413       5.13582822       0.00107713      -0.01552588      -0.00606980
H        6.79706965      -0.32876239       4.60037321       0.00279983      -0.02242056       0.02010702
H        5.81373794       1.03321592       5.18915356       0.00202414      -0.01699986       0.00534956
H        6.82846537       0.17283733       6.31653111       0.00233712      -0.00421476       0.01452535
H        6.51730407       2.92552224       4.52047644       0.00091314      -0.02405393      -0.01480675
O        9.27693560      11.93494886       0.93290600      -0.00277764      -0.00957304      -0.02521332
N        8.41023959       9.82642545       1.27542433      -0.00128482      -0.00623339      -0.00223590
C        9.65939457       9.10604750       1.45087210       0.00078586      -0.00434870      -0.00888440
C        7.19925397       9.01941511       1.35749638      -0.00063002      -0.00621688       0.01254643
C        8.32694401      11.11551393       1.02463400      -0.00309417      -0.00885242      -0.01257487
H        9.86237943       8.50927753       0.56070321       0.01016895       0.01465382      -0.01921412
H        9.55959019       8.42702324       2.29416665      -0.00186093      -0.02043967      -0.02240580
H       10.48377293       9.79026976       1.64944700      -0.00359505      -0.00430086       0.01084918
H        7.34496859       8.12185406       0.76309965       0.00052694      -0.01629138       0.02850018
H        6.36024483       9.59200277       0.96977334      -0.00170065      -0.01437332       0.00307616
H        7.01408271       8.73040348       2.39257871       0.00028779       0.01176613       0.01754171
H        7.31200474      11.49166711       0.88950230      -0.00329886      -0.00954698      -0.01049174
O        0.70324928       4.20152519      11.43986259      -0.01350939       0.01972020      -0.02865370
N        2.74790581       3.21369773      11.20499668      -0.01286069       0.01711435      -0.01443883
C        3.49047980       4.45158480      11.27920023      -0.00947117       0.01406102       0.00147765
C        3.50387280       2.00952783      10.93625264      -0.01194121       0.01676016      -0.01084340
C        1.40990728       3.21352135      11.28800009      -0.01358682       0.01936179      -0.02697113
H        4.07897406       4.60242117      10.37269032       0.00382105       0.01571465       0.01051161
H        4.18344414       4.42409229      12.12454728      -0.02179629       0.00731526       0.01133630
H        2.78837643       5.26786364      11.41964930      -0.00821546       0.01602043      -0.00454884
H        3.95425705       2.02777729       9.94203902      -0.00416934       0.01799640      -0.00718224
H        2.86755727       1.13027651      11.01748019      -0.01343518       0.01744723      -0.01743245
H        4.31714007       1.90120743      11.65228655      -0.01786390       0.01488141      -0.00465003
H        0.98911097       2.19678509      11.21114319      -0.01484668       0.02070302      -0.03613808
O        4.18793875       4.70086648       3.20735154      -0.00740415      -0.00850630       0.00924432
N        4.23163739       2.43839207       2.87010725      -0.00682300      -0.00617616      -0.00447993
C        2.97020868       2.18885246       3.53364827      -0.00539459      -0.01105097      -0.00425602
C        4.91184048       1.29795174       2.29600457      -0.00442430      -0.00353068      -0.00664499
C        4.71781542       3.69300554       2.76497840      -0.00724530      -0.00555646       0.00282758
H        3.11200119       1.51897460       4.38424634      -0.00242725      -0.00943804      -0.00361666
H        2.27227049       1.71607096       2.83887845      -0.00265388      -0.01533808      -0.00370014
H        2.57333335       3.14110029       3.87499105      -0.00961524      -0.01266950      -0.00507677
H        5.03421394       0.51683261       3.04761095       0.00191342      -0.00263274      -0.00674361
H        5.89595941       1.60540120       1.94274043      -0.00733642       0.00005491      -0.01078691
H        4.34584379       0.87157429       1.46532735      -0.00578353      -0.00569071      -0.00445575
H        5.68044916       3.72168359       2.22471495      -0.00790560      -0.00191438       0.00215125
