146
Lattice="12.511916893142182 0.0 0.0 0.0 12.511916893142182 0.0 0.0 0.0 12.511916893142182" Properties=species:S:1:pos:R:3:forces:R:3 energy=-227237.296875 stress="-0.0018657278269529343 -0.00042125243635382503 -0.0004036928585264832 -0.00042125243635382503 -0.0012570767430588603 -0.00023619093553861603 -0.0004036928585264832 -0.00023619093553861603 -0.0016333851963281631" pbc="T T T"
Cd      12.87692892      12.32722821       0.13465675      -0.03992605       0.01770650      -0.02365276
S       11.18628831      10.18564725       0.51685651       0.00072777       0.04035047       0.01325825
S        9.48644186       9.66275652       1.34564064       0.00396991      -0.02008018      -0.00671160
O       12.17453361      10.68270062       1.55451025      -0.02475572       0.03218690      -0.01398969
O       10.92502351      11.42393575      -0.34994656      -0.01695281      -0.02051711      -0.01539123
O       11.78034676       9.12897029      -0.28397426       0.03211105      -0.01498032      -0.01107419
C        5.42822628       3.29526364      11.68947831       0.00639853      -0.00434387       0.00580499
C        6.74831471       4.05428359      11.71073945       0.00260189      -0.00270998       0.01104415
C        4.20380007       4.20154616      11.75528029       0.01384378       0.00652289       0.01338147
C        7.96609141       3.14333109      11.62114700      -0.00732530      -0.00833488       0.00229327
C        2.88798458       3.43531029      11.77485118       0.00940901       0.00706947       0.01605701
C        9.28515212       3.90083228      11.64766393       0.00730163      -0.04700503       0.01356017
H        5.37957367       2.68509868      10.78066371      -0.00277794       0.00586748       0.00538167
H        5.40451090       2.58438670      12.52205446      -0.00210212      -0.00721593      -0.00277874
H        6.80889632       4.65866801      12.62344948      -0.00005929      -0.01019844       0.01921362
H        6.77145776       4.76787226      10.87841008       0.00080696       0.00502057       0.01412341
H        4.27312065       4.83669634      12.64545611       0.00721037      -0.00599729       0.01156178
H        4.22270523       4.88385382      10.89902001       0.00085259       0.00164419       0.02228776
H        7.93864865       2.42292796      12.44453203      -0.00761976      -0.01511143      -0.00132263
H        7.89981113       2.54984449      10.70314679      -0.00270491       0.00089721      -0.00805235
H        2.80190430       2.77946805      10.90737990       0.00003098       0.00111561       0.00746869
H        2.02775053       4.10739429      11.76854761      -0.00005174      -0.00939022       0.02611589
H        2.81335140       2.80701484      12.66559745       0.00925035      -0.01044509       0.01829579
H        9.33716660       4.62492559      10.83291491       0.02465346      -0.02028888       0.02300537
H        9.40020541       4.45747317      12.57971087       0.01143946      -0.02397230       0.01046151
H       10.13402332       3.21892865      11.55081071      -0.02111956      -0.01169202       0.02298598
C        5.11722175       8.17569390       3.03138654      -0.00266051       0.00061831      -0.01263968
C        3.91239458       8.79317477       2.33837251      -0.00076330      -0.00245127      -0.01608827
C        4.82526774       6.82828507       3.67693408      -0.00532451       0.00138718      -0.01364932
C        4.21007958      10.15678195       1.72887827      -0.00516504       0.00138423      -0.01193664
C        6.02133396       6.27716612       4.43277145      -0.01062587       0.00445266      -0.00352019
C        2.97544237      10.77115092       1.08398799      -0.01012585      -0.00016768      -0.00553031
H        5.94135508       8.07219225       2.31671706      -0.00051886       0.00115123      -0.00984138
H        5.47712605       8.86495469       3.80260250      -0.00586246       0.00105336      -0.01139054
H        3.09105942       8.89609669       3.05656921      -0.00408813      -0.00757340      -0.01943961
H        3.54395525       8.11716047       1.55838398       0.00417823      -0.00103420      -0.01914832
H        3.98455715       6.94754493       4.36102847      -0.01125708       0.00028133      -0.02075908
H        4.49582351       6.11277886       2.91468703       0.00235107       0.00011340      -0.01573291
H        4.58920652      10.82177409       2.51163997      -0.00856385       0.00057542      -0.00873396
H        5.01744557      10.06022427       0.99627347      -0.00741804       0.00842416      -0.00525361
H        6.86564542       6.11020589       3.76362251      -0.00556673       0.00327635       0.00346644
H        5.79833391       5.33456321       4.93543588      -0.01392334       0.00551076      -0.00313672
H        6.35432988       6.98642992       5.19142549      -0.01712741       0.00642331      -0.00243385
H        2.57668155      10.12896174       0.29537981      -0.01278225       0.00476860      -0.00852735
H        2.17284853      10.88419502       1.81461557      -0.01069678      -0.00989472      -0.00474368
H        3.18653822      11.75275352       0.64990403      -0.02049928       0.00437585       0.00298063
C        2.92437640       2.21209218       3.82230053       0.00020352      -0.01166150      -0.00148845
C        4.36661904       2.60990846       4.11380920      -0.00174853      -0.00652897      -0.00228041
C        1.98254160       2.46913767       4.99101758      -0.00577478      -0.00985199      -0.00519121
C        5.29451947       2.37782860       2.92813871      -0.00048372      -0.00455925      -0.00115582
C        0.53126260       2.11883463       4.70144715      -0.00729051      -0.00938380      -0.00644679
C        6.74095865       2.77384502       3.19101907      -0.00172997      -0.00031734      -0.00304344
H        2.56888951       2.75408163       2.93760051      -0.00033340      -0.01349272      -0.00206587
H        2.89911340       1.14844254       3.56273285      -0.00095357      -0.01128626      -0.00080050
H        4.73383995       2.04290031       4.97752644       0.00111458       0.00054009       0.00093904
H        4.40119910       3.66647819       4.40471163      -0.01033838      -0.00519931      -0.00763629
H        2.32683903       1.89622425       5.85496017      -0.00530684      -0.00732650      -0.00162241
H        2.05156206       3.52107258       5.27794286       0.00454123      -0.00389320      -0.00535066
H        5.24529999       1.32221691       2.64058680       0.00277980      -0.00453943      -0.00080925
H        4.91211168       2.94349002       2.07273159      -0.00261436      -0.00598896      -0.00067094
H        0.14460157       2.69609269       3.85906042       0.00665796      -0.01262037      -0.00606981
H       -0.10660819       2.32136716       5.56407995      -0.00173535       0.00638048      -0.01251708
H        0.42853565       1.06139163       4.45556115      -0.00424453       0.00410873       0.01634602
H        6.82927243       3.84521909       3.36842427      -0.00282226       0.00056180      -0.00815277
H        7.13758207       2.26432897       4.07095520      -0.00012611       0.00421686      -0.00139163
H        7.38536828       2.52104334       2.34763531      -0.00271691      -0.00311763      -0.00252292
C        8.28959217       9.32097723       4.63835302       0.00390971       0.00508302       0.00076069
C        9.60146309       8.57854328       4.83732313       0.00436109       0.00553793      -0.00729871
C        8.38744989      10.83571750       4.73088342       0.00863913       0.00386408       0.00174353
C        9.44911966       7.08585073       4.57477685       0.00258464       0.00663725      -0.00804664
C        7.08548695      11.51144932       4.32171605       0.00720879       0.00443137       0.01018236
C       10.75381587       6.32529664       4.70478451       0.00094706       0.00239567      -0.01748408
H        7.90884942       9.06548168       3.64495657      -0.00526632       0.00445829       0.00460190
H        7.54414256       8.95786388       5.35744907       0.00915918       0.00648491       0.00732976
H        9.98242855       8.74082878       5.85291971       0.00738074       0.00608519      -0.00808582
H       10.34465796       8.98557372       4.14484207       0.00077921       0.00753364      -0.00938737
H        8.66728616      11.13166773       5.74743857       0.00935505      -0.00213072       0.00238720
H        9.18499262      11.16955793       4.06335564       0.00850803       0.00483893       0.00359872
H        8.70526497       6.66525617       5.25919369       0.00604668       0.00782834      -0.00359890
H        9.05242485       6.95299050       3.56370906      -0.00442886       0.00871682      -0.00542435
H        6.85997469      11.28829872       3.27651240       0.00366034       0.01013220       0.01013029
H        7.14170638      12.59536037       4.42216486       0.00398432       0.00347030       0.01695267
H        6.24207312      11.16517601       4.92663405       0.01081440      -0.00320587       0.01144937
H       11.48193325       6.70599044       3.98684410       0.00109548       0.00588016      -0.01565880
H       11.17393639       6.44876571       5.70394366       0.00292040      -0.00891885      -0.01685190
H       10.62990187       5.25437260       4.52807561      -0.00482406       0.00502451      -0.02769144
C        2.26157153       9.55095478       7.34541245      -0.00056368      -0.00128663       0.00017947
C        2.36768320       8.52993548       6.22394531      -0.00024256       0.00173868      -0.00254428
C        3.31837697      10.64288611       7.25812687      -0.00297561       0.00156590       0.00485235
C        1.35324418       7.40124227       6.34185876       0.00334606      -0.00114289      -0.00052255
C        3.29624380      11.57420095       8.45812000       0.00147504      -0.01000461       0.01402664
C        1.53207523       6.31953811       5.28867325       0.00796332      -0.00589743       0.00554252
H        1.26357856      10.00212075       7.34550026      -0.00145963      -0.00341243       0.00313854
H        2.35647015       9.03769938       8.30941980       0.00128525      -0.00491139      -0.00189322
H        3.38090845       8.11294065       6.22352692       0.00077626       0.00442155      -0.00550565
H        2.24665068       9.03016260       5.25662043      -0.00392183       0.00269791      -0.00152451
H        4.30537313      10.17965653       7.17860031      -0.00261605       0.00375435      -0.00382075
H        3.17821130      11.21395702       6.33339986      -0.00805679       0.01036359       0.01115391
H        1.42599210       6.95702343       7.34057336       0.00328332       0.00309601       0.00158530
H        0.34777249       7.82512427       6.27067681       0.00182271      -0.00528690      -0.00385091
H        2.35384107      12.12167427       8.51706287       0.00130856      -0.01155443       0.02395112
H        4.10406728      12.30277715       8.41375860       0.00056526      -0.00888379       0.01721751
H        3.40344333      11.01209011       9.38812562       0.00656356      -0.01915829       0.00798438
H        1.46198296       6.73393593       4.28081033       0.01225125      -0.01153369       0.00295681
H        2.51094202       5.84608855       5.37999850       0.00764127      -0.00522969       0.01260912
H        0.77674866       5.53865046       5.37715623       0.00773001      -0.00523078       0.00701445
C       10.75658057       7.47562557       8.87582357       0.00668865       0.00227632       0.00204362
C        9.98006407       6.24015746       8.43876941       0.00520205       0.00180900       0.00688859
C        9.89425018       8.73222415       8.91588565       0.00529897       0.00073947       0.00458542
C       10.81623970       4.96978183       8.34294870       0.00469226       0.00207633       0.00454740
C       10.69585812       9.99786562       9.17431059       0.00757116       0.00204399      -0.00803100
C       10.00728690       3.76878470       7.86784164       0.00443280       0.00372115       0.00183716
H       11.20108109       7.31949451       9.86384134       0.01203676       0.00264866       0.00153980
H       11.59158170       7.63365605       8.18459482       0.00276789       0.00264679      -0.00122464
H        9.51753679       6.43432613       7.46357758       0.00269701       0.00180215       0.00807896
H        9.14676229       6.07193823       9.13027450       0.00714538       0.00319238       0.00896451
H        9.35415811       8.82192245       7.96693217      -0.00354430      -0.00499576       0.00932449
H        9.13690345       8.61691573       9.69784580       0.01211506       0.00455600       0.01282126
H       11.65443020       5.14048905       7.65850374       0.00464711       0.00345318       0.00490183
H       11.26335983       4.75562526       9.31855583       0.00454020      -0.00001554       0.00422359
H       11.25035724       9.90988014      10.10676215       0.01788332       0.00557160      -0.01579306
H       10.04923223      10.87090188       9.26372832       0.00572091       0.00047934      -0.00277573
H       11.40464289      10.18142540       8.36259384      -0.00398648       0.00019106      -0.01970403
H        9.16053205       3.57997224       8.53209506       0.00551604       0.00124716       0.00256561
H        9.60371591       3.94113384       6.86737006       0.00314166       0.00695866       0.00253721
H       10.60870212       2.85874468       7.83183043       0.00519560       0.00493577      -0.00129473
C        4.94900232       4.52500669       8.09561091      -0.00172555       0.00590736       0.00062713
C        4.92451410       6.04407862       8.11003286      -0.00183040       0.00591379      -0.00495509
C        3.55304920       3.91951531       8.10821381      -0.00142092       0.00528044       0.00128424
C        6.29998094       6.68679457       8.19047647      -0.00253969       0.00700934       0.00073206
C        3.57112159       2.40556593       8.18878331      -0.00248759       0.00516611       0.00291957
C        6.22872407       8.20356898       8.12207369      -0.00360718       0.00675637      -0.00257536
H        5.49341630       4.17302397       7.21105641      -0.00041609       0.00275177       0.00275815
H        5.51374786       4.15726426       8.95943425      -0.00299005       0.00949666       0.00286242
H        4.31686176       6.38830546       8.95606365      -0.00628427       0.00864004      -0.00931114
H        4.41031556       6.40028983       7.20993287       0.00335689       0.00319244      -0.00876686
H        2.99194282       4.32559553       8.95562249      -0.00135005       0.00599730       0.00094235
H        3.01360000       4.23819576       7.21110900      -0.00192170       0.00405789       0.00124192
H        6.79039187       6.37879137       9.11898547      -0.00699199       0.00933468       0.00396013
H        6.92763590       6.30400243       7.37994895       0.00204697       0.00636019       0.00451267
H        4.09964269       1.97234290       7.33737944      -0.00362043       0.00342745       0.00340188
H        2.56592979       1.98384099       8.20486813      -0.00310326       0.00691484       0.00400563
H        4.08101317       2.06700025       9.09201014      -0.00272895       0.00590320       0.00314869
H        5.74000349       8.51977658       7.19803965       0.00672223       0.00474700      -0.00851025
H        5.64566071       8.60415397       8.95442453      -0.01349600       0.00728999      -0.00983156
H        7.21479290       8.66277296       8.15477259      -0.00423494       0.00745015       0.00802132
