147
Lattice="13.12913968837081 0.0 0.0 0.0 13.12913968837081 0.0 0.0 0.0 13.12913968837081" Properties=species:S:1:pos:R:3:forces:R:3 energy=-372849.9375 stress="-0.0022129204589873552 -0.00045030631008557975 -0.0005220137245487422 -0.00045030631008557975 -0.0023721717298030853 -6.344752182485536e-05 -0.0005220137245487422 -6.344752182485536e-05 -0.003454226767644286" pbc="T T T"
Cd      14.87163835      13.76590858       2.01517746       0.00407302       0.00810989      -0.00126909
Br       2.57641907      13.47155461       4.31594073       0.01909126       0.04335707       0.00235896
Br       2.16455694      13.67417437      -0.39441508       0.00087362       0.04964241      -0.00019127
C        8.17112167      11.54654545       9.36050074       0.00107393       0.01532616      -0.00495409
C        7.90511998      12.17156995       8.14688070       0.00499628       0.01443836      -0.01084700
C        7.23813536      11.60474115      10.38880678       0.01214097       0.00829115      -0.01211645
C        6.71204633      12.86270757       7.96387473      -0.00691358       0.01110616      -0.00149360
C        6.04823854      12.29987687      10.20950209      -0.00019433       0.00499889      -0.00253707
C        5.78452764      12.92898540       8.99963468       0.00353871       0.00426239      -0.00884311
H        9.10553204      11.02113855       9.51166336       0.00956669       0.01947240      -0.01201319
H        8.63180399      12.12623037       7.34513242      -0.00209585       0.02111592      -0.00830161
H        7.42340956      11.10290055      11.32992477       0.01116204       0.00975529      -0.00828706
H        6.51586046      13.35872389       7.02207886      -0.00559077       0.01065263      -0.00417106
H        5.32799883      12.34580453      11.01770057       0.00625542      -0.00027610      -0.00608985
H        4.86044941      13.47856106       8.86676668      -0.00307009       0.00138090      -0.00393462
C       10.22256692       9.54326854      11.76074630       0.01085845      -0.00472835       0.00066918
C       10.35013276      10.90983919      11.98396940       0.01979557       0.01602593      -0.00002402
C       11.34032931       8.78509800      11.43732601       0.00982780       0.01019941       0.00401745
C       11.59435279      11.51831082      11.87706906       0.01611375      -0.00824118      -0.00649437
C       12.58503516       9.39329786      11.33140560       0.00630578      -0.01473053      -0.00293754
C       12.71309433      10.76001800      11.55054522       0.01589467       0.00733061      -0.00380328
H        9.24836854       9.07316236      11.82519767       0.01138026       0.01087555       0.00537781
H        9.47926079      11.49959778      12.23679340       0.01986910       0.00793092      -0.00163314
H       11.24045089       7.72536217      11.24343024       0.00337324      -0.00142017       0.00504094
H       11.69617479      12.58453194      12.04024632       0.02270031       0.00293283      -0.00770631
H       13.44949733       8.79832535      11.06613702       0.00566117      -0.00654365      -0.00117092
H       13.67717718      11.24572583      11.47048037       0.01409550      -0.00736611      -0.00767957
C       11.53090813       6.34447386       8.14388080       0.00493990      -0.00916450       0.01091042
C       11.54337831       7.62116169       7.59831112       0.00524271       0.02763690      -0.00911754
C       10.47327305       5.94460974       8.95103221       0.01424211       0.02350131      -0.00338739
C       10.51078739       8.50992033       7.87935841       0.00106577      -0.00772360       0.00757363
C        9.43380609       6.82601408       9.21451291       0.01083870      -0.01263173       0.01261391
C        9.45496129       8.11029296       8.68685142       0.01083384       0.02385898      -0.00673070
H       12.32407096       5.64423984       7.91120539       0.00897211       0.01420236       0.00090629
H       12.34845276       7.91676284       6.93912004       0.00124903       0.00827777       0.00102770
H       10.43865712       4.93495769       9.33917848       0.01556423       0.00465819       0.00822978
H       10.52375033       9.50693856       7.45570569       0.00090532       0.01046047      -0.00268382
H        8.59345168       6.49798331       9.81113528       0.01629595       0.00823198       0.00659570
H        8.63890743       8.79274878       8.89077795       0.00810669       0.00199772       0.00550215
C        2.78461934       9.46514746       3.67501157      -0.02291410       0.01334900      -0.01253052
C        1.69346505       8.63612618       3.90287177      -0.03220104       0.01199414      -0.00141257
C        3.67997606       9.17488250       2.65508632      -0.03097023       0.01933369       0.00798410
C        1.47739985       7.53468454       3.08283644      -0.01213908       0.00376176      -0.01283773
C        3.47037110       8.06871390       1.84468134      -0.00924765       0.01070276      -0.00358787
C        2.36065385       7.25758756       2.04556293      -0.01879942       0.00870015       0.00773358
H        2.94966907      10.32770359       4.30462774      -0.03755750       0.01831484      -0.00567766
H        1.02667733       8.84281552       4.73019708      -0.03051543       0.00912916      -0.01451144
H        4.55371434       9.79510034       2.50363208      -0.02680495       0.02167249       0.00014733
H        0.62768008       6.88667836       3.26201449      -0.01656312       0.00345372      -0.00689222
H        4.19478286       7.82033215       1.08108085      -0.01421182       0.01557368       0.00736240
H        2.20404096       6.38821199       1.41755856      -0.00417099       0.00454307       0.00176209
C       12.30687487       3.53864095       2.09942820       0.01091401      -0.01695724      -0.00860542
C       11.41323610       3.22105022       1.08188288       0.02286641      -0.00394066      -0.00553533
C       12.80283116       2.53525903       2.92759669       0.00995050      -0.00217462       0.00113524
C       11.03329703       1.89955053       0.86894725       0.01282647      -0.01836417      -0.00733188
C       12.41771031       1.20205709       2.71477985       0.00333214      -0.01459868      -0.00176911
C       11.53549090       0.88925837       1.67483319       0.01346266      -0.00378354       0.00096542
H       12.59258591       4.56894498       2.26942632       0.01693058      -0.00853337      -0.00779941
H       10.99000992       4.00667146       0.46787011       0.02551613      -0.01400868      -0.01462038
H       13.45147720       2.77978700       3.76091026       0.00247381      -0.00835435       0.00086793
H       10.31240840       1.66452463       0.09731178       0.01960349      -0.01060907      -0.00633593
H       12.68163507       0.44492034       3.44666439       0.00913747      -0.00814626      -0.00076906
H       11.22197824      -0.13490949       1.51841249       0.01038536      -0.01145291      -0.00157818
C        6.49975408       2.16792472       3.89815619      -0.00968379      -0.02733664       0.01155475
C        6.81099586       0.88409642       4.33037271       0.00159498      -0.00455561       0.00935565
C        7.51679132       3.06273162       3.58932851       0.01995377      -0.01265718      -0.00131243
C        8.14144071       0.50354001       4.47328745      -0.02530690      -0.03196126       0.01708794
C        8.84327495       2.66978004       3.69639142      -0.00914580      -0.04035148       0.00761530
C        9.15676651       1.39544232       4.15306407       0.00731102      -0.01648282       0.00479442
H        5.46456762       2.47200084       3.80679341       0.00541018      -0.00779632       0.00825447
H        6.01615818       0.17912918       4.53856178      -0.01442371      -0.00988444       0.01717240
H        7.27776634       4.07063340       3.28428555       0.01112012      -0.02584268      -0.00313106
H        8.38548683      -0.49777969       4.80607110      -0.01734453      -0.01819722       0.01865321
H        9.62991928       3.37213886       3.45351753       0.01157724      -0.03386948      -0.00311478
H       10.19301582       1.10493633       4.26355895      -0.01077422      -0.03620154       0.01003678
C        6.30198087      12.03865697       0.87157340      -0.00246054       0.01074919      -0.00989284
C        5.93201862      10.76213811       0.46197964      -0.00745423       0.00736636      -0.01180753
C        7.55183757      12.25358800       1.44411205      -0.01430728       0.01135558      -0.00857044
C        6.81438343       9.69833529       0.62253512       0.00026381       0.00988890      -0.00143885
C        8.42370144      11.18578030       1.62293556      -0.00657661       0.01393362       0.00080988
C        8.05739288       9.91174490       1.20735147      -0.01151635       0.01058558      -0.00133967
H        5.61591314      12.86829364       0.75030104      -0.00689673       0.00842583      -0.01782108
H        4.95969345      10.59102156       0.01517785       0.00002649       0.00673115      -0.01403028
H        7.83994633      13.24666340       1.76195632      -0.01194994       0.01275276      -0.00626604
H        6.52779495       8.70657675       0.29469502      -0.00245408       0.00803252      -0.00222091
H        9.39624992      11.34516188       2.07280110      -0.01412230       0.01480300       0.00338074
H        8.75667934       9.09229794       1.31691451      -0.00693586       0.01274624       0.00692419
C        6.69841513       5.89461899       1.54353424      -0.00479995      -0.00996704      -0.00721323
C        5.59579525       5.05206394       1.64692248      -0.01214503      -0.01140115       0.00195742
C        6.96080774       6.81795591       2.54657380      -0.01449721      -0.00927528       0.00149332
C        4.77304669       5.12313948       2.76490616       0.02290229       0.01268113      -0.00975400
C        6.11723073       6.90908262       3.64441874      -0.00316880      -0.00885107      -0.00850821
C        5.03305572       6.05198337       3.76500981      -0.01049107      -0.00830476       0.00022101
H        7.36244110       5.81259113       0.69333180      -0.01068294      -0.00956397      -0.00162975
H        5.40401107       4.32044410       0.87267915      -0.00678743      -0.01118218      -0.00320363
H        7.81937780       7.47097581       2.47769989      -0.00867644      -0.00732303      -0.00587891
H        3.91931242       4.46445334       2.85177976      -0.01497394       0.00356591       0.00605419
H        6.30695163       7.65861560       4.39909472      -0.00788902      -0.01123507      -0.00319636
H        4.37190095       6.13315571       4.61854308      -0.00659163      -0.00942830      -0.00590074
C        6.30198082       2.53503065      11.32951861       0.00467809      -0.00716493      -0.00772340
C        7.57350026       1.97720877      11.26067285       0.02371139       0.00262582      -0.00258362
C        6.15359809       3.91438410      11.39613258       0.00844176      -0.00721567      -0.00997142
C        8.69438828       2.79779063      11.26998436       0.00243530       0.00772497       0.00124620
C        7.27688239       4.73305917      11.42785296      -0.01315758      -0.00183354      -0.00652232
C        8.54845709       4.17519839      11.37520661       0.00594787       0.00782600      -0.00134372
H        5.42689080       1.89694854      11.32201584       0.01813208      -0.01217314      -0.01082590
H        7.68600224       0.90520794      11.18600808       0.02243337       0.00251162      -0.00056846
H        5.16163574       4.34748243      11.42517298      -0.00314872      -0.01577906      -0.01456919
H        9.68155433       2.36035149      11.18415643       0.01407446       0.01636147       0.00530714
H        7.16239737       5.80733021      11.50008519      -0.01214303      -0.00217727      -0.00826311
H        9.42198058       4.81438540      11.40546781      -0.00754432       0.01309266       0.00125307
C        7.14125917       5.31803837       7.14615625      -0.00687879      -0.00605460       0.02168494
C        7.89592950       4.14988801       7.12116196       0.00397418      -0.01073696       0.01749416
C        7.60327166       6.45231706       6.49423324      -0.00099645      -0.01213676       0.01048817
C        9.10785188       4.12671679       6.44449596      -0.01181670      -0.00935221       0.01687793
C        8.79959872       6.41969196       5.78880341      -0.01520607      -0.00990333       0.01164097
C        9.55364956       5.25679082       5.76829015      -0.00407472      -0.01531282       0.00750938
H        6.20306218       5.34846513       7.68719583       0.00262479      -0.00696180       0.02368732
H        7.54213778       3.26191517       7.63008031       0.00033041      -0.00569926       0.02610382
H        7.04042912       7.37455058       6.55132348      -0.00780617      -0.01052290       0.01221683
H        9.69885858       3.22097434       6.42924875      -0.00608224      -0.01209165       0.01389279
H        9.15185948       7.30642128       5.27624497      -0.01106299      -0.01464684       0.00523748
H       10.49655646       5.23262118       5.23429227      -0.01303662      -0.01355331       0.00678428
C        5.18077622       9.16267886       9.78729249       0.00212660       0.00648755      -0.00365655
C        5.53027707       7.96018622      10.38489079      -0.00795323      -0.02910993       0.00943359
C        4.00595003       9.80500765      10.15531133       0.00348103      -0.01593080       0.01758935
C        4.68785393       7.38429243      11.33068389      -0.00776177      -0.00376648      -0.01575360
C        3.16492169       9.23131343      11.09661690       0.00440495       0.01094272      -0.01008163
C        3.49453754       8.01026813      11.66951251      -0.00666270      -0.02293794       0.00398353
H        5.82439624       9.60785330       9.04058956       0.00465705      -0.00957152       0.01248422
H        6.45615984       7.47265955      10.10378685      -0.01064474      -0.01786746      -0.00503982
H        3.74234088      10.74841633       9.69923646       0.01150676       0.00522467       0.01081058
H        4.96172722       6.45727605      11.81677121      -0.01738282      -0.02261091      -0.01048359
H        2.25558264       9.73762995      11.38935008       0.00427260      -0.00244892       0.00307145
H        2.82847590       7.56039420      12.39210648      -0.00840852      -0.00754448      -0.01145065
C        2.39639625       9.94400068       7.32128118       0.00841213       0.01540907      -0.00234939
C        3.65067724       9.66169300       6.79601386      -0.00195403      -0.00138007      -0.00558586
C        1.59096988       8.91232570       7.78710501       0.00266868       0.00618677       0.01110172
C        4.08839139       8.34619359       6.71683887      -0.00029568       0.01128773      -0.00600238
C        2.03098881       7.59536013       7.70926626       0.00466631       0.01829590       0.01142496
C        3.27936267       7.31149689       7.16843803      -0.00537632       0.00198025       0.00861809
H        2.05114968      10.96892797       7.38173142       0.00740047       0.00867993      -0.00272731
H        4.28901754      10.46824043       6.45645531       0.00034034       0.00296593      -0.01631768
H        0.62527940       9.13345660       8.22329502       0.00900334       0.01717538       0.01276556
H        5.06234796       8.12642876       6.30038073      -0.00744390      -0.00031734      -0.00977738
H        1.40245236       6.79219752       8.07302488       0.00285510       0.01461399       0.02174336
H        3.62180985       6.28546080       7.10393459      -0.00418723       0.00865050       0.00944167
