148
Lattice="11.586192738312446 0.0 0.0 0.0 11.586192738312446 0.0 0.0 0.0 11.586192738312446" Properties=species:S:1:pos:R:3:forces:R:3 energy=-317986.65625 stress="0.0011745644733309746 0.0005807452835142612 0.0007480053172912449 0.0005807452835142612 0.0002964081068057567 -0.0011691012769006193 0.0007480053172912449 -0.0011691012769006193 -0.0002089334448100999" pbc="T T T"
Ce      10.53899777      10.42426680       1.49561628       0.00561735      -0.01804806       0.01003955
O        9.19557553       9.02139939       2.77543155       0.00594718      -0.00951216       0.01335725
O       10.04403532      10.85395660       3.65479196       0.00032204      -0.01286608       0.00937913
O        8.57895192       9.62858614       4.85463031      -0.01697093       0.00011244       0.00544173
C        9.22847645       9.82366258       3.83333441       0.00727391      -0.00312383      -0.00763038
H        7.60747373       8.16254473       2.59836591       0.00011230       0.00131425       0.01258484
O        8.81208051       9.68889000      -0.31999704       0.01405025      -0.00956583      -0.00095382
O        6.68293650      10.17687190       0.23146424       0.01746057      -0.01461844       0.00678862
O        8.43968080      11.40335823       0.98041616       0.01295319      -0.01024857       0.00175415
C        7.86994582      10.46801869       0.32058183       0.01132548      -0.01325779       0.00141338
H        8.44701717       8.77462252      -0.58851854       0.01303267      -0.01020056      -0.00464939
O        4.33466359      11.03751621       1.43202371       0.02926999       0.01900996       0.00208604
O        3.06537403      10.80170313       3.21557292       0.00033450       0.02141705      -0.01833683
O        4.49249748       9.16233823       2.67746154       0.00460240       0.01799834       0.00444670
C        3.96422172      10.28706865       2.49623592       0.01009254       0.02043629      -0.00548437
H        5.12701293      10.65234033       1.00501337       0.03244376       0.01368314       0.01050692
N        8.20590777       3.70205485       5.87600156      -0.01122817       0.00081786      -0.00171623
H        7.86961643       4.53389943       5.40380311      -0.01784384       0.00113084       0.00334630
H        7.95199585       2.88098192       5.31808790      -0.00735614       0.00341025      -0.00739975
H        9.21585329       3.78394806       5.86892752      -0.01175170       0.00863902      -0.00570177
N        1.87862551       6.09806125       1.66623053       0.00974628      -0.00304890      -0.00306150
H        1.58772512       6.71448305       0.91666453       0.01161730      -0.00167876      -0.00261647
H        2.57898967       6.58551472       2.21347983       0.00663307      -0.00394917       0.00159153
H        1.07545003       5.92990260       2.26665226       0.00781703      -0.00878984      -0.00733165
N        3.23554382       3.75819579       3.91805606      -0.01023796       0.00042406      -0.00513134
H        3.45682980       3.54101051       2.94926625       0.00268488      -0.00862808      -0.00035140
H        2.41938964       4.35968544       3.90335947      -0.01267096      -0.00330035      -0.02340242
H        2.93262235       2.89541559       4.36466228      -0.01313666       0.00402174      -0.00019656
N       10.81424242       8.00151981       0.69520392       0.01211376      -0.01324183       0.00143924
H       11.56441453       7.77440234       0.01983019       0.01076192      -0.00894353      -0.00155687
H        9.95734883       7.69828331       0.24185953       0.01154685      -0.01061136       0.00096594
H       10.91084655       7.37113349       1.48979064       0.01337507      -0.01787397      -0.00231498
N        3.36179789       5.25139241       8.56883347       0.01167881       0.00243574      -0.00302380
H        3.02879018       6.16650869       8.84266518       0.00480194       0.00270116      -0.01185679
H        4.15102187       5.03252358       9.16773790       0.00295627       0.00740477       0.01034954
H        2.62880504       4.57388597       8.79388734       0.00966154       0.00217064      -0.00971060
N        5.06641469      10.79683025       5.82477616       0.00485559       0.00146446      -0.00015452
H        4.42143388      10.68837623       5.04486545       0.00431634       0.00329442      -0.00019076
H        4.57234476      10.50031822       6.65918871       0.00806595      -0.00841679      -0.00158368
H        5.80781309      10.11806492       5.67909908       0.00860484       0.00731317      -0.00644816
N       11.00545693       5.53095701       8.14390017       0.00758556      -0.00358254       0.00302529
H       10.08508044       5.39896651       8.56050199       0.00507233       0.00154124      -0.00137636
H       11.57546072       4.72870578       8.40318548       0.00273073      -0.00588134       0.00751095
H       10.85212106       5.46323827       7.14193138       0.01281167      -0.00390420       0.00230923
N        1.28680097       9.96158958       8.22026892       0.00011823       0.00202719      -0.00755775
H        0.49812178       9.61124274       7.68506216       0.00205088       0.01650609      -0.01982060
H        2.10801602       9.46961231       7.87978630       0.00058818       0.00603899      -0.01252198
H        1.41155172      10.92647189       7.92831242       0.00572947       0.00767970       0.01321539
N        5.24519930       6.16828806       3.96122997      -0.01018971       0.00048783       0.00052765
H        4.78107524       5.25657941       4.00947107      -0.01388867       0.00217980      -0.00059121
H        4.51782586       6.84928454       3.75388702      -0.00746232       0.00364675       0.00113937
H        5.52501591       6.39988428       4.91668638      -0.00775068      -0.00186263       0.00020094
N        0.74264141       0.72087744       2.25010252      -0.01866609      -0.01506436       0.00599349
H        0.56906619       0.98792760       3.21897845      -0.03817572      -0.01694320       0.00290179
H        0.75852641       1.60237728       1.74236980      -0.01989416      -0.01525760       0.00580075
H        1.71365906       0.37632878       2.29045671      -0.01611900      -0.00818071       0.01973536
N       10.10021657       2.05771390       8.83337163       0.00109023       0.00274764       0.01417188
H        9.77299919       3.01503205       8.73799630      -0.01598094      -0.00320587       0.01143591
H        9.28481187       1.53659822       9.14453442       0.01147227      -0.01005909       0.01973448
H       10.26081601       1.74765643       7.87337938       0.00234316       0.00153036       0.01458798
N        6.72044124       7.75611416       2.25770785      -0.00360015       0.00730392       0.01082507
H        6.86221616       7.43555070       1.30757599      -0.00457057       0.01355019       0.00850797
H        5.94676450       8.47258771       2.26953610      -0.00026983       0.01127934       0.01423763
H        6.36119771       6.96678454       2.87451335      -0.00493798       0.00507951       0.00447705
N        4.36057621       2.69347399       7.15322541      -0.00513399      -0.00394791      -0.00822812
H        4.04596911       3.65936491       7.12449914       0.01574160       0.00304034      -0.00682982
H        4.91549678       2.55416369       6.31497118      -0.00418434      -0.01426990      -0.00586498
H        5.01342701       2.63179552       7.92832650      -0.00983169      -0.02053562      -0.00553470
N        6.39316355       9.29758451       8.76568675      -0.00276864       0.01058534       0.00242963
H        6.32411792       9.58207147       9.74020004      -0.00208629      -0.00097780       0.00636289
H        6.63264157      10.14041729       8.25401402      -0.00062868       0.01680815       0.01390855
H        7.22530266       8.72176650       8.69684268      -0.00370252       0.01005748      -0.00388351
N        8.70501975       6.92538199       6.32110419       0.00605012      -0.00020480      -0.00189659
H        9.47924978       7.31859386       6.84457785       0.00324328      -0.00349834       0.00468998
H        8.06336480       6.53861600       7.00475361      -0.00124919       0.00287737      -0.00566110
H        8.24950444       7.70786550       5.85927865       0.01210553       0.00043759      -0.00399356
N       10.28102522       4.78291403      -0.15623255      -0.01139194       0.00004631      -0.00009302
H       11.21987848       5.14125921      -0.01166931      -0.00921270       0.00406219      -0.02323226
H       10.34635028       4.18489355      -0.97376275      -0.02650803      -0.00818789       0.00465956
H       10.10916564       4.15077466       0.62644095       0.00700445       0.00634639       0.00922550
N        7.53834179       4.86593721       8.62523915      -0.01266494       0.00866192      -0.00145647
H        7.32566038       4.23849870       9.40226335      -0.01477464       0.00878996      -0.00163061
H        7.72683872       4.28114736       7.80461312      -0.01101555       0.00780249      -0.00021405
H        6.65638997       5.32240938       8.40401533      -0.01214473       0.00844666      -0.00409593
N        8.12493793       7.11423584      10.66427497       0.00190169       0.00187004      -0.00034770
H        8.31619876       6.89363083       9.68592104      -0.01752187      -0.00824173      -0.00190884
H        7.12736460       6.92834075      10.73118688       0.00182754       0.00917798       0.01952424
H        8.59393785       6.32612843      11.13085017       0.00557551       0.00303328      -0.00133976
N       10.65816625       1.35615685       5.71519499      -0.00999753      -0.00662246       0.01712602
H       11.37257640       2.04396086       5.49972777       0.00089070      -0.01891996       0.01351851
H        9.75116078       1.73584727       5.46215417      -0.00500217       0.00816032       0.02226084
H       10.78170603       0.57625934       5.07336328      -0.02626631      -0.00902776       0.01532878
N        9.96344558       3.21080078       2.61858279       0.00309718       0.00655273       0.00832534
H        9.02087760       2.97779034       2.91674623      -0.00458118       0.00940503      -0.01357493
H       10.11168158       4.18561610       2.87642868      -0.00132875       0.00788184       0.00679146
H       10.56729958       2.68018125       3.23707344      -0.01387079       0.00873019       0.02701657
N        1.20800869       7.37121934      10.19803748       0.00238609      -0.00681297      -0.00785017
H        1.48841023       8.24290153       9.75942598       0.00170439      -0.00738749      -0.00950791
H        0.64285022       6.85957333       9.51698226       0.00252528      -0.00781935      -0.00740367
H        2.04400491       6.82354559      10.36212685       0.00285622      -0.00637375      -0.00815669
N        4.92855883       7.48919250       6.72058288       0.01038289      -0.00173752       0.00277553
H        4.29082878       6.77993545       7.06768828       0.01080465      -0.00272919       0.00241767
H        4.41024629       8.10481802       6.10378824       0.01109867      -0.00500301      -0.00105814
H        5.25016620       8.05794322       7.50618966       0.00528134       0.00191640       0.00215070
N        1.62748759       2.70424162       9.00950572       0.00084016       0.01357675       0.00143877
H        2.23555303       2.32633991       8.28738583      -0.00568160       0.01141867      -0.00304843
H        0.69490890       2.30289299       8.93091790      -0.00003575       0.01393487       0.01050946
H        2.01399107       2.41330431       9.89944886       0.00849617       0.01546490      -0.00124532
N        2.15622692       1.08651612       5.51681852      -0.00914961       0.00150436      -0.00227745
H        1.41913487       0.70480438       6.09598655       0.00167297      -0.02514346      -0.00583158
H        2.51753945       0.33706698       4.93342732       0.00722153       0.01648574      -0.01201034
H        2.90813430       1.38516295       6.13813800      -0.01497324       0.00898070       0.00150877
N        7.44981789      12.58744165       4.56535622      -0.00550739       0.00424221      -0.01907296
H        7.38766876      12.46191890       3.55931756      -0.00562555       0.00070357      -0.01891117
H        6.51544534      12.40915702       4.92935779      -0.00527332       0.00638719      -0.01799447
H        7.99089735      11.79527002       4.90266642      -0.00536289       0.00745590      -0.01581351
N        6.97534662       1.12164509       8.03718726       0.00225759       0.00519073      -0.02450642
H        7.71532579       0.42208113       7.93854176       0.00945821       0.01064452      -0.00418612
H        7.27287416       1.90233482       7.45489867       0.01074708       0.01481759      -0.00776269
H        6.16578358       0.73305183       7.55833183       0.01688003      -0.00093021      -0.04478017
N        0.55409640      -0.45252974      11.06801085      -0.01540172      -0.00319040      -0.00757569
H        0.27365257       0.46104082      10.70928845      -0.03250208      -0.01132745      -0.01519004
H        0.70223553      -1.01988112      10.22522311      -0.01178573      -0.00996226      -0.00193894
H        1.48799970      -0.31523759      11.45344047      -0.01495737       0.01586676      -0.01542830
N        6.65078573       2.58335481      10.88215516      -0.00293404      -0.00479729      -0.00672242
H        5.84490742       2.24910565      11.40176816       0.00469171      -0.01450706      -0.00068986
H        7.44641416       2.37029121      11.47550484       0.00386909      -0.00138555      -0.01444298
H        6.73523430       1.98600129      10.05605991      -0.00576116      -0.00055081      -0.00980543
N       10.66152490       6.25846394       3.77827149      -0.00232909       0.00281245      -0.00527582
H       10.39309640       7.23040804       3.64535591      -0.01215452      -0.00178331      -0.02218491
H       11.50559342       6.25337480       4.35508103       0.00121381       0.02011400      -0.01056793
H        9.93145281       5.93032253       4.41100316       0.00492455       0.00752875       0.00532131
N        1.64205456       6.24162553       5.76776230       0.00335228       0.01475877      -0.00491917
H        1.16278081       6.64165217       6.56928854       0.01289167       0.00282349       0.00680372
H        2.28142284       6.95317830       5.43018790       0.01229931       0.01307903       0.00837546
H        2.23806761       5.51160150       6.15039721      -0.00463414      -0.00270589      -0.02569489
N        4.48679401       4.30092325       0.97643517       0.00915691      -0.00589862       0.00776467
H        5.00514858       4.82007977       1.67543878       0.01448896      -0.00630116       0.00404434
H        3.64343502       4.82945930       0.78040866       0.00905355      -0.00466026       0.01093405
H        5.06876531       4.23880354       0.14881917       0.00454897      -0.01079454       0.00485784
N        9.38133954      10.66748073       7.62590429       0.00310361      -0.00563425       0.00807322
H        9.85386638      10.27757859       8.43061259       0.00086308      -0.03718548      -0.00485802
H       10.01100196      11.30348551       7.14433556       0.01105234      -0.00012866       0.02525517
H        9.15506358       9.93183614       6.96472245      -0.00641289       0.01676615      -0.01238396
N        0.86810940       9.21419633       2.76188013       0.00444233      -0.01141989       0.02247235
H        0.45537316       8.74504224       3.56397762       0.00457180       0.01183319       0.03615123
H        1.64502710       9.80726471       3.11493517       0.01007444      -0.00819752       0.00424677
H        1.32180715       8.47393532       2.23029307      -0.00526685      -0.02921152       0.03945479
