145
Lattice="13.046914984331398 0.0 0.0 0.0 13.046914984331398 0.0 0.0 0.0 13.046914984331398" Properties=species:S:1:pos:R:3:forces:R:3 energy=-389439.9375 stress="-0.00017034992924891412 0.0001213376053783577 -1.1767190471800859e-05 0.0001213376053783577 0.00041205366142094135 0.0005029492895118892 -1.1767190471800859e-05 0.0005029492895118892 1.8587932572700083e-05" pbc="T T T"
Ce      11.00039398      13.38837698       0.55526972      -0.00337584      -0.00619442       0.02023804
Cl      10.11047392      12.50883438      10.95042358       0.01561871       0.01658410      -0.00618136
O       12.75951305      13.37860016      13.29819046       0.01852243      -0.01202824       0.03467580
O        9.70348679      13.84647220      11.90891789       0.01122359       0.01955193      -0.00969505
Cl       6.17466892      11.98148430       9.73285444       0.00101709      -0.01004279       0.00762385
O        4.85717109      12.06049817      10.41228652      -0.00484014      -0.00335120      -0.00506425
O        6.40601549      10.74763846       8.94238497      -0.00051722      -0.00608683       0.00110483
Cl       5.75510962      13.47388968       7.49596691       0.00767946       0.01180577       0.02855405
O        4.49267947      14.20789242       7.75837906       0.00737655       0.00277948       0.04599047
O        5.61326469      12.20605135       6.72379393       0.00737607       0.02281189       0.01201963
O        1.64653873       9.81559180       7.61620552      -0.00614699      -0.00559196      -0.00134400
O        1.21033651       7.91187984       6.68639517      -0.00785169      -0.00749917       0.00278725
O        1.11210959       8.06069453       8.94455636       0.00455219      -0.00472534       0.00154030
C        1.78982263      10.64394385       8.80265251       0.00214346      -0.00533605      -0.00224727
C        2.24747294      11.99483195       8.33630572      -0.01082253      -0.00220162      -0.00590375
C        1.30604804       8.55543935       7.86235401      -0.00291136      -0.00704587       0.00402260
C        0.89040309       6.52153335       6.82435976      -0.00580517      -0.00784210       0.00626811
H        0.82638633      10.67143942       9.31513722       0.00802261      -0.01103311       0.00859773
H        2.51661659      10.17400423       9.46575092       0.01203799      -0.00179577      -0.01089823
H        2.41462637      12.64821459       9.19152304      -0.00529351      -0.00239249      -0.00686055
H        3.19066012      11.91080637       7.80033576      -0.01568949       0.00477238      -0.01559005
H        1.51109100      12.45605811       7.67720706      -0.02078323      -0.00613893       0.00262313
H        1.66384386       6.00824764       7.39264288      -0.00382492      -0.00556691       0.00552806
H        0.85879786       6.13655600       5.80920325      -0.00759890      -0.00984099       0.00712401
H       -0.07248358       6.39747109       7.31721913      -0.00467235      -0.00802038       0.00842047
O        4.45624834       2.30219570      11.33735883       0.00752148      -0.00136939       0.00658342
O        6.32880140       1.80232052      10.38949285       0.00800180      -0.00600635       0.00899144
O        6.12995780       3.82921005      11.37966581       0.00488943       0.00128627      -0.00755453
C        3.59248525       3.22777992      12.03804907       0.00686416       0.00415185      -0.00139930
C        2.28365747       2.51704572      12.26019787       0.00488141       0.00805339      -0.00020406
C        5.67388287       2.75454012      11.06365011       0.00666830      -0.00120044       0.00191748
C        7.64424563       2.17825021       9.94377019       0.00351386      -0.00328806      -0.00185396
H        4.07002918       3.51856657      12.97585883       0.00492783       0.00911801      -0.00200188
H        3.48088959       4.12596272      11.42743173       0.00993202       0.00053203      -0.00705594
H        1.59160819       3.17592905      12.78803395       0.00608786       0.01247521      -0.00411447
H        1.82894681       2.23322232      11.31182859       0.00571284       0.00513355       0.00026862
H        2.41803849       1.61499171      12.85515177       0.00166604       0.01048167       0.00424652
H        7.56526660       2.92941574       9.16379519      -0.00380289      -0.00316855      -0.00093681
H        8.08136157       1.26844274       9.54259559       0.00162009      -0.00251782      -0.00592129
H        8.24185662       2.54089167      10.77597935       0.00998627      -0.00275604      -0.00677824
O        9.38985553       6.67839894       8.34203683      -0.00094877       0.00208469      -0.00153799
O       10.13648616       6.96564288       6.33687295      -0.00339780       0.00151453      -0.00259309
O       10.29981543       4.90436835       7.26512314      -0.00687495       0.00071061      -0.00398689
C        9.12005417       5.82742425       9.48577205      -0.00113696       0.00210714      -0.00143850
C        8.42166530       6.66879721      10.52010757      -0.00142160       0.00218034      -0.00167105
C        9.97046073       6.06765632       7.31309977      -0.00392836       0.00114012      -0.00267181
C       10.65761158       6.42392123       5.11583444      -0.00522333       0.00123532      -0.00318281
H        8.49880843       4.99503758       9.15358075      -0.00112179       0.00204366      -0.00143938
H       10.06770279       5.42169489       9.84638924      -0.00111440       0.00227863      -0.00130613
H        8.11946398       6.03786750      11.35655720      -0.00092552       0.00233813      -0.00145642
H        9.07074888       7.46239220      10.89094945      -0.00182082       0.00280292      -0.00195251
H        7.52261661       7.12329682      10.10363218      -0.00155061       0.00150891      -0.00185819
H       11.57879127       5.87514792       5.30563408      -0.00787997      -0.00351509      -0.00376607
H       10.85880675       7.28393633       4.48240904      -0.00095570       0.00127861      -0.00171004
H        9.92284995       5.76644998       4.65535715      -0.00778487       0.00500292      -0.00456980
O        4.98135755       8.85069777       1.36421572       0.00603449      -0.00959480      -0.00335412
O        6.91258321       8.53642109       2.28141513       0.00178868      -0.01219885       0.00399929
O        5.72835304       6.72329577       1.61449984      -0.00256893      -0.01114273       0.00841309
C        3.73111459       8.33028414       0.85816174       0.00521204      -0.00639278      -0.00477850
C        2.83354987       9.50585372       0.57012313       0.00948222      -0.00381321      -0.00705987
C        5.84948900       7.91595463       1.74516511       0.00130923      -0.01074684       0.00337382
C        7.96033818       7.64820552       2.68861842      -0.00249489      -0.01365533       0.01180014
H        3.93745469       7.74297013      -0.03858438       0.00454494      -0.00788450      -0.00398865
H        3.31248339       7.67185914       1.62035246       0.00211444      -0.00431907      -0.00466153
H        1.91348024       9.15215044       0.10109156       0.00778222      -0.00122225      -0.00538992
H        2.58061248      10.03194181       1.49006835       0.01236963      -0.00073660      -0.00798875
H        3.31012986      10.20670953      -0.11521182       0.01144968      -0.00718580      -0.00921500
H        7.59879400       6.92724130       3.42030559      -0.00782563      -0.01038623       0.01252535
H        8.71893120       8.28690453       3.13631055      -0.00266472      -0.01445225       0.01279049
H        8.36995521       7.12212328       1.82623607      -0.00034848      -0.01799418       0.01530224
O        3.59472405       5.86640740       5.33828010      -0.00341758       0.00477864      -0.00646270
O        4.38229490       7.59714707       6.35337464      -0.00336751       0.00500989      -0.00680819
O        3.97343578       7.74447308       4.12670806      -0.01265895       0.00759292      -0.00462413
C        3.25706399       5.16733363       4.12308259      -0.00320412       0.00476050      -0.00659400
C        2.82297146       3.77821302       4.51967977       0.00605437       0.00174338      -0.00759321
C        3.98129237       7.14256544       5.17048126      -0.00713386       0.00601631      -0.00629342
C        4.85517915       8.96339884       6.34942347      -0.00759003       0.00650829      -0.00681344
H        2.46610832       5.72030211       3.60958756      -0.00722584       0.00171614      -0.00382516
H        4.13254349       5.15913789       3.47075748      -0.00501129       0.01129656      -0.00912869
H        2.61121812       3.18751993       3.62731432       0.00792675       0.00162836      -0.00791028
H        3.60478577       3.26304043       5.07702669       0.01053369       0.00572599      -0.00977950
H        1.92768205       3.81179365       5.14353650       0.00741987      -0.00535206      -0.00500891
H        5.71813580       9.05639445       5.69229941      -0.01416147       0.01156800      -0.01468995
H        5.12759309       9.18014282       7.37673938       0.00102215       0.00412697      -0.00862616
H        4.06850249       9.62777859       6.00572279      -0.01285869       0.00507593       0.00258665
O       10.34610010       8.98569992       0.59549562      -0.00079224      -0.00041348       0.00053695
O        8.51656107      10.00614280       0.13088986      -0.00143147      -0.00446445      -0.00424320
O       10.18055333      11.17025705       1.12990163      -0.00554372       0.00098357      -0.00451344
C       11.67693363       8.93375705       1.19093663       0.00060177       0.00344485      -0.00190347
C       12.15870997       7.51669039       1.04449013       0.00308134       0.00384057       0.00269010
C        9.70616649      10.12571887       0.64862283      -0.00229033      -0.00057322      -0.00194374
C        7.57788368      11.09314334       0.30488539      -0.00255516      -0.00507712      -0.00724858
H       12.31660238       9.64818012       0.67100068      -0.00153407       0.00231549      -0.00604409
H       11.58974978       9.23794231       2.23518126       0.00219724       0.00742809      -0.00304273
H       13.14176072       7.42645990       1.50759394       0.00465730       0.00806847       0.00030035
H       11.47623419       6.82094378       1.53305739       0.00622596       0.00413448       0.00763755
H       12.24661485       7.24312827      -0.00640324       0.00097423      -0.00076182       0.00368476
H        7.22443460      11.08285565       1.33491220      -0.00026721      -0.00065013      -0.00675765
H        6.75851274      10.86696328      -0.36757865      -0.00258389      -0.00795468      -0.00630638
H        8.03431008      12.04599773       0.03791592      -0.00372571      -0.00521386      -0.00958826
O        9.38809360       2.54076650       1.38873164      -0.00298270       0.00323939       0.00382972
O       11.38959778       2.44738683       2.18268804      -0.00051898      -0.00149751      -0.00746998
O       10.26856093       4.42064980       2.32919351       0.00375208       0.01295102       0.00483366
C        8.07965012       3.22123880       1.15449837      -0.00014260       0.00588387       0.00141637
C        7.03186759       2.16242742       0.97936116      -0.00490531       0.00938740       0.00921894
C       10.32034129       3.27612219       1.99723420       0.00025102      -0.01562202      -0.00473863
C       12.49347551       3.03733633       2.92435289       0.00694597      -0.00706249      -0.01511723
H        7.90467143       3.85552607       2.02068892       0.00258663       0.01215011      -0.00211203
H        8.20104192       3.83875211       0.26630812       0.00105171       0.00033017      -0.00267589
H        6.09098135       2.66243123       0.75676332      -0.00570974       0.01213609       0.01561655
H        7.26690052       1.50728100       0.13847472      -0.01376222       0.00813223       0.00813562
H        6.89049556       1.57312961       1.88490082       0.00218237       0.00972255       0.01002738
H       12.92022671       3.86373810       2.35938275      -0.00814401       0.00581101      -0.00735821
H       13.21473527       2.23898166       3.05464046       0.01458487      -0.00362037      -0.04070358
H       12.11751346       3.39403338       3.88017493       0.02058023      -0.02599442      -0.00284888
O        6.91828583       3.89571183       7.21770992       0.00135583      -0.00106022      -0.00515005
O        8.38202516       2.58791529       6.33398437       0.00177622      -0.00286264      -0.00086181
O        7.89694886       4.53276219       5.27366669      -0.00410114      -0.00999182      -0.01127779
C        6.12177172       5.11559079       7.22846948      -0.00062832      -0.00246707      -0.00979635
C        5.04581965       4.93719101       8.26377407       0.00413078       0.00265588      -0.00381702
C        7.74552296       3.76074017       6.19018421      -0.00067486      -0.00556690      -0.00606209
C        9.41714067       2.36994323       5.37535676       0.00024766      -0.00690529      -0.00168172
H        6.78700491       5.95146034       7.45907180      -0.00116372       0.00017276      -0.01809572
H        5.71637059       5.26121952       6.23257996      -0.00542976      -0.00934656      -0.00894731
H        4.40526471       5.81824571       8.25778671       0.00236705       0.00133857      -0.00714915
H        4.43967233       4.05924995       8.03526674       0.00499099      -0.00015260       0.00503563
H        5.47263093       4.82349513       9.26001669       0.00855938       0.01006170      -0.00487727
H        9.00816011       2.39311573       4.36349534      -0.00266774      -0.02031097      -0.00060713
H        9.82175265       1.38755503       5.60300096       0.00615883      -0.00222638       0.00680885
H       10.18080935       3.13953462       5.48993218      -0.00345275      -0.00183964      -0.01202080
O        6.14023871      11.41416679       3.87892911      -0.00532317       0.00411769       0.01035728
O        4.01933562      11.05802694       3.89583192      -0.00541911       0.01149162       0.00349437
O        4.74967697      13.19768668       3.70756068       0.00232047       0.00950336       0.00593380
C        7.25451075      12.31026422       4.00321352      -0.00107583      -0.00105393       0.01470362
C        8.45081676      11.46486521       4.35659238      -0.00830472      -0.00806448       0.02300890
C        4.94484677      12.01123176       3.81967118      -0.00182681       0.00839472       0.00633268
C        2.67020999      11.53002552       3.97578267      -0.00403776       0.01520437      -0.00115187
H        7.37782847      12.84233192       3.05705531       0.00100357      -0.00188902       0.01519275
H        7.03401622      13.04711437       4.77531004      -0.00029632       0.00056145       0.01275718
H        9.32736662      12.09279331       4.51588510       0.00242415      -0.00383824       0.02709957
H        8.25837486      10.91581657       5.27704439      -0.02450673      -0.01693287       0.01382247
H        8.67017248      10.74837004       3.56393980       0.00239031       0.00032768       0.01753205
H        2.55251998      12.18291606       4.84007551      -0.00543181       0.01532000      -0.00138420
H        2.06561870      10.63504734       4.09504088      -0.00677973       0.01670015      -0.00313564
H        2.39771595      12.06867703       3.06771052       0.00027925       0.01592681      -0.00195235
