144
Lattice="12.402485005744905 0.0 0.0 0.0 12.402485005744905 0.0 0.0 0.0 12.402485005744905" Properties=species:S:1:pos:R:3:forces:R:3 energy=-366984.4375 stress="-4.5141139707993716e-05 0.00040462729521095753 4.3558426114032045e-05 0.00040462729521095753 0.00045291686546988785 0.00021106024360051379 4.3558426114032045e-05 0.00021106024360051379 0.0004899483174085617" pbc="T T T"
Ce      11.78511803      12.91867932      -0.01287603      -0.04734534      -0.02748722       0.00908267
O       10.92188984      11.67789277       3.69616996       0.00506294       0.00053525       0.03069317
O       11.01704939      13.25294579       2.16446817      -0.03601484      -0.01411253       0.01439027
O       11.96884902      11.30406321       1.72945126      -0.00724807      -0.00300023       0.02377953
C       11.31124541      12.05916098       2.51058052      -0.01396510      -0.00515413       0.02294475
H       11.16095287      10.75371967       3.86217526       0.02155840       0.00720036       0.04256142
O        6.24000014      10.99200312       3.52237508       0.03144866       0.03694682       0.02628672
O        6.61154753      11.90385508       1.53380757       0.02106947       0.00906110       0.01154542
O        7.95725053      10.25362249       2.24610823       0.00412714      -0.00187927       0.00526845
C        6.96468079      11.06816132       2.36125387       0.01679650       0.01387620       0.01355249
H        6.66640855      10.36627638       4.12563354       0.01914281       0.03075319       0.02925736
O        6.41505015      11.83013152       7.20556828       0.00428176      -0.00479603      -0.00185114
O        7.13517214       9.79624215       6.66678135       0.00614429      -0.00262082      -0.00440741
O        4.92262790      10.16645921       6.93810610       0.00780201      -0.01188850       0.02434333
C        6.10616183      10.47882872       6.91830069       0.00543270      -0.00585777       0.00688718
H        5.57341709      12.27269152       7.39833670       0.00490551      -0.00479485       0.00180249
O        8.22113127       4.85052433       7.66909475       0.00728750       0.03079659       0.00631693
O        8.61010505       5.58382644       5.59196168      -0.02005519       0.00775838      -0.00789511
C        9.44081465       3.42333785       6.19722561      -0.00467956       0.01859909       0.00973660
C        8.73297826       4.71510765       6.42112574      -0.00698799       0.01814783       0.00197631
H       10.27052063       3.30575335       6.89166737       0.00364664       0.03211464       0.00226769
H        8.76491401       2.58075098       6.34094852      -0.00011386       0.01868312       0.02964718
H        9.83927437       3.41661956       5.18829671      -0.01647768       0.00510400       0.00506584
H        7.79852858       5.73148432       7.71870250       0.01093587       0.03258431       0.00487342
O        5.20145421       4.19135073      10.54133082      -0.01185328       0.01460901       0.01030850
O        3.60883177       5.76457188      10.71070651      -0.06183186      -0.03337628      -0.00136596
C        3.82315568       4.54668372       8.66096634       0.00768742      -0.00865465      -0.00799483
C        4.17943528       4.92367635      10.05493026      -0.02445465      -0.01255709      -0.00011533
H        4.65258314       4.08257878       8.13526353       0.01993820      -0.00612454       0.00971334
H        3.02227242       3.80663185       8.71400959       0.00615294      -0.00788279      -0.02734785
H        3.45317938       5.42771567       8.14428362       0.01794331      -0.00657707      -0.01226398
H        5.32384312       4.43993094      11.46955030      -0.03100812       0.01104021       0.01380056
O        0.44554365       2.45203306       4.02259705      -0.01133966      -0.00220746      -0.00175315
O       -0.12675377       2.07913558       6.15732607      -0.00644952       0.00792915       0.00170600
C        1.63858297       3.64764448       5.67496300       0.00176132      -0.00461155      -0.01026006
C        0.56905363       2.65703184       5.35575805      -0.00584960       0.00161767      -0.00302845
H        2.61235318       3.25229715       5.38449178      -0.00161484      -0.01458258      -0.00835736
H        1.46558786       4.56494176       5.11367232       0.00830033      -0.00714360      -0.01614828
H        1.63476022       3.84590615       6.74145819       0.00403094       0.00324892      -0.01177497
H       -0.32198088       1.87413785       3.89535112      -0.01529303       0.00179115       0.00340995
O       11.91027879      10.30874489       8.72153951       0.00995004       0.01764654      -0.02126061
O       11.78145919      10.43021447       6.49156275      -0.00121191       0.00380887      -0.01801109
C        9.89137590      11.17086107       7.78775389       0.00356251       0.00754949      -0.01291053
C       11.25448303      10.62034316       7.55508343       0.00445308       0.00917025      -0.01882428
H        9.26803507      10.45227315       8.32631521       0.00986768       0.00830349      -0.00427851
H        9.94468040      12.08714878       8.37922035       0.00435043       0.01075529      -0.01822460
H        9.40495001      11.37578968       6.84157281      -0.00345938      -0.00064820      -0.01100120
H       12.79950274       9.87188180       8.56574279       0.01185408       0.02074328      -0.01726314
O        7.69110023       8.37427835       3.82261759       0.01350713       0.06263641       0.05024239
O        5.92568384       7.80484006       2.60647270       0.08768666      -0.02104741      -0.03660345
C        5.96873261       7.17151605       4.91848784      -0.01137334       0.03132507      -0.01850927
C        6.53794930       7.79701702       3.68540702       0.03610915       0.02151704      -0.00855041
H        6.75914248       6.67784876       5.47770587      -0.02209097       0.01732891      -0.01885097
H        5.57329499       7.96870631       5.55560549      -0.01436243       0.01713097      -0.00202973
H        5.16978481       6.47941120       4.66336665      -0.01102292       0.03136300      -0.02279368
H        7.85155806       9.10816959       3.04235438       0.00952307       0.03469314       0.01495656
O        3.60966655       3.92120994       2.65603289       0.04086494       0.00689662      -0.00579351
O        3.15433787       3.74568876       0.46840962      -0.01990545      -0.04925287       0.01071644
C        4.78085858       2.27555839       1.45673545       0.00378859      -0.02697444       0.00583149
C        3.76361866       3.37727098       1.45949722       0.00797689      -0.02498180       0.00362611
H        5.74147656       2.65940329       1.80305229       0.00806680      -0.03753080       0.00534292
H        4.51547597       1.47305635       2.14483981      -0.00373483      -0.02302296       0.00774039
H        4.90692060       1.86307633       0.46072813      -0.00250180      -0.03310275       0.00779647
H        3.10989369       4.77618857       2.62369824       0.03880422       0.00313726      -0.01191030
O       10.34368163       6.91380815       3.27218157       0.02210094      -0.01562858      -0.00779969
O       11.49644685       5.49037145       4.56357146      -0.00620049      -0.01367283       0.02048504
C       10.81522697       7.62183635       5.46044089      -0.00639153      -0.00325757      -0.00629407
C       10.92403187       6.54676085       4.43181255       0.00145283      -0.01363289       0.00496696
H       11.45160660       8.46005857       5.17553633       0.00262540      -0.01110291      -0.00951507
H        9.78941906       7.98102580       5.52598436      -0.00515518       0.00395102      -0.02418583
H       11.16208395       7.24283311       6.41743356      -0.01905998       0.00409236       0.00148192
H       10.42361187       6.16186227       2.67019393       0.02217646      -0.01969922      -0.00297274
O       11.33429307       4.35423746       9.34720353       0.00117689      -0.01796427       0.02982104
O       11.77060022       5.08756521      11.41806136      -0.03297383      -0.00845981       0.03224635
C       10.06046647       6.16549678      10.22808445       0.00146660       0.00063279      -0.01172216
C       11.11380336       5.15140637      10.30231293      -0.00947918      -0.01557127       0.01040621
H        9.73169196       6.33667997       9.20937395       0.03068159      -0.00346114      -0.02095118
H        9.22276822       5.75559835      10.79921346      -0.01888812       0.00870913      -0.03851971
H       10.36529893       7.08770769      10.71505049      -0.00305006       0.00100142      -0.01222956
H       12.28539919       3.69366532       9.44164107       0.07223589      -0.05294529       0.03489259
O        6.79834986       1.37835023       5.49349177       0.00615567       0.00136805       0.00287654
O        5.15984937       1.94330206       6.92302206      -0.00567162      -0.01359347      -0.00457370
C        5.71522673       3.43300835       5.13163104       0.00762132       0.00392586       0.01452386
C        5.85753756       2.19185472       5.95275725       0.00173849      -0.00415975       0.00285435
H        6.64931492       3.71688278       4.65272695       0.00935255       0.00433525       0.01845544
H        4.98685652       3.23938146       4.34220856       0.00929020       0.01466150       0.01056747
H        5.32902223       4.24792317       5.73704390       0.00973152      -0.00065147       0.02234620
H        6.77986070       0.54035545       6.03670015       0.00441004      -0.00217021      -0.00334226
O        1.84093420       9.06805994       8.70770631       0.00446646       0.03440295      -0.01222491
O        3.48788047       7.65856228       8.15411380      -0.01762259      -0.00158364       0.01748449
C        2.27672071       8.74165931       6.38360413       0.00443922      -0.01202886      -0.00424314
C        2.63118395       8.41859437       7.79620761      -0.00462371       0.00529778       0.00163078
H        1.92621049       7.82912055       5.89639078       0.01609350      -0.01939100       0.00156212
H        1.50841365       9.50651640       6.32227765       0.00157470      -0.01599365      -0.01854050
H        3.18740435       9.07564942       5.89009193       0.00788960      -0.00961278       0.00379253
H        2.14207398       8.84656537       9.62641880      -0.00268272       0.04141739      -0.00827347
O       10.93077218      11.27138423      10.82554068       0.01399346      -0.01562846      -0.02622072
O        9.88655708       9.29891270      11.10847609      -0.00340286      -0.08425182      -0.04754026
C        8.76369072      11.28524197      11.87060328       0.03583199      -0.02425742       0.01623595
C        9.84427642      10.47582306      11.27220797      -0.01797029       0.07655808       0.00652203
H        9.05876246      12.32695195      12.07194323       0.02369215      -0.00776581       0.00145008
H        7.94231587      11.30477496      11.14356566       0.00538161      -0.01604422       0.05291703
H        8.37068014      10.82791926      12.78703310       0.05887659      -0.01200613       0.03178290
H       11.40302713      10.79795777      10.04548634       0.00417045      -0.00009456      -0.02643958
O        3.58105491       8.44405498       2.85335876      -0.04796189       0.01118428      -0.01435836
O        2.76108115       6.36637105       2.98706910      -0.03388724      -0.00828874      -0.01155989
C        1.26111898       8.22411798       2.80843164      -0.04387808      -0.01259273      -0.00800863
C        2.61189283       7.57926501       2.89337499      -0.04325819      -0.01607245      -0.01591226
H        1.17079800       8.98357900       3.58696386      -0.01216999      -0.01345465      -0.00432882
H        1.17566964       8.73613004       1.84864119      -0.04004854      -0.00439535      -0.00343379
H        0.48387800       7.47567919       2.89970954      -0.06730144       0.00944602       0.00020313
H        4.52457429       8.00236303       2.75139583      -0.05650032       0.07083334       0.03294391
O        9.17468683       2.15707862       9.14929684       0.00087911      -0.00276262      -0.01116376
O        8.43175371       3.16604578      11.00686668       0.00307679       0.01857778      -0.01963836
C        7.07823547       1.45310053       9.96548964       0.00366008       0.00468794       0.00579913
C        8.26116680       2.34501478      10.13007440       0.00338140       0.00652134      -0.01174676
H        6.33144850       2.01062715       9.39387389      -0.00098702      -0.00443582       0.00316413
H        7.31795893       0.55955581       9.39229572       0.00187015      -0.00317414       0.01730973
H        6.64996665       1.20334006      10.93325641       0.00984336       0.01885091       0.01221058
H        9.78557480       2.91150246       9.16612959       0.01095304      -0.01049826      -0.01128891
O        4.06277652       7.78685019       0.00886599      -0.00781116       0.00412136      -0.06115593
O        2.45425212       8.85869174      -1.11921592      -0.01701093       0.03891438      -0.01120061
C        4.14052101      10.13577627       0.01558192       0.00526196       0.00220412      -0.00154537
C        3.46228435       8.88363045      -0.42345298      -0.00624579       0.01909178      -0.02408752
H        4.31732305      10.13589832       1.08993691       0.00424031      -0.02614265      -0.00286376
H        5.11575159      10.19775145      -0.47187813       0.00798061      -0.00068329       0.00621077
H        3.53762475      10.99209117      -0.27521935       0.02128924       0.02178983       0.02529325
H        3.69978381       6.99659973      -0.45070556      -0.03161448       0.02065251      -0.07200508
O        0.19283782       2.59305476      11.58655560       0.00601238      -0.03089190       0.01514709
O        0.90815844       2.96659373       9.51813933      -0.00693068       0.00177255       0.01495975
C        2.18065292       1.48503480      10.88662616      -0.00577024      -0.02147613      -0.01101369
C        1.02632745       2.38354190      10.61874317      -0.00277130      -0.01599549       0.01650623
H        2.94312831       2.13108576      11.34736758      -0.00745538      -0.04273415       0.02074757
H        1.94370851       0.73128724      11.66265907      -0.02740373      -0.04478759      -0.04049346
H        2.57081193       1.00900164       9.99238766       0.00074998       0.00942314      -0.02407825
H       -0.17032999       4.21209379      11.51502014      -0.02291262       0.00239825       0.03664227
O        7.23074697       7.84304319       8.23733308       0.01548094       0.00205690       0.00098085
O        6.83196125       9.53981001       9.65608282       0.04485640       0.00338888       0.00653091
C        6.93724019       7.33127405      10.54355344      -0.00321057      -0.00035757      -0.00294816
C        6.98461940       8.35123887       9.44001996       0.02232768       0.00335002       0.00137281
H        7.04311782       6.31173576      10.17920192      -0.00356029       0.00096802      -0.00443934
H        7.72999272       7.56598450      11.25487452      -0.01645945      -0.00917786       0.01423526
H        5.99954547       7.43696513      11.08668425      -0.01398608       0.00484493      -0.02220920
H        7.17473601       8.62343400       7.52615287       0.01824106       0.00258800      -0.00058190
