148
Lattice="13.06755613408688 0.0 0.0 0.0 13.06755613408688 0.0 0.0 0.0 13.06755613408688" Properties=species:S:1:pos:R:3:forces:R:3 energy=-1030953.0625 stress="0.00029834519955329597 -8.408910434809513e-05 0.0004654999356716871 -8.408910434809513e-05 0.0004236607055645436 9.466098708799109e-05 0.0004654999356716871 9.466098708799109e-05 0.0004195930087007582" pbc="T T T"
Cf      13.73125961      14.54769680       0.82256415       0.00343062       0.01666471      -0.00192580
O       13.01079205      12.46786328      13.38247064       0.02046078       0.00995015       0.01277816
O       11.29086779      12.01524500      12.11421617       0.00819775      -0.00910914       0.04016754
O       11.71371233      14.06749837      12.71193393       0.00102367      -0.00432312       0.02036235
N       11.96128221      12.81675628      12.69587005       0.00657812      -0.00226282       0.02289820
O        4.24728197      13.55476689      10.65713227      -0.00132740      -0.01309943       0.04782462
O        4.71627018      12.03253360       9.17422014       0.03693604       0.02871180       0.01709580
O        2.64676901      12.52183578       9.59715237       0.02667165       0.00509411      -0.00656617
N        3.88151090      12.69141363       9.79923059       0.02051930       0.00637692       0.01908994
O        5.28564214      11.36251613       5.14286576       0.01937056       0.01947117      -0.01429805
O        5.14465314      13.45570574       4.55339629      -0.01014769       0.01068139      -0.03866053
O        3.37764097      12.39099094       5.24173543       0.00699949      -0.00293278      -0.01536828
N        4.61337672      12.38819422       4.99241104       0.00550010       0.00898464      -0.02276577
O        7.05882268      10.15928923      10.79586260      -0.00197613      -0.00099429       0.00149679
C        7.34850701       8.79844386      10.98966611      -0.00024277      -0.00039494       0.00348347
C        8.19971610      10.99265944      10.89228885      -0.00271474      -0.00003576       0.00205355
C        6.07146599       8.01792048      10.78024654       0.00085443      -0.00221035       0.00371119
C        7.77249489      12.40893587      10.59506433      -0.00281191       0.00024086       0.00370219
H        8.12580665       8.47474013      10.27638650       0.00071180      -0.00047737       0.00444242
H        7.75049075       8.63230265      12.00327074      -0.00073196       0.00159677       0.00399584
H        8.63953845      10.90509155      11.89750958      -0.00260517      -0.00077276       0.00207949
H        8.96433548      10.65565058      10.17540778      -0.00299576       0.00049703       0.00136459
H        6.23136311       6.95226712      10.95644567       0.00178286      -0.00183125       0.00542018
H        5.30211116       8.37997586      11.46276075       0.00010113      -0.00165683       0.00266305
H        5.70690335       8.16088822       9.76250792       0.00154559      -0.00402176       0.00304624
H        8.63352510      13.07677910      10.64479963      -0.00337245       0.00079603       0.00767164
H        7.32055937      12.46558051       9.60571888      -0.00063074       0.00185822       0.00283650
H        7.01310812      12.74333661      11.30127273      -0.00550675      -0.00195203       0.00200619
O        7.61092303       4.17217963      10.10069428       0.00350296       0.00002581      -0.00111443
C        6.66371032       4.08176788       9.04544729       0.00357103      -0.00153419      -0.00101697
C        8.61577980       5.12588342       9.84397582       0.00207698       0.00172284      -0.00084439
C        5.74626949       2.92255413       9.32878356       0.00492504      -0.00281703      -0.00062147
C        9.56053011       5.15583173      11.02068158       0.00007918       0.00495866       0.00085801
H        6.10509713       5.02838305       8.97452499       0.00216398      -0.00229669      -0.00120252
H        7.18875447       3.94934918       8.08909876       0.00350934      -0.00090559      -0.00117886
H        9.15800996       4.85758355       8.92460422       0.00407901       0.00172083       0.00023389
H        8.16902431       6.11691643       9.67545873       0.00040784       0.00069267      -0.00267878
H        4.96085437       2.85356914       8.57580400       0.00398873      -0.00198831       0.00039060
H        6.27959835       1.97416939       9.34276356       0.00630365      -0.00226289      -0.00273856
H        5.27578262       3.03975881      10.30317750       0.00658130      -0.00425280       0.00047703
H       10.35696940       5.88210200      10.85155632      -0.00076453       0.00603962       0.00124130
H        9.02698311       5.42915716      11.93209604      -0.00211908       0.00555426      -0.00055788
H       10.00812436       4.17196655      11.16325593       0.00130787       0.00585604       0.00325640
O        9.33991038       8.81733718       6.96444703      -0.00341682       0.00121224      -0.00105096
C        7.95141664       8.50747275       6.98969472      -0.00348026       0.00147918      -0.00052249
C       10.13382351       7.67967501       6.71995503      -0.00359625       0.00097076      -0.00111866
C        7.15672635       9.76714690       7.20904298      -0.00312051       0.00203389      -0.00178612
C       11.58593758       8.08654751       6.65679648      -0.00360405       0.00112191      -0.00226645
H        7.67234273       8.02222734       6.04232180      -0.00365960       0.00059548      -0.00006193
H        7.76237299       7.77207785       7.78979638      -0.00360773       0.00236142       0.00027007
H        9.97520614       6.93446039       7.51769374      -0.00299915       0.00131404      -0.00066358
H        9.82176467       7.20495115       5.77573083      -0.00427185       0.00058699      -0.00073278
H        6.08824669       9.55721156       7.18520107      -0.00327462       0.00259425      -0.00378390
H        7.38340322      10.21392717       8.17628931      -0.00469387       0.00191420      -0.00131845
H        7.34795551      10.49512601       6.42271433      -0.00087016       0.00186029      -0.00144893
H       12.21840537       7.22072657       6.45732797      -0.00355230       0.00110766      -0.00220462
H       11.75377308       8.81203115       5.86168354      -0.00446546       0.00086395      -0.00277281
H       11.90499301       8.53539781       7.59690303      -0.00315925       0.00163782      -0.00262257
O        1.73216099       8.38993824       4.47431008       0.00620413       0.00053442       0.00555852
C        2.60710946       9.24395788       5.22411643       0.00695029      -0.00081673       0.00664431
C        2.37994951       7.86424533       3.34542662       0.00493270       0.00084180       0.00412714
C        1.86132728       9.79646681       6.40763190       0.00854903       0.00565785       0.00519836
C        1.42189377       6.96242102       2.60136119       0.00406867      -0.00043812       0.00645722
H        3.48414655       8.66504966       5.54466905       0.00530875      -0.00287932       0.00774445
H        2.97362657      10.05713825       4.59184049       0.00843988      -0.00147808       0.00711441
H        2.73130808       8.68010162       2.69429714       0.00262229       0.00011426       0.00177932
H        3.27384625       7.29774322       3.64980958       0.00636035       0.00185505       0.00192156
H        2.50996966      10.46299673       6.97482422       0.00988200       0.01224329      -0.00334132
H        0.99857558      10.37563569       6.07486973       0.00837275       0.00408100       0.00268351
H        1.50908285       8.99058408       7.05407647       0.00808733       0.00917408       0.01117546
H        1.92003580       6.51069660       1.74162411       0.00222083      -0.00121174       0.00566097
H        1.07251919       6.16506544       3.25968150       0.00561093       0.00001805       0.00781557
H        0.55504839       7.52491020       2.25053634       0.00323758      -0.00094880       0.00756219
O       12.03726017       2.41904941       2.42914997       0.00512395       0.00371301       0.00877689
C       11.60895949       3.76194880       2.15459859       0.00080436       0.00209537       0.00896001
C       11.60425004       1.94467957       3.71862271      -0.00585765      -0.00102934       0.00335333
C       11.99335218       4.10851723       0.74150383       0.00761615       0.00793166       0.01217014
C       11.89188878       0.47416977       3.84404769      -0.00882470      -0.00172588       0.00323346
H       10.52386917       3.80346831       2.29065958      -0.00032058      -0.00319048       0.00170342
H       12.07487746       4.43874215       2.87943124      -0.00722289       0.00293368       0.01343697
H       12.11583932       2.53001636       4.48948401      -0.01262513      -0.00309399       0.00970110
H       10.53128467       2.14096712       3.79464339      -0.00646415      -0.00068684      -0.00581291
H       11.67140456       5.12219877       0.50007723       0.00590094       0.00804484       0.01447597
H       13.07754467       4.10300878       0.58523268       0.00857607       0.01177054       0.01826987
H       11.51313110       3.43741494       0.02826429       0.01328835       0.00951226       0.00670590
H       11.58638013       0.12903479       4.83204061      -0.03001459      -0.00397565      -0.00408223
H       11.33891591      -0.09866531       3.10188619       0.00441197       0.00166062      -0.00946993
H       12.95363765       0.25287939       3.75281860      -0.00737396      -0.00306899       0.02352638
O        7.09566431       4.22922800       5.04330204       0.00030250      -0.00534499      -0.00093970
C        8.05079306       3.25612530       5.40575621      -0.00154543      -0.00713833      -0.00057063
C        5.84988840       3.65114124       4.67631096      -0.00009972      -0.00275084      -0.00370440
C        9.31659459       3.97700876       5.80427277       0.00001243      -0.00910825      -0.00161555
C        4.91594767       4.77634432       4.30296805       0.00281957      -0.00032613      -0.00401209
H        7.67015645       2.63923596       6.23202678      -0.00237611      -0.00571078       0.00021929
H        8.22464302       2.57066887       4.56180800      -0.00325209      -0.00820726      -0.00011393
H        5.99575955       2.95344807       3.84068722      -0.00001861      -0.00225827      -0.00408068
H        5.45381807       3.05105395       5.50600641      -0.00283940      -0.00277391      -0.00492781
H       10.07133636       3.27423447       6.15965876      -0.00108002      -0.01021296      -0.00156824
H        9.72507545       4.54016354       4.96282605       0.00051991      -0.01050529      -0.00236185
H        9.10531405       4.68679032       6.60381021       0.00163337      -0.00804973      -0.00202629
H        3.95195871       4.38385148       3.97777672       0.00211468       0.00241870      -0.00544019
H        4.74992246       5.43839305       5.15350138       0.00324570      -0.00055246      -0.00371195
H        5.33977633       5.36882160       3.49099226       0.00524168      -0.00074966      -0.00311780
O        8.85419208       9.83206081       2.12470507      -0.00852293      -0.00625105      -0.00078297
C        9.50237678       8.60676383       2.39242128      -0.00579220      -0.00472987      -0.00017449
C        9.76965810      10.87778654       1.87102364      -0.01084566      -0.00388223       0.00118987
C        8.44691233       7.56478690       2.66755796      -0.00338402      -0.00714025       0.00051966
C        8.99527470      12.16870028       1.73576448      -0.01303276      -0.00532591      -0.00059222
H       10.12809367       8.31770455       1.53202135      -0.00509465      -0.00383529      -0.00012174
H       10.17313066       8.72124759       3.25787141      -0.00592801      -0.00289530      -0.00027841
H       10.49491767      10.93717510       2.69868109      -0.01252046      -0.00192853       0.00255805
H       10.33901916      10.65978672       0.95665572      -0.00867170      -0.00288342       0.00215685
H        8.90275881       6.60132781       2.89918289      -0.00108899      -0.00589925       0.00142705
H        7.83379984       7.86540426       3.51665795      -0.00419179      -0.00792745       0.00028107
H        7.79726484       7.44289827       1.80053972      -0.00302479      -0.00944144       0.00054070
H        9.66195449      12.99428660       1.47846824      -0.01359272      -0.00472694      -0.00055650
H        8.25374711      12.08430551       0.94173664      -0.01180294      -0.00687997      -0.00163379
H        8.47524915      12.40537400       2.66421085      -0.01481454      -0.00516255      -0.00152689
O        1.55501242       4.00746042      11.62863137       0.01406778      -0.00074044       0.00762340
C        2.05418124       5.30056763      11.29243567       0.00689515       0.00073880       0.00012144
C        2.13134340       2.98203737      10.81111135      -0.00539823       0.00114030      -0.00893463
C        1.04885141       6.35761789      11.68090092       0.00614309      -0.00202936       0.00582927
C        1.61725474       1.65257317      11.28344745      -0.00005957       0.00036564      -0.00570960
H        3.01675541       5.46376247      11.79552926       0.01084068       0.00587376      -0.00910869
H        2.24364337       5.33965325      10.21322972      -0.00288576      -0.00129006      -0.00169238
H        1.84531909       3.14976424       9.76662186      -0.02576664       0.00812082      -0.00230825
H        3.22228208       3.00637586      10.86927982      -0.00401032      -0.00396906      -0.02923363
H        1.45467496       7.34963049      11.47929543      -0.00104024      -0.00086799      -0.00346090
H        0.12673980       6.23903213      11.11045287       0.00073604      -0.00992461       0.01609246
H        0.80784963       6.30394080      12.74187881       0.01773826       0.00193498       0.00862278
H        1.81282497       0.85132250      10.54903548       0.00151132       0.00047076      -0.00468042
H        2.21063907       1.30399932      12.14576242       0.00374884       0.00440940      -0.00667247
H        0.53604111       1.71531748      11.46786099       0.00001393      -0.00388180      -0.00297548
O        2.76773877       1.89347000       1.92924780      -0.00660855      -0.00884481      -0.01837824
C        4.00957047       1.50896922       1.24178882       0.00038683      -0.00191361      -0.01267042
C        2.45942179       1.06494864       3.08080130      -0.00894889      -0.00416955      -0.01454728
C        4.63495219       2.74238421       0.65063269      -0.00970128       0.00199682      -0.01515510
C        2.10668967       1.91077854       4.27576587      -0.00226189       0.00134432      -0.01669979
H        4.64904401       1.04278007       1.99226666      -0.00076170       0.00970417      -0.00444257
H        3.77426591       0.76660036       0.47115618       0.01229739      -0.00860235      -0.00988311
H        1.64519024       0.36139995       2.80514466      -0.01345477      -0.00138678      -0.00867629
H        3.31583129       0.44268214       3.32214517      -0.01028129      -0.00619334      -0.01498221
H        5.43517992       2.44788263      -0.02795646       0.00661618       0.00658413       0.00181587
H        3.90368670       3.31613078       0.07898510      -0.00807089      -0.01581515      -0.03557959
H        5.04688660       3.38197980       1.43186498      -0.03378993       0.01652221      -0.01398394
H        1.71989501       1.26680833       5.06421036       0.01262391       0.00127429      -0.00936417
H        3.01673638       2.36473279       4.66145269      -0.00147465       0.01129732      -0.03048944
H        1.38453624       2.69241869       4.02924039      -0.01280427      -0.00662537      -0.01158547
