144
Lattice="13.022754355175904 0.0 0.0 0.0 13.022754355175904 0.0 0.0 0.0 13.022754355175904" Properties=species:S:1:pos:R:3:forces:R:3 energy=-1376491.0 stress="-0.0008128192857839167 -0.000511541060404852 0.0007400369504466653 -0.000511541060404852 0.0006577211897820234 0.0003966558142565191 0.0007400369504466653 0.0003966558142565191 -0.0008704422507435083" pbc="T T T"
Cf      12.02818459      11.71296480       1.95571600       0.00555541      -0.01179312       0.00619897
Br      10.21963795      13.04164205       7.18096358      -0.00632127      -0.00370520      -0.00453155
Br      11.65267701      12.95301874      -0.38229135      -0.01691120       0.02498291       0.01769310
Br       5.81457222      12.56399542       4.88077978      -0.02568273      -0.01124110       0.01631980
S       12.52799314       8.25629813       1.85113796       0.01719469      -0.00870168      -0.00944872
O       12.19916929       9.61416846       1.17339213       0.01206517      -0.01952708      -0.02439487
C       11.15033577       7.21902104       1.36939414       0.01281518       0.00451037      -0.00207157
C       12.14244256       8.49581961       3.57305830       0.01467326       0.00427645      -0.01199126
H       11.29453138       6.95002283       0.32514345      -0.00122184      -0.00070520      -0.00109506
H       10.23877431       7.79616387       1.51730082       0.00827543      -0.00576946       0.00173759
H       11.20068878       6.32475477       1.98607205       0.00686393       0.00420357      -0.01032865
H       12.22174660       7.52638760       4.06030771       0.00690238       0.01011947      -0.00055052
H       11.14199314       8.91895120       3.65029570       0.01410896       0.00257488      -0.01494725
H       12.91559840       9.12371639       4.01730136       0.01940829       0.00007656      -0.01514085
S       10.15171016       1.05568394       3.99124106       0.01119673      -0.00172690      -0.02017930
O       11.26677262       0.08678198       3.54046419       0.01385880       0.00481886      -0.01526320
C        9.74788730       1.96789886       2.48925187       0.00606320       0.01068878      -0.01095933
C       11.03777342       2.35869676       4.83621619       0.00833777      -0.00736359      -0.01233870
H        9.64816078       1.23190931       1.69397005      -0.01201608       0.01247485      -0.00838208
H       10.54032485       2.67044772       2.23717976       0.01011747       0.00382486      -0.01903463
H        8.78578035       2.46336879       2.63572498       0.01019970       0.01679215      -0.00657313
H       10.30679393       3.13568165       5.06642854       0.02331065       0.00039061      -0.01561847
H       11.81839933       2.74871096       4.18439837       0.01990139      -0.00910245      -0.00198250
H       11.40268617       1.91351726       5.76140273      -0.00468627      -0.00927983      -0.00765601
S        9.21818104      10.98565777       1.68475145      -0.00972909      -0.00334799       0.01282644
O        9.26573783       9.70735742       2.45839331       0.00245011      -0.00149345       0.00412995
C        7.84314988      11.92791399       2.31764097      -0.02538264      -0.00537801       0.01067059
C        8.61659684      10.61895208       0.04068716       0.00255033       0.00732508       0.00047427
H        7.99986257      12.10035143       3.38275711      -0.01903049      -0.00037287       0.00801006
H        6.94182253      11.32600456       2.21193002      -0.01508433      -0.02797730       0.00316098
H        7.74592266      12.87920378       1.79391237      -0.02343673      -0.00973879      -0.00573663
H        8.39226752      11.55149736      -0.47462867       0.01359639       0.01393189       0.00508401
H        7.74002190       9.97647356       0.12855758      -0.00060853       0.01229034      -0.00172217
H        9.40428734      10.09884270      -0.49690658       0.01371993       0.00280698       0.01393683
S        5.15310617       3.22612829       1.79200204      -0.00853932      -0.00264966       0.00607502
O        6.55459159       2.74505145       1.56109405       0.00360715       0.00039810       0.00881091
C        4.30173766       2.00496440       2.79277555       0.00227922      -0.01121598       0.00007358
C        4.25221532       2.91116987       0.25141015       0.00655496      -0.00400272      -0.00057346
H        4.56089534       2.16674446       3.83763224       0.00650834      -0.01799770      -0.00235668
H        4.65449801       1.01765589       2.49649350      -0.00183979      -0.01039854      -0.00718269
H        3.22612526       2.12090559       2.65544745      -0.00056311      -0.01090727       0.00609230
H        3.22882528       3.27130457       0.36189011      -0.00021431      -0.01844843      -0.00377879
H        4.26584262       1.84557299       0.02223430       0.02478289       0.00103800      -0.01184733
H        4.76185890       3.46679459      -0.53285082       0.00154571       0.01392384       0.00795965
S        6.33060020       3.71948638       5.47178871       0.00883293      -0.00436804      -0.00183952
O        4.89314794       3.47054562       5.79975477      -0.01338625      -0.00280946      -0.00270194
C        7.32130941       2.65758294       6.53090563      -0.01281866      -0.00725150       0.00727779
C        6.72084306       5.30448276       6.23813666      -0.00147540      -0.00667852       0.00125051
H        7.14308298       1.62983049       6.20596556      -0.00766817      -0.00677554       0.01024938
H        7.00795197       2.79284380       7.56638382      -0.01507777      -0.00014723       0.00594585
H        8.37872457       2.89876252       6.42211071      -0.01013684      -0.01723645       0.00201333
H        7.76460361       5.55606010       6.06135987       0.00359444      -0.01321310       0.00965318
H        6.50232869       5.25733148       7.30366200      -0.00820608      -0.00437178      -0.00097187
H        6.07898836       6.03952968       5.75368696       0.00863752      -0.00168972      -0.00328165
S       10.73896718       3.48724815      11.17746520      -0.00070596       0.00228834      -0.00310922
O       10.70217883       4.87410123      10.60162934      -0.01288070      -0.00468922      -0.00553280
C       10.50682034       2.36461214       9.79447676       0.00787258      -0.00651199       0.00169671
C        9.12195919       3.22233202      11.93759157       0.00193733      -0.01403046       0.00023043
H       11.40189936       2.39729136       9.17884511       0.00690340      -0.00206511       0.00092578
H        9.64619393       2.69242976       9.21164816       0.00442432      -0.01743075       0.00040520
H       10.36565492       1.34364158      10.14508209       0.01775307      -0.00617644       0.00357400
H        9.03650196       2.18310828      12.25216827       0.01130601      -0.01458423       0.00036182
H        8.34893802       3.47359020      11.21058378      -0.00007037      -0.02192688      -0.00003868
H        9.04155526       3.87762351      12.80232740      -0.00146906      -0.01312675      -0.00032721
S       11.11221198       7.77088598       7.27410826       0.00561309       0.01463372      -0.00774539
O       12.38376364       8.05708639       6.54567518       0.01718414       0.01154342      -0.03049970
C       10.52471320       6.19383373       6.60679143       0.00745943       0.01516819       0.00053430
C        9.85940175       8.84395544       6.57611811       0.00893527       0.01107836      -0.01192918
H       11.30876829       5.46886410       6.81657757      -0.00226972       0.00643402       0.01247758
H       10.37357367       6.28691708       5.53038361       0.01334017       0.00338055       0.00079392
H        9.60816787       5.89652721       7.11276167       0.00097018       0.02865072      -0.00208932
H        8.88782610       8.65158343       7.03517343       0.01338120       0.00803970      -0.00469394
H        9.82448529       8.70452899       5.49605081       0.00233940       0.00394800      -0.01231794
H       10.15720551       9.86975064       6.80691563       0.00792885       0.01182167      -0.02024446
S        1.55726599       4.99487507       2.82602390       0.00128293       0.00291538       0.00907531
O        0.12934818       5.46061761       2.90913300      -0.00475025       0.01901722       0.00527501
C        2.36446602       5.44968471       4.35995541      -0.00547463       0.00098646       0.00964046
C        2.42793426       6.18562021       1.79089385       0.00615752      -0.00547540       0.00854072
H        1.97086849       4.82136983       5.15617795      -0.00958234       0.00516427       0.00905561
H        2.16163123       6.50608694       4.54516655       0.00047372       0.00234288       0.00669880
H        3.43462034       5.27265748       4.25119394      -0.00465687      -0.00665152       0.01141538
H        3.49310865       5.96096543       1.82115752       0.00470348      -0.01912514       0.00704322
H        2.26138284       7.18249792       2.19692646       0.02098707      -0.00347373       0.00753853
H        2.02519743       6.10341261       0.78300973       0.00629716       0.00042563       0.00922335
S        6.64649607      10.53660770       8.41851933      -0.01196784       0.01635361       0.01110747
O        7.06328242       9.16025150       7.98308283       0.00533253      -0.04286051       0.00670516
C        8.01100110      11.22358178       9.35837902      -0.00157791      -0.00312355      -0.00007445
C        5.55849901      10.23544763       9.82917230      -0.00617337      -0.00442895       0.00970340
H        8.80286008      11.50881889       8.65854822      -0.00319779      -0.01278120      -0.00378156
H        8.33282666      10.47648189      10.08435422      -0.01075744       0.00415505       0.01000029
H        7.66159546      12.13100257       9.85288206      -0.01397853       0.01012233      -0.00823598
H        5.29863703      11.18465452      10.29646150       0.00352132       0.01165573       0.00433285
H        6.07946423       9.56456414      10.51386718      -0.00983176       0.00061092       0.01095241
H        4.65818479       9.76320421       9.43954726      -0.01450986       0.00260458       0.01318133
S        2.30912283      10.88775324       1.56123695      -0.01590908       0.00388974       0.00119707
O        1.28048622      11.86158037       2.16823033      -0.01936001      -0.00261617       0.01064378
C        3.58316369      10.80343872       2.79201430      -0.00311208      -0.01051169      -0.00515679
C        3.14089257      11.87582680       0.32130058      -0.01041824       0.00690818      -0.00097197
H        3.15865774      10.19815204       3.59385892      -0.00011981      -0.01042809      -0.00301275
H        3.86120773      11.79846480       3.14409499       0.01142169      -0.01007643      -0.01296252
H        4.44517753      10.29034909       2.36418239      -0.00462944      -0.01373001      -0.00808660
H        3.95213129      11.27482188      -0.08882605      -0.00875287       0.01514414      -0.01149647
H        3.52412765      12.77738197       0.79537587      -0.00253884      -0.00205220       0.00722982
H        2.41135529      12.11015840      -0.45087624      -0.01214796       0.01301212      -0.00074342
S        3.81854381       4.83899543       8.59578998      -0.04087234      -0.00422713      -0.01030499
O        2.40602933       4.78859957       8.13536481       0.01921034      -0.00391805       0.01352805
C        4.30397138       3.15041067       8.99464787      -0.00766919      -0.00408524      -0.00050938
C        3.76893917       5.46437341      10.29778580      -0.00567962      -0.00526801       0.00095421
H        4.37132368       2.63585710       8.03774553      -0.00948841      -0.00400673       0.00099495
H        3.54259209       2.70761822       9.63688522      -0.00783716      -0.00841472       0.00018400
H        5.27764669       3.15204633       9.48676476      -0.01413637      -0.00714087       0.00100903
H        4.77948160       5.52232712      10.70420841      -0.01107615      -0.01077111       0.00425008
H        3.13029922       4.82363281      10.90561204      -0.00951920       0.00022146       0.00147023
H        3.34664078       6.46543580      10.24208354       0.00010004      -0.00236987       0.00125547
S        2.64106775       9.30061561       6.16086111       0.00181782       0.00803268       0.00095785
O        2.04699535       8.95963537       4.81869125      -0.00494039       0.03202039       0.00699031
C        4.41860409       9.13698346       5.96970363       0.00130653       0.00231323      -0.00932373
C        2.39564973       7.87962506       7.22995154       0.00471184      -0.00470340      -0.01184741
H        4.82369420      10.07201830       5.57330494       0.00024079       0.00294730      -0.01270434
H        4.59017715       8.30810655       5.27950832      -0.00833014       0.00002825      -0.01097262
H        4.87676186       8.92664893       6.93436586       0.00390000       0.00147809      -0.01426391
H        2.83022953       8.12458737       8.20004194       0.00807585      -0.01742934      -0.01085712
H        2.86955011       6.99527844       6.81113844       0.00287184       0.00284728      -0.03007032
H        1.32236590       7.72971153       7.31796207       0.00419459      -0.00420820      -0.01299229
S        8.51149105       7.00140681      11.18927101       0.00338721       0.00872958       0.00812560
O        7.49528908       8.05709755      11.52344499      -0.00342166       0.02057135       0.01260281
C       10.02175802       7.85652090      10.71436389      -0.00312048       0.01134533       0.00187698
C        8.09005144       6.37385595       9.55389224      -0.00820911       0.01248387       0.01152456
H       10.41621302       8.32806494      11.61212186      -0.00247530       0.01857623      -0.00269258
H        9.78180299       8.60774125       9.96268212      -0.00189705       0.00292914      -0.00608422
H       10.73066010       7.12115025      10.34315234      -0.00118940       0.00649638       0.00931380
H        8.90303823       5.72036840       9.24192277      -0.00936604       0.00485003       0.01101590
H        7.92107407       7.22335406       8.88924519      -0.00224410       0.00920081       0.01199111
H        7.16993662       5.80121651       9.66407838      -0.00950878       0.01466287       0.01332598
S        6.35530666       7.53901078       2.55759653      -0.01145673      -0.00449932       0.01560962
O        5.17095070       6.97559497       3.27949900       0.01002908      -0.00822848       0.00728983
C        6.76440682       6.38820048       1.23618386       0.00641693       0.00702876       0.00653321
C        7.79201215       7.17466595       3.57808075       0.00265545       0.00884369       0.00548753
H        5.96897438       6.44943909       0.49561788       0.00515409       0.00396582       0.00682878
H        6.84512931       5.38230030       1.64762504       0.01165750       0.00565204       0.00451075
H        7.69418134       6.70668744       0.76954948       0.00258169       0.01571800       0.01058675
H        8.68157753       7.54682754       3.07806331      -0.00362517       0.01523884       0.00399903
H        7.82640862       6.09752793       3.74590244       0.01037121       0.00914036       0.00447381
H        7.65368754       7.71382177       4.51312012       0.00122564       0.00546755       0.00825784
