150
Lattice="12.668151147030912 0.0 0.0 0.0 12.668151147030912 0.0 0.0 0.0 12.668151147030912" Properties=species:S:1:pos:R:3:forces:R:3 energy=-1095089.125 stress="0.0006425672327168286 0.00045627684448845685 0.0003146786766592413 0.00045627684448845685 -0.0019525981042534113 -0.0006376215314958245 0.0003146786766592413 -0.0006376215314958245 4.66287019662559e-05" pbc="T T T"
Cf      13.09856688      10.88861599      -2.38339118       0.01432532       0.00787157      -0.01245953
O        9.92409955      10.99306071       7.51062662       0.00201678      -0.00822046       0.02071470
N       11.92196749      11.62078001       8.65185298       0.00536472       0.00887838       0.00238776
C       10.90748177      11.28824912       8.08196994      -0.01646200       0.00065925      -0.00303105
O        8.65632433      11.56464352      10.79503106       0.00431132       0.04936919      -0.00057340
N        6.57822102      11.96161854      11.93447969      -0.00448203      -0.00701189       0.00003946
C        7.62248153      11.77105044      11.38075669       0.00279345       0.02016710      -0.00177916
O       13.08147728      12.74848768       1.14188456      -0.00098392      -0.00980094      -0.00957048
N       12.04132789      11.61089478      -0.67856027       0.00732177      -0.00180718      -0.01716904
C       12.58225036      12.19269884       0.23744020       0.00771374      -0.00037983      -0.00481547
O       12.41815129       4.45538270       3.65574502      -0.00267756      -0.00230527      -0.00818877
O       13.13296311       2.37749050       3.30969658      -0.00640634      -0.00538456       0.00371408
O       14.15779924       3.66234275       4.84381754      -0.00235534       0.00224197      -0.00531614
C       11.49623937       3.91126928       2.68879011      -0.00734535      -0.00875318      -0.00035769
C       12.12329784       2.58133018       2.29848007      -0.00654982      -0.00931293       0.00312400
C       13.31069249       3.49222340       4.01523416      -0.00382841      -0.00148174      -0.00353003
H       11.41723552       4.59880916       1.84810340      -0.01390802      -0.01329511      -0.00323072
H       10.52793827       3.78827895       3.16781143      -0.00397867      -0.00824493       0.00624245
H       11.42889805       1.75077393       2.33536480      -0.00577205      -0.00981480       0.00557533
H       12.61803373       2.61640678       1.33106221      -0.00647795      -0.01157590       0.00303882
O        7.49334118       1.54407419       4.89166837      -0.01127136       0.01094933      -0.00934614
O        8.97261084       1.92828033       3.27380190      -0.01120963      -0.00327024      -0.01289174
O        9.55103537       2.31089118       5.41307441      -0.01001108       0.01772165      -0.01862431
C        6.78074806       1.26680871       3.67899619      -0.00896621      -0.00439937      -0.00845036
C        7.83794161       1.39486157       2.57848176      -0.00997055      -0.00469988      -0.00977242
C        8.75348995       1.94482997       4.60823299      -0.01023436       0.00556339      -0.01339459
H        5.97372973       1.99238555       3.57837227      -0.01458752      -0.01152551      -0.01262632
H        6.35096071       0.27189161       3.75407756       0.00014593      -0.00710949       0.00212217
H        8.11826812       0.44872571       2.12654397      -0.01056905      -0.00469285      -0.00899585
H        7.57493737       2.07337616       1.77127533      -0.01461264      -0.00726169      -0.01021457
O        9.68775330      10.80900901       2.11253415      -0.01109334       0.00457469       0.00267479
O        8.60863845      11.36489181       3.98201751      -0.01002133      -0.00793971       0.00680037
O       10.77074978      11.96412050       3.72086188      -0.01187539      -0.00183606       0.00746483
C        8.30862478      10.45552254       1.87419547      -0.00982662      -0.00166360       0.00415242
C        7.72042906      10.48057374       3.27500920      -0.00631541      -0.01073697       0.00567257
C        9.78991711      11.43099278       3.31620904      -0.01084924      -0.00160494       0.00579691
H        8.26741687       9.47533999       1.40670904      -0.00516010      -0.00008687       0.00027783
H        7.86552878      11.18538762       1.19434321      -0.01503766      -0.00202703       0.00748447
H        6.71047912      10.88248323       3.31618372      -0.00877059      -0.01776330       0.01072087
H        7.73998870       9.50704620       3.75760161       0.00193255      -0.01257408       0.00162056
O        7.22394519       5.97000481       2.65347526      -0.00253822       0.00087777      -0.00126523
O        5.66302046       6.16456511       4.21844873      -0.00167513      -0.00330496      -0.00002074
O        6.08533696       7.89307150       2.84086787      -0.01084119      -0.00390816      -0.00361958
C        7.29456243       4.73482328       3.39474527       0.00485712       0.00380382       0.00355792
C        6.03591005       4.76897386       4.25592449       0.00035495      -0.00315693      -0.00413892
C        6.30412837       6.77322652       3.21417711      -0.00550297      -0.00234228      -0.00174107
H        8.21111192       4.73699149       3.98463239       0.00193578       0.01505780       0.00811440
H        7.32095751       3.92710949       2.67103015       0.01675844       0.00158384       0.00687224
H        5.20919378       4.19665433       3.83076831       0.00316432      -0.00066005      -0.01357448
H        6.20996976       4.48422358       5.29023602      -0.00451532      -0.00635114      -0.00460011
O       10.75741057       2.18442696      10.95927240       0.00349993       0.00406885      -0.00522050
O        8.54974699       2.40536595      10.84425865       0.00138795      -0.01607593       0.00161561
O        9.55557947       2.29037733      12.85805055       0.00769285      -0.01484756      -0.00134659
C       10.47186552       2.36352585       9.55340431      -0.00262129       0.00786074      -0.00329757
C        8.96834943       2.15993384       9.48164643      -0.00018382      -0.00925252       0.00002293
C        9.61446459       2.28925283      11.66159702       0.00451033      -0.00989650      -0.00185943
H       11.03281094       1.62388759       8.98949843       0.00463849       0.01730034      -0.00848791
H       10.77269737       3.37107241       9.26649878      -0.01539922       0.01260060       0.00092601
H        8.46642088       2.86487926       8.82276765      -0.00997555      -0.01361540       0.00302574
H        8.70342812       1.13166683       9.23407292       0.01081648      -0.01197535       0.00032817
O        9.60014003       5.20252543       7.10575957      -0.00821352      -0.00016672       0.01065347
O        7.86702834       6.44352928       6.47311977      -0.00339817       0.00530601       0.00865211
O        7.52544367       4.32434704       7.14944776      -0.01177824       0.00889361       0.01525268
C       10.16989357       6.41678617       6.57249628      -0.00351316      -0.00453009       0.00579862
C        8.98056609       7.36146004       6.54038997       0.00079331       0.00066912       0.00447530
C        8.26919101       5.23796092       6.94493697      -0.00830576       0.00505030       0.01163302
H       10.56331765       6.20421066       5.57880866      -0.00619891      -0.00944425       0.00578952
H       10.97707409       6.73837526       7.22319423      -0.00101599      -0.00597982       0.00335348
H        8.87858353       7.96085431       7.44478379       0.00440375       0.00399336       0.00250357
H        8.96435663       8.00285310       5.66795799       0.00255222      -0.00211549       0.00247267
O        2.97166884       7.40781412       3.79756862      -0.00694248      -0.00449488      -0.00055350
O        1.95778145       7.89880028       1.88598560       0.00265302       0.00397493      -0.00327444
O        2.88375805       9.54820641       3.11410089      -0.00237672      -0.00177455       0.00801799
C        2.71480278       6.13672378       3.15723820      -0.00312275      -0.00170699      -0.00767499
C        1.65375486       6.50638767       2.14912677       0.00205481       0.00264306      -0.01137894
C        2.61799208       8.39248298       2.95299507      -0.00196233      -0.00083011       0.00186574
H        2.39766063       5.42158493       3.91153561      -0.00647347      -0.00500044      -0.01232111
H        3.63397000       5.80397603       2.67217832      -0.00071779       0.00082564      -0.00438377
H        1.71642139       5.94790022       1.22071892       0.00716995       0.00711656      -0.01351008
H        0.66021721       6.44875278       2.58814151      -0.00025368      -0.00032668      -0.01700258
O        3.85178215      10.60828638       9.57316166       0.00067833       0.01704770       0.00794199
O        4.38321536      12.68246297       9.02756389       0.01081473       0.00988668      -0.00845857
O        2.29450256      12.23147467       9.63466547       0.01007307       0.02570752       0.00365806
C        5.29302488      10.56057256       9.33652287      -0.00137866       0.00529194      -0.00115441
C        5.59602508      11.93309451       8.74935338       0.00503451       0.00047520      -0.00927272
C        3.43477227      11.85838141       9.40652664       0.00795069       0.01831686       0.00096194
H        5.48880614       9.74141348       8.65269873      -0.01213235       0.00069174       0.00133327
H        5.77740565      10.42074620      10.30011235       0.00347766       0.00628071      -0.00341582
H        6.41178398      12.42691904       9.26750689       0.01073110      -0.00223733      -0.01578090
H        5.73384614      11.92764549       7.67227219       0.00077675      -0.00574788      -0.00953734
O        2.48139867      10.93246539      -0.28727708      -0.00535715      -0.00889322      -0.00873932
O        3.67525209       9.07688711      -0.24410907      -0.00171453      -0.00639075      -0.01341824
O        1.73602066       9.13729303      -1.37722682       0.00058987      -0.00464053      -0.01848172
C        3.60035142      11.27829431       0.59442571      -0.00829861      -0.00944114      -0.00523776
C        4.48276582      10.03959945       0.51599133      -0.00666839      -0.00834422      -0.00551346
C        2.58911404       9.67017067      -0.66577812      -0.00144877      -0.00670272      -0.01354580
H        3.17724401      11.45684160       1.57680883      -0.01102887      -0.01220522      -0.00601032
H        4.09166279      12.15636043       0.18446592      -0.00833856      -0.00792095      -0.00180517
H        5.39652948      10.24123991      -0.04393342      -0.00416818      -0.00533053      -0.00007373
H        4.68488397       9.59306004       1.48417001      -0.01132038      -0.01141456      -0.00605622
O        4.17895518       2.62077931      12.51267792       0.01953188      -0.00278665       0.00856464
O        3.45968596       3.90376585      10.84644599       0.00474074      -0.00221853       0.01598302
O        2.54699427       4.12247956      12.89071144       0.02715218      -0.00180703       0.02700514
C        5.09286349       2.35062284      11.41616719       0.01184452      -0.00031331       0.00255442
C        4.37117744       2.96901481      10.22706775       0.00209629      -0.00085596       0.00842440
C        3.32073638       3.58872350      12.14925301       0.01769415      -0.00159642       0.01779595
H        5.25210401       1.27520679      11.35560888       0.01239584      -0.00012428       0.00224488
H        6.04513297       2.83042563      11.63865983       0.01271373       0.00094515      -0.00372840
H        5.02902359       3.52018704       9.55806356      -0.00339070      -0.00042802       0.00361700
H        3.78212714       2.25190071       9.66069817      -0.00060484      -0.00162908       0.01232499
O        2.92853023       8.98018213       6.80569210       0.00037882      -0.00338447       0.01924602
O        4.80626730      10.02355947       6.22963734      -0.01360965       0.00459699      -0.00654653
O        2.99318916      11.22841557       6.79496910      -0.01062053      -0.00383115       0.01714720
C        3.92003271       7.93619076       6.71063385       0.00125641      -0.00017685      -0.00009167
C        5.06563859       8.62171893       5.98415759      -0.00920576       0.00648663      -0.01061761
C        3.51797418      10.17148500       6.60758226      -0.00847867      -0.00156277       0.01060377
H        3.49512330       7.10675597       6.15687852      -0.00395955       0.00259501      -0.00024891
H        4.17789245       7.62518982       7.72518933       0.01474854      -0.00680026      -0.00607389
H        6.04453753       8.37005317       6.38660809      -0.00413516       0.01089000      -0.02023172
H        5.03760671       8.46059034       4.91176625      -0.01854155       0.00722693      -0.01039666
O       10.47996514       6.38367231       9.90163586      -0.00155950       0.00425288       0.00803820
O        9.32209179       8.26934411      10.12406595       0.01622270       0.01537264       0.00584506
O        8.24852671       6.37466074       9.57475043      -0.00148565       0.02454481       0.00720876
C       11.37344655       7.29774959      10.55804871       0.00670907      -0.00305995       0.00701836
C       10.69162109       8.64238308      10.33519151       0.02045917       0.00249803       0.00191057
C        9.25945977       6.95254371       9.84704858       0.00433093       0.01589382       0.00707199
H       12.35485986       7.21845007      10.09704661       0.00677559      -0.01391334       0.00939132
H       11.42312540       7.01755327      11.60876524       0.00207948      -0.00058571       0.00782230
H       10.71856134       9.33412881      11.17869727       0.02923516       0.00591758      -0.00113776
H       11.03649675       9.13389683       9.41630582       0.02458887      -0.00606121      -0.00093919
O        9.96682642       8.01871735       3.59505787       0.00533077      -0.00018325       0.00364083
O       12.04185364       8.52911346       2.97821013       0.00449937       0.00328659       0.00464240
O       11.42475319       8.78073268       5.13240184       0.00650397      -0.00762013       0.00620604
C       10.10071311       7.49101650       2.26241016       0.00557005       0.00502577       0.00131400
C       11.35698555       8.18278474       1.75637089       0.00345963       0.01025921       0.00325385
C       11.17777385       8.48248639       4.00478914       0.00570236      -0.00211301       0.00577968
H        9.20497871       7.72019140       1.69980981       0.00425541       0.00457439       0.00291234
H       10.20583528       6.41004793       2.32799856       0.00840212       0.00504446      -0.00270259
H       12.00430038       7.52747028       1.17927419       0.00353983       0.01463622      -0.00180382
H       11.15275958       9.10109794       1.20828638       0.00041659       0.01336896       0.00910801
O        7.76240535       7.22318258      12.47185754       0.00933194      -0.00141462       0.00618341
O        7.26644435       5.06438308      12.30745482       0.00595349      -0.00016067       0.00044166
O        9.39502417       5.70388825      12.67726608       0.00551999      -0.00499663       0.00778767
C        6.34702424       7.20694825      12.22929030       0.01035345       0.00213921       0.00049159
C        6.05926981       5.73971237      11.91494621       0.00652871       0.00226846       0.00343326
C        8.23981043       5.96437898      12.49846045       0.00722343      -0.00231686       0.00512497
H        6.13689181       7.86937723      11.39264646       0.01572034       0.00007677      -0.00240710
H        5.84786696       7.55592001      13.13024343       0.00794524       0.00607556      -0.00241232
H        5.23249144       5.33765800      12.49646336       0.00754681       0.00515598       0.00665763
H        5.90060564       5.56001760      10.85295159       0.00252636       0.00109347       0.00420153
