143
Lattice="12.42397765400811 0.0 0.0 0.0 12.42397765400811 0.0 0.0 0.0 12.42397765400811" Properties=species:S:1:pos:R:3:forces:R:3 energy=-1070259.75 stress="-0.0002807669516187161 -0.0009884829632937908 -0.00027377110382076353 -0.0009884829632937908 -0.0010993477189913392 -9.621524077374488e-05 -0.00027377110382076353 -9.621524077374488e-05 -0.0005738609470427036" pbc="T T T"
Cf      13.01441773      13.09279722       0.50361605       0.03013977      -0.00038838      -0.01009822
Cl       4.06392615      10.88104009       9.18099368      -0.00868559      -0.01422441       0.01379704
O        3.81263795      12.14533668       9.93281787      -0.01489526       0.02592659       0.01635718
O        5.43696795      10.93502616       8.61844680      -0.01029992      -0.01043994       0.01167846
O        3.96136872       9.72806810      10.09716687      -0.00318395       0.01837063       0.03885651
Cl       3.39460489      11.02637050       3.12230320      -0.02235138       0.00694728       0.01395458
O        4.29500691      10.43246968       4.17036982      -0.00868142       0.02136493       0.00761068
O        0.58754710      11.65788969       1.66123476       0.00294334       0.00543213       0.01568019
O        4.02849324      12.16824735       2.35679004      -0.03556460       0.00458372      -0.00354999
Cl       7.75542833      12.08550184      11.00379654       0.01977587       0.01934755      -0.00574923
O        7.62654955      13.26985842      11.91878789       0.03932264       0.01417232       0.01256919
O        6.97125413      10.97851185      11.58167376       0.02591336       0.01910877      -0.00179863
O        9.19888824      11.68616247      11.00610285       0.01003718       0.01441574      -0.03460732
O        9.11699635       7.13181928       0.58863915       0.00516158       0.00152034      -0.00913015
C       11.15316987       6.76129731       1.74178019       0.00318599      -0.00235106      -0.00650561
C       11.20431004       8.09645010       0.99556717       0.00378245       0.00127092       0.00021940
C        9.95552368       6.08129901       1.08443498       0.00417835       0.00046515      -0.01077676
C        9.72506827       8.39454674       0.88038184       0.00369698       0.00105028      -0.00262801
H       12.06339608       6.16860904       1.65577501       0.00335571      -0.00163490      -0.00921635
H       10.95927549       6.93572762       2.80391522       0.00265025      -0.00780228      -0.00591487
H       11.75442767       8.88443415       1.50826020       0.00202744      -0.00123040       0.00616431
H       11.64211805       7.95980377       0.00372207       0.00672159       0.00705881       0.00090978
H       10.27242083       5.46285416       0.23635029       0.00519080       0.00263953      -0.01200974
H        9.38375211       5.45767145       1.77713950       0.00297123      -0.00178680      -0.01340210
H        9.33713158       8.76854949       1.83499688       0.00054765      -0.00257564      -0.00254029
H        9.45756542       9.09848088       0.09215577       0.00561760       0.00315124      -0.00093877
O       11.41041417       2.21352781       1.42630905       0.00550233       0.00017496      -0.00265674
C        9.20848521       2.22265415       2.24967647       0.00044864      -0.00538921      -0.01301310
C       10.17093470       2.22281904       3.43697655      -0.00561289      -0.00461026      -0.00874990
C       10.06885227       1.70153010       1.11766714       0.00751033      -0.00178650      -0.00953892
C       11.46753356       2.68511978       2.79849748      -0.00303304      -0.00108424      -0.00240025
H        8.32650646       1.60567503       2.39886017      -0.00008473      -0.00552636      -0.01639186
H        8.87799136       3.24155252       2.04472100       0.00048263      -0.00535795      -0.01422660
H        9.85451606       2.89367386       4.23483924      -0.01107019      -0.00683907      -0.00879331
H       10.28587506       1.21795400       3.84722856      -0.00616484      -0.00504827      -0.00974442
H       10.11181117       0.60652327       1.08839655       0.00863492      -0.00134826      -0.01014359
H        9.78708516       2.05422570       0.12930488       0.01113564      -0.00178260      -0.00991628
H       11.53577871       3.77457428       2.76214160      -0.00540938      -0.00131440       0.00181076
H       12.36702816       2.27763443       3.26364242      -0.00600824      -0.00038299       0.00157095
O        6.68667545       1.80203949       7.19453968      -0.00607187      -0.00131515       0.00065482
C        5.19958563       1.31450322       5.46812222      -0.00087214      -0.00951049      -0.00141543
C        4.43923533       1.11439095       6.77750929      -0.00286615      -0.00972703      -0.00245369
C        6.62238500       1.10596827       5.95623189      -0.00153029      -0.00521582       0.00234032
C        5.37856931       1.74636968       7.80542133      -0.00679088      -0.00436077      -0.00213012
H        4.90724164       0.62338179       4.68055604       0.00244685      -0.01303619       0.00005020
H        5.08003959       2.33818200       5.10390982      -0.00312109      -0.01138732      -0.00404189
H        3.45182570       1.57549446       6.78966655      -0.00442486      -0.01286653      -0.00559219
H        4.32517432       0.04973161       6.97672436      -0.00021737      -0.00953037      -0.00082636
H        6.81604267       0.03617942       6.11018745       0.00094453      -0.00356227       0.00556864
H        7.39251358       1.51730427       5.30009546      -0.00097656      -0.00480902       0.00271010
H        5.08776616       2.77545884       8.03068173      -0.01087235      -0.00554770      -0.00347582
H        5.42413768       1.17045078       8.73105880      -0.00626273      -0.00271803      -0.00078738
O        7.17788807       9.27696169       3.09074125      -0.00679734      -0.00600404      -0.00074171
C        7.78344283      11.50787566       3.56277199      -0.01192740      -0.00561166       0.00599021
C        7.92420468      11.25506429       2.06469325      -0.00735778      -0.00274962       0.00601685
C        7.73565098      10.09234047       4.12508745      -0.01409909      -0.00660783       0.00409774
C        7.00693904      10.06085918       1.89987584      -0.00620800      -0.00316352       0.00136048
H        8.59229362      12.09322053       3.99977091      -0.01371327      -0.00599659       0.00937580
H        6.83956062      12.01947607       3.75496745      -0.01265621      -0.00636558       0.00378575
H        7.61891115      12.07965791       1.42553768      -0.00478794      -0.00228181       0.00646761
H        8.95338240      10.98931348       1.80481418      -0.00638297      -0.00254598       0.00919504
H        8.74619091       9.72509957       4.35357523      -0.01530427      -0.00625628       0.00979708
H        7.13262547       9.99812437       5.03060834      -0.01936379      -0.00772192      -0.00020951
H        5.96977051      10.40093329       1.81874748      -0.00664765      -0.00328565       0.00169265
H        7.22592653       9.43661991       1.03674141      -0.00449857      -0.00025782       0.00018394
O        4.26614689       3.95307163       1.65051673       0.00224349       0.00885516      -0.00395964
C        2.75419036       2.14490587       1.43818905      -0.00287599       0.01197404      -0.00661255
C        2.19476606       3.38015739       0.73360142      -0.00085765       0.01490467      -0.00168910
C        3.85792794       2.75877608       2.31291419       0.00701588       0.00317538      -0.01280873
C        3.49090730       4.12516002       0.46661409      -0.00286710       0.01898785      -0.00054502
H        2.07187182       1.58655833       2.10349541       0.00029203       0.01520485      -0.00301389
H        3.22350759       1.44370954       0.73654882      -0.00474742       0.00973794      -0.00639966
H        1.64288830       3.18617633      -0.19453224      -0.00450817       0.02099464      -0.00137475
H        1.54886052       3.95445531       1.40414958      -0.00030105       0.01241638       0.00233090
H        3.46383152       3.02130771       3.30197580       0.01968473      -0.00805448      -0.00466293
H        4.69941640       2.07881849       2.43728334       0.00688964      -0.00174546      -0.03095298
H        4.01384477       3.68553481      -0.38603187      -0.00620547       0.02501115      -0.00810826
H        3.36623343       5.19066873       0.28580002      -0.00533231       0.01921475       0.01321333
O        7.81834911       5.05689194       3.64767222       0.01339567      -0.00920254       0.00532417
C        6.64834281       6.75058979       4.75792105       0.00276928      -0.01312852       0.00013888
C        5.81268717       5.47613477       4.88533361       0.00652939      -0.01598731      -0.00368047
C        7.47540431       6.44662149       3.52589790       0.00890881      -0.01038432       0.00378284
C        6.76275235       4.39124221       4.35874423       0.01280922      -0.01252514       0.00125861
H        6.05152679       7.65236333       4.64573693      -0.00000079      -0.01537928      -0.00279696
H        7.30693121       6.88089807       5.61733226      -0.00158441      -0.01079198       0.00311241
H        5.49523597       5.27792357       5.90938430       0.00253943      -0.01694990      -0.00519603
H        4.91690172       5.54632779       4.26596967       0.00948581      -0.01922393      -0.00812244
H        6.90958127       6.61886379       2.60410013       0.01210138      -0.01267491       0.00161272
H        8.40158535       7.01428958       3.46269860       0.00734872      -0.00717860       0.00740875
H        7.21737531       3.81852259       5.17153501       0.01132244      -0.01035914       0.00354290
H        6.25887002       3.69680351       3.67985228       0.01818398      -0.01512381      -0.00035045
O       11.76254198       3.77479234       9.88448744      -0.00794527      -0.01445978       0.01250029
C       11.36637561       2.80229874       7.77632941      -0.00601561      -0.00940746       0.00951815
C       10.79862356       4.22154557       7.76555932       0.00220031      -0.00626282       0.00992575
C       11.41307671       2.52890850       9.27188591      -0.01078644      -0.01195981       0.00910586
C       11.52161101       4.84634575       8.95275839       0.00121364      -0.01192902       0.01331025
H       10.75447362       2.08049414       7.23830456      -0.00860551      -0.00516731       0.00732771
H       12.37401446       2.79229990       7.35208040      -0.00514367      -0.01435172       0.01137343
H       10.97683353       4.76316685       6.83709608       0.00765074      -0.00624217       0.01107185
H        9.72091282       4.19783799       7.93891324       0.00146988      -0.00051684       0.00647344
H       10.43419459       2.19236170       9.63619472      -0.01159585      -0.01030302       0.00683989
H       12.16009797       1.78027112       9.56767650      -0.01277000      -0.01447591       0.00913519
H       12.48711299       5.26693097       8.64800484       0.00489163      -0.01651172       0.01777969
H       10.94492994       5.62817527       9.45038425       0.00367922      -0.00989655       0.01240388
O        6.06580455       4.76976705      11.33681333      -0.00506961       0.00785369      -0.00553820
C        8.28937146       4.40827535      10.71327679      -0.00501907       0.00428297       0.00259155
C        7.42916975       3.41215226       9.93641740      -0.00336730       0.00940150      -0.00619492
C        7.37995294       4.70980361      11.89409364      -0.00886488      -0.00208611       0.00103849
C        6.02029791       3.96065809      10.15540865      -0.00513029       0.00601435      -0.00396082
H        9.25789253       4.00078404      11.00668004      -0.00666124       0.00068620       0.00351248
H        8.46327739       5.32083565      10.13542152      -0.00223663       0.00762028       0.00958221
H        7.67518497       3.31901816       8.88048651      -0.00196390       0.01868280      -0.00683337
H        7.51544941       2.42770273      10.39727780      -0.00163163       0.00654778      -0.01465416
H        7.43116072       3.90287355      12.63816889      -0.01533084      -0.00874567      -0.00554815
H        7.57247555       5.66462274      12.37773010      -0.00748169      -0.00680214       0.00946587
H        5.68695369       4.59970273       9.32950171      -0.00983129       0.00310957      -0.00330514
H        5.28736709       3.15881237      10.28645355      -0.00171646       0.00266439      -0.00083204
O        7.84764050       8.21344390       7.58171955      -0.00803655       0.00664632       0.00233018
C        8.18292362       8.41752472       9.89668609      -0.00585124       0.01227599       0.00158852
C        6.79104456       7.82681332       9.68314521      -0.00563473       0.01194767       0.00437117
C        8.40715843       9.10129608       8.56269642      -0.00607990       0.00829618      -0.00010377
C        6.83708892       7.41225619       8.21473999      -0.00854099       0.00994918       0.00547796
H        8.21430935       9.12451965      10.72077230      -0.00456872       0.01472214      -0.00060156
H        8.92852067       7.63319561      10.06215105      -0.00597347       0.01207304       0.00375964
H        6.55498455       6.98885371      10.33907272      -0.00553044       0.01377562       0.00636554
H        6.04032237       8.60358874       9.83739848      -0.00570223       0.01329198       0.00397120
H        7.87812527      10.06107740       8.53634555      -0.00437927       0.00878346      -0.00232007
H        9.45671435       9.26001074       8.30682845      -0.00589985       0.00622815      -0.00127575
H        7.12546923       6.35833640       8.09324833      -0.00967842       0.00847304       0.00715539
H        5.88195048       7.56561784       7.70287676      -0.00832641       0.00970457       0.00601402
O        2.88551788       7.07451783       2.87287304       0.02067135      -0.01492393      -0.01311171
C        3.62733162       7.97061058       0.77851701       0.01192299       0.01103267      -0.00456452
C        2.09515714       7.98476854       0.88367326       0.01224768       0.00536923      -0.00104570
C        4.07762960       7.34473266       2.11351194       0.01801664       0.00814596      -0.00826728
C        1.88499980       7.95758446       2.39075668       0.01475254      -0.01484168      -0.00101995
H        3.98039419       7.40773947      -0.08500392       0.01085970       0.01589179      -0.00804037
H        4.01419430       8.98225608       0.66617272       0.00819339       0.01283121      -0.00088314
H        1.65167404       8.85265214       0.40136190       0.00720674       0.00939089       0.01089105
H        1.66485567       7.08382772       0.43705397       0.01595370       0.01067007      -0.01503391
H        4.58632047       6.38868322       1.99360977       0.03356828       0.01697320      -0.01271184
H        4.72326415       8.02616826       2.67698362       0.00595486       0.01516879      -0.00254211
H        2.00585279       8.96320222       2.80887137       0.01172815      -0.01944184       0.01135954
H        0.92270449       7.57328669       2.72120680       0.01742157      -0.02361181      -0.00365394
