143
Lattice="12.706657639024053 0.0 0.0 0.0 12.706657639024053 0.0 0.0 0.0 12.706657639024053" Properties=species:S:1:pos:R:3:forces:R:3 energy=-1162605.0 stress="-0.0006612970028072596 -0.0006016585393808782 -0.00013525992108043283 -0.0006016585393808782 -0.0010970578296110034 0.000238226872170344 -0.00013525992108043283 0.000238226872170344 -0.00046563995420001447" pbc="T T T"
Cf       9.89039073      11.57175792      -0.53524098      -0.00815445       0.00081804       0.00573144
O       10.56372169      11.93072730       9.90648336       0.00872183       0.00898165       0.01394916
O       11.91170061      10.86654107      11.28904505       0.00251275       0.00860220       0.01894641
C       11.62452007      11.28246977      10.13539453       0.01282279       0.01568469       0.02360764
H       12.30742811      11.06036774       9.30178860       0.02276969       0.03229349       0.02869332
O        7.64835024      12.12853473      12.01538151      -0.00679296       0.00584877       0.00406557
O        6.00775000      12.81631558      13.39702287      -0.01366138      -0.00155557       0.00060463
C        6.62574841      12.80521038      12.33100439      -0.00523113       0.00400352      -0.00039732
H        6.23955104      13.46400571      11.50789355      -0.00123596       0.00934765       0.00393680
O       10.98755858      12.19586323       1.24794664      -0.01628673      -0.00776625       0.01495945
O       11.58482322      11.50091238       3.28769778       0.03250401      -0.01284376       0.00738120
C       11.60789755      11.40211440       2.06920894       0.00360526      -0.02369165      -0.02808356
H       12.20403876      10.60289690       1.58567547      -0.03110653      -0.01145190      -0.01747236
S       10.94377041       3.25886744       3.68488138       0.00702572       0.00011075       0.00252676
O       11.29306057       4.31076363       2.67855218       0.00655979       0.00913453       0.01269829
C       12.16745486       1.95480125       3.50786569       0.00413412      -0.00075155      -0.01497041
C        9.56535791       2.29963956       3.03655963       0.00343919       0.00933319      -0.00277874
H       13.11402108       2.34936881       3.87094391       0.00593805      -0.00520606      -0.01461265
H       12.23220842       1.67414904       2.45599501       0.00010335       0.00935984      -0.01741731
H       11.87133427       1.08551207       4.09454166       0.00488581      -0.00472163      -0.02114110
H        9.37553101       1.48053361       3.73021957       0.00203373       0.00551169      -0.00734179
H        9.82077692       1.90282914       2.05402137      -0.00023997       0.01552377      -0.00590979
H        8.70658595       2.96505218       3.01115776       0.00593071       0.01268812       0.00400385
S        8.26919266       9.65070529       2.19817046      -0.00777340       0.00451505       0.00833702
O        9.25642808       9.97503241       1.09365816      -0.01560187      -0.01017532       0.00118917
C        6.65470097       9.62640693       1.42099980      -0.01307458      -0.00145899       0.01994583
C        8.09035127      11.13128630       3.18926289       0.00094650       0.01695019      -0.00786397
H        6.74078474       8.95797769       0.56615466      -0.02111096      -0.01742017       0.03213679
H        6.39235770      10.63189936       1.09186116      -0.01007151      -0.00692376       0.00270184
H        5.92950524       9.22671317       2.13130725      -0.01113220       0.01571675       0.03013588
H        7.36921793      10.89712655       3.97405782       0.00280498       0.03252175      -0.00233040
H        7.73237370      11.94958229       2.56483353       0.00260282       0.01033756      -0.01693884
H        9.07106466      11.34079599       3.61623083       0.00285041       0.01614262      -0.01399357
S        1.40318310       2.16171452      11.52713441       0.00174141      -0.00624132      -0.01815224
O        0.48956291       1.12344369      10.97455978       0.00626695      -0.00177062      -0.03154838
C        1.49162337       3.49033146      10.29824687       0.00933186       0.00095776      -0.00926381
C        3.08436446       1.55483664      11.26088130       0.00424039      -0.00317612      -0.00860119
H        0.58881120       4.08944799      10.37909300       0.00485337      -0.00506651      -0.01593550
H        1.55379695       3.02576670       9.31345832       0.02239451       0.00686298      -0.01080368
H        2.35842458       4.11574298      10.49934807       0.00331423       0.00455011       0.00359625
H        3.79364574       2.31172974      11.59553156       0.00051399      -0.00403205       0.00049548
H        3.20971880       1.32506240      10.20219711       0.01246713       0.00267524      -0.00871949
H        3.19953119       0.65558868      11.86132202       0.00127634      -0.00596298      -0.01227164
S        3.16967950       1.79764527       3.86879300       0.00149703      -0.01032668      -0.00274615
O        4.38422638       2.56957688       4.26209445       0.00416136      -0.01213223      -0.00993910
C        3.54456887       0.05833347       4.16583072      -0.00181289      -0.01100278      -0.00102291
C        3.17279578       1.69754559       2.07030707      -0.00581315      -0.01411272      -0.00254166
H        3.69322581      -0.03525022       5.23992862      -0.00144296      -0.01260418      -0.00129153
H        4.45242504      -0.20448110       3.62124188      -0.00266977      -0.01224117      -0.00183673
H        2.69742631      -0.55468316       3.85779506      -0.00293107      -0.00974001      -0.00028870
H        2.34287178       1.06440218       1.75666949      -0.00568567      -0.01575772       0.00084036
H        4.13228049       1.30698421       1.72380758      -0.00635341      -0.01310570      -0.00498280
H        3.00443103       2.70816320       1.70235496      -0.00806819      -0.01498128      -0.00381351
S        7.49701887       5.78205665       4.86952426      -0.00052989      -0.00282824      -0.00730857
O        8.54002350       4.71175673       4.87427194      -0.00345898      -0.00574350       0.00590827
C        5.91942258       4.93823466       4.85247220      -0.00376707       0.00260782       0.00356150
C        7.40293632       6.39570319       3.18293576       0.00072173      -0.02229124      -0.01447678
H        5.81179534       4.40248277       5.79240782      -0.00313221       0.01343803       0.00963612
H        5.91447597       4.21649221       4.03946212      -0.00904580      -0.00590645       0.01149166
H        5.11652502       5.66368091       4.73248076      -0.00096647       0.00464351      -0.00209448
H        6.52517542       7.03622357       3.08601401       0.00203301      -0.02171624      -0.02088347
H        7.33380449       5.53494170       2.51817159      -0.00168751      -0.02991344      -0.00418745
H        8.31870725       6.94594227       2.98846352       0.00165449      -0.02644892      -0.02133640
S        9.31152952       2.43510459      11.34382058       0.00167483      -0.00087559       0.00442243
O        9.78755539       1.25515321      12.15107248       0.00407422      -0.00070328       0.00022322
C        8.85604420       1.84879373       9.70373345       0.01055148       0.00417182       0.00042003
C       10.83139979       3.25681071      10.88243859      -0.00112331       0.00966467       0.01401059
H        7.89302815       1.35309967       9.80062812       0.01292388      -0.00158781      -0.00522546
H        9.61296274       1.14612945       9.35784788       0.01546499       0.00925475       0.00122688
H        8.76680759       2.70974291       9.04215000       0.00833376       0.00637889       0.00417399
H       10.61435334       4.08731035      10.21232380      -0.00602252       0.01804334       0.02688392
H       11.47796536       2.50520501      10.42731113       0.00066808       0.01867667       0.00259262
H       11.26971623       3.62380372      11.80983571      -0.00105285      -0.00137744       0.01796708
S       11.60590274       6.48074276       7.32495339       0.00404632       0.00564766       0.00421274
O       11.25598905       7.52086478       8.34143304      -0.00142097       0.00066447       0.00626493
C       11.24625054       7.18243399       5.70728914       0.00145426       0.00757658       0.00581092
C       10.23446409       5.31142961       7.34280986       0.01022446      -0.00117028       0.00080150
H       12.00778183       7.93573199       5.51847279      -0.00206700       0.01142815       0.00785502
H       10.25669588       7.63904612       5.74260342      -0.00072709       0.00238582       0.00557742
H       11.27857696       6.39309631       4.95420539       0.00674277       0.00882691       0.00505629
H       10.31176672       4.60065475       6.52346831       0.01153517       0.00541404      -0.00428522
H        9.30434655       5.87127382       7.25133633       0.00771610      -0.00465085       0.00720813
H       10.27335104       4.79942222       8.30181437       0.01592756      -0.00787664      -0.00315911
S        2.89799713       6.84116304       3.60682249      -0.01159406      -0.00824845      -0.00382698
O        4.09422212       7.58996125       3.06933356      -0.00945961      -0.00592095       0.00491261
C        2.56834246       5.52819739       2.42374113      -0.00899081       0.00095981      -0.01456124
C        1.44577868       7.83555052       3.28107199      -0.01023662      -0.00644222      -0.00137804
H        3.39742627       4.82795402       2.51472600      -0.00879183       0.00059610      -0.01959819
H        2.51356886       5.95721870       1.42300958      -0.00768667       0.00939700      -0.01084583
H        1.62882195       5.03920012       2.68687280      -0.00919944      -0.00118519      -0.01994562
H        0.57284430       7.22741397       3.51686163      -0.01096354      -0.00843758      -0.00859265
H        1.43018464       8.14440353       2.23330153      -0.00800311      -0.00019049       0.00047100
H        1.49158984       8.67883224       3.96719035      -0.01330401      -0.01042235       0.00417949
S        5.91471734      10.26313866       9.07375755       0.00079876      -0.00117933       0.00116515
O        5.94758683       9.82893974      10.50009402       0.00279359      -0.00071028       0.00078583
C        7.42762637      11.19398499       8.77604961       0.00070715      -0.00187886      -0.00328227
C        4.77433680      11.66139920       8.98958855       0.00283849       0.00056839       0.00320036
H        8.25794229      10.49168591       8.78351587       0.00057316      -0.00179805      -0.00709618
H        7.55035654      11.88093736       9.61125930       0.00364002      -0.00191651      -0.00376835
H        7.36812014      11.70983302       7.81779662      -0.00352483      -0.00125927      -0.00260663
H        4.78451177      12.08279470       7.98409321      -0.00227492      -0.00161252       0.00236185
H        5.08269329      12.40091310       9.72955487       0.00795451       0.00154218      -0.00011797
H        3.78334676      11.27635769       9.22243060       0.00357227       0.00286666       0.00941454
S        2.15018380       9.62482258      -0.42577638      -0.00854993      -0.01858437      -0.00854599
O        1.09066884       8.81053603       0.24239712      -0.00461805      -0.02401555      -0.01011634
C        3.69081490       8.72790791      -0.23033971      -0.00346857      -0.01036319      -0.00686333
C        2.56919856      10.96310770       0.72006948      -0.01656726      -0.01603842      -0.00877863
H        3.62668270       7.83600685      -0.85139280       0.00039014      -0.01167171      -0.00516301
H        3.81971203       8.46153233       0.82076470      -0.00256161      -0.00788700      -0.00645551
H        4.50993623       9.33660241      -0.61240035      -0.00549786      -0.00797282      -0.00762721
H        3.49838251      11.44480551       0.41002042      -0.01765220      -0.01316466      -0.00685410
H        2.68634070      10.53368378       1.71617853      -0.01733891      -0.01433805      -0.00791050
H        1.74058844      11.66997903       0.70108188      -0.01921783      -0.01951191      -0.01198093
S        4.94353609       4.83531925      10.84990449       0.00675857       0.00448990       0.00510743
O        5.14021484       6.23883276      10.39890042       0.00834578       0.00394547       0.00411871
C        6.14623301       4.51447804      12.15380114       0.00531060       0.00438797       0.00626856
C        5.67107448       3.77484062       9.58002021       0.00707331       0.00343424       0.00651175
H        5.84763171       5.13576708      12.99605435       0.00630973       0.00680041       0.00472012
H        7.13963282       4.79783120      11.80703706       0.00624615       0.00116254       0.00649697
H        6.11840127       3.46088801      12.43654255       0.00241050       0.00516652       0.00827697
H        5.66322878       2.73785907       9.91451172       0.00863232       0.00400479       0.00789551
H        6.68635196       4.11392745       9.37240707       0.00640666       0.00480039       0.00572948
H        5.04933059       3.88206918       8.69267137       0.00669682       0.00172445       0.00658341
S        3.27421575       8.83772812       7.09895505      -0.00391567       0.00847846      -0.00309718
O        1.99710450       8.67578777       6.34734230      -0.00279844       0.01343590      -0.00676334
C        4.53970938       9.31989557       5.89408254      -0.00093952      -0.00158558      -0.00254822
C        3.92651491       7.18385097       7.41404395      -0.01279312       0.00638640       0.00337483
H        4.32186437      10.34596177       5.60214075       0.00185732      -0.00252707      -0.00755545
H        4.47904269       8.66982971       5.02007272      -0.00308806      -0.00535078       0.00054123
H        5.52063764       9.26492837       6.36396831      -0.00183754      -0.00240464      -0.00111849
H        4.93076486       7.25324303       7.83135661      -0.01629141       0.00248917       0.01235069
H        3.90708121       6.62633898       6.47788634      -0.00693104       0.00462278       0.00441842
H        3.27341761       6.72008263       8.14964000      -0.02011453       0.00956505      -0.00133602
S        8.84026553       8.19331856      11.36580109       0.00124687       0.00756383       0.00668716
O        9.29598087       9.59040607      10.97777490      -0.00829259       0.00904608       0.00123671
C       10.34272177       7.21467077      11.47510686       0.01008838       0.02310556       0.01449083
C        8.22830363       7.50668438       9.82665607       0.01090775      -0.00172439       0.00754786
H       10.93711287       7.61513518      12.29342790       0.00671487       0.03725845       0.00946224
H       10.87812488       7.28505570      10.52673856       0.00979328       0.02062400       0.01475415
H       10.04808928       6.18802775      11.70140544       0.02223863       0.02241843       0.02401366
H        8.10120222       6.43184198       9.95159490       0.01756892      -0.00207229       0.01098277
H        8.96381931       7.72799892       9.05177686       0.01121280       0.00018790       0.00860015
H        7.25141581       7.94885076       9.65334075       0.00867066      -0.00860044       0.00385411
