139
Lattice="11.543874121434747 0.0 0.0 0.0 11.543874121434747 0.0 0.0 0.0 11.543874121434747" Properties=species:S:1:pos:R:3:forces:R:3 energy=-1027456.625 stress="-0.002574936021119356 -0.0004550176963675767 -0.0003574074216885492 -0.0004550176963675767 -0.0030726506374776363 0.0010067415423691273 -0.0003574074216885492 0.0010067415423691273 -0.0017989746993407607" pbc="T T T"
Cf      12.21120614       9.74897918       0.97808251       0.00064955      -0.00858979       0.00626411
O       11.63004329      11.30013717       2.70350487      -0.00036705       0.00128236      -0.01598802
O       10.09598299      10.41356575       1.38780999      -0.00166434      -0.00655133      -0.00827312
C        9.44311644      11.01597962       3.61472796       0.00327379       0.00325090      -0.00981295
C        8.14085238      10.56710608       3.40152118       0.00196783       0.00698119      -0.00438116
C        9.82249452      11.44474209       4.88994011       0.01073918       0.00166789      -0.01193382
C        7.22744806      10.53210144       4.44332336       0.00660644       0.00901042      -0.00045560
C        8.90851501      11.40051568       5.93241924       0.01597320       0.00260640      -0.00736259
C        7.61251881      10.94224000       5.71447715       0.01396918       0.00628697      -0.00215557
C       10.43136190      10.93728170       2.51837941      -0.00023544      -0.00054933      -0.01243126
H        7.87611029      10.21969601       2.41459570      -0.00350907       0.00878766      -0.00333679
H       10.83325978      11.79410283       5.05372995       0.01197794      -0.00104047      -0.01715111
H        6.21526699      10.18646882       4.28686860       0.00494063       0.01287313       0.00405808
H        9.19855246      11.74412541       6.91742220       0.02162980       0.00076234      -0.00900510
H        6.89013788      10.91492198       6.52125915       0.01789504       0.00764172       0.00095600
O        2.06555938       6.61122040       3.35883563       0.00995506       0.01804256      -0.01555157
O        0.75779620       8.17952229       2.46235578       0.01247710      -0.01240197       0.01278876
C        3.08979542       8.58772833       2.51034270       0.00514227      -0.01095459       0.00252107
C        2.96849551       9.98391624       2.50085073      -0.00264714      -0.00112982       0.01561226
C        4.31223159       8.00826457       2.17428971       0.00098740       0.00861867      -0.01088769
C        4.03887703      10.78181675       2.10037772      -0.00172839       0.00191730       0.01583881
C        5.37309340       8.80394366       1.77225227      -0.00017044       0.00821554      -0.01113097
C        5.22957162      10.18739244       1.71146889      -0.00784868       0.01224133       0.00485268
C        1.91822066       7.70509844       2.82763445       0.00549774      -0.03169519       0.01536283
H        2.07253816      10.46216270       2.88933339       0.00035055      -0.01200226       0.02254634
H        4.40140997       6.93181013       2.22161095       0.00547786       0.00179672      -0.02439929
H        3.93012680      11.85921506       2.08904372      -0.00785745       0.00240678       0.02856092
H        6.31419706       8.34480134       1.50046888      -0.00416821       0.01634964      -0.02453373
H        6.05066781      10.80061006       1.36735669      -0.01010433       0.01499564       0.00531546
O        1.98060270      10.37730301      10.86389939       0.00545089       0.03189713       0.01689773
O        1.92933674       8.16294232      10.80962437      -0.01889926       0.02987540       0.03426678
C        3.94472077       9.27208916      10.09975632      -0.01049304       0.00720096       0.01111612
C        4.63171183       8.13183671       9.68413789      -0.02472527       0.00262877       0.01625891
C        4.61325253      10.49184092      10.13609512       0.00023273       0.00489384       0.00297897
C        5.97052695       8.22033292       9.31754290      -0.02585338      -0.01521388       0.00792306
C        5.94685768      10.59064968       9.77157926       0.00088710      -0.01299946      -0.00532673
C        6.62867202       9.44843397       9.36545338      -0.01512794      -0.01918792      -0.00200035
C        2.53868571       9.22807484      10.59090565      -0.00214565       0.03612325       0.01841412
H        4.11066479       7.18562710       9.64902414      -0.03350883       0.00503023       0.02552203
H        4.06671344      11.34692461      10.49522421       0.01210895       0.00907589       0.00093986
H        6.51341994       7.33925872       8.99386880      -0.03639822      -0.01958211       0.00988885
H        6.44974355      11.54997770       9.82700674       0.00793998      -0.01667027      -0.01253389
H        7.67356926       9.51304423       9.08560873      -0.01615044      -0.03251473      -0.00909328
O        0.12358701       5.10942324       1.83575622       0.00886512       0.00093448       0.00297183
C        0.92338249       4.28611724       1.00335877       0.00300348      -0.00580686      -0.00029996
C        2.23260079       4.95910919       0.63469839       0.00201756      -0.00692198      -0.00560679
C        1.14306937       2.91427781       1.62751228       0.00402377      -0.00257319       0.00455838
H        0.33291900       4.15185328       0.08895394       0.00035188      -0.00814232       0.00319749
H        2.76731086       4.36439955      -0.10280784      -0.00047239      -0.00970516      -0.00520840
H        2.06225321       5.95304122       0.22024639       0.00117096      -0.00818795      -0.00700846
H        2.86678360       5.05557491       1.51830970       0.00490294      -0.00500730      -0.00781476
H        1.66100607       2.24917469       0.92972475       0.00043857      -0.00616381       0.00597802
H        0.19332152       2.45582305       1.90175877       0.00463682      -0.00020177       0.00949600
H        1.75080308       3.00335053       2.53125650       0.00715398       0.00021297       0.00219500
H        0.69505477       5.55076644       2.48728774       0.00616059      -0.00597453      -0.00249428
O        6.68602091       2.63757607      10.52921420      -0.00348687      -0.00439751      -0.00772280
C        5.52752242       3.26333389       9.96113687       0.00024420       0.00019509      -0.00925214
C        4.29094662       2.43191901      10.24845062      -0.00254762       0.00259450      -0.01658563
C        5.36147676       4.69444626      10.42644762       0.00281805      -0.00109243      -0.00499770
H        5.72930666       3.26074399       8.88696159       0.00403955       0.00379613      -0.00827038
H        3.38334238       2.94013249       9.92645589       0.00007194       0.00821900      -0.01382513
H        4.34591088       1.48206367       9.72714492      -0.00621017       0.00605087      -0.02295507
H        4.20098097       2.24509162      11.32313542      -0.00479741      -0.00422863      -0.01829657
H        4.47686368       5.12617202       9.95672981       0.00657722       0.00369165      -0.00714065
H        6.22540080       5.29883482      10.15984068       0.00555202      -0.00353163       0.00010231
H        5.20795865       4.73675395      11.50724484      -0.00085070      -0.00387995      -0.00553723
H        6.60186243       2.69622686      11.48669297      -0.00634558      -0.00701287      -0.00804658
O        4.15823392      10.41568077       5.54675503       0.01008373       0.00044826      -0.00043082
C        3.91138857       9.35875282       6.48685351       0.00788668       0.00568557       0.00363214
C        2.49456204       9.44422602       7.02386019       0.00618488       0.00722957      -0.00175855
C        4.20142234       7.99353098       5.88623733       0.01230276       0.00344080       0.01156038
H        4.61781383       9.55423991       7.29482470       0.00460240       0.01082586       0.00505787
H        2.28209213       8.59566011       7.67708513       0.00595286       0.01396513       0.00594734
H        2.33247762      10.36648007       7.58301594       0.00318446       0.01219499      -0.01178670
H        1.77807393       9.41022462       6.19823291       0.00862673      -0.00255956      -0.00283387
H        4.14537874       7.22113182       6.65598006       0.01133334       0.00719172       0.01462990
H        5.19601041       7.95735897       5.44124924       0.01367494       0.00346883       0.01548424
H        3.46942067       7.73591337       5.11806017       0.01555528      -0.00154164       0.01043101
H        3.57409928      10.27415873       4.79428894       0.02125029      -0.01118008      -0.00672621
O        8.20612995       5.41352475       8.59569692       0.00064194      -0.00044593       0.00110179
C        8.94793281       4.94277760       9.73223163      -0.00156552      -0.00185248       0.00107753
C        9.85582771       3.79266654       9.32100931      -0.00950733      -0.00885129       0.00547618
C        9.70700696       6.08682583      10.38971509       0.00583854      -0.00553656      -0.00221685
H        8.20474525       4.55276162      10.42805035      -0.00301051       0.00500661       0.00295851
H       10.45298747       3.44287060      10.16582525      -0.01785511      -0.01365825       0.00874275
H        9.26358398       2.95722737       8.94846342      -0.01440816      -0.00351629       0.00259645
H       10.52716755       4.11764245       8.52331708      -0.00200832      -0.01530596       0.00959220
H       10.21148728       5.76320372      11.30167481      -0.00050902      -0.00476214       0.00116666
H        9.01432745       6.89073852      10.64858187       0.01263277       0.00169078      -0.00922804
H       10.45780512       6.49346396       9.71148203       0.01170582      -0.01563339      -0.00148258
H        8.89755802       5.75884366       7.99224768      -0.00013441       0.00109127       0.00050499
O        8.97527047       5.38180854       3.59309625      -0.00114238       0.00562531       0.01136398
C        8.64898878       5.91538963       2.31481066       0.00105596      -0.00212121       0.00757599
C        7.21012020       5.61015134       1.92756559       0.00292385      -0.00653000       0.00578956
C        8.92916684       7.40621203       2.27840905      -0.00103708      -0.00249070      -0.00167646
H        9.32988994       5.40990415       1.63323641       0.00360590      -0.00526494       0.01250374
H        6.96747494       6.05982164       0.96251875       0.00546323      -0.01322724       0.00235137
H        7.04210039       4.53393342       1.85241978       0.00403790      -0.00674009       0.01283556
H        6.52216554       6.01099362       2.67762956       0.00031503      -0.00172799       0.00061926
H        8.67515744       7.84540805       1.31134933       0.00152629      -0.01048060      -0.00566162
H        9.98290081       7.58959115       2.47779731      -0.00225082       0.00077679       0.00012798
H        8.34091266       7.91259818       3.04788427      -0.00444882       0.00245745      -0.00806503
H        8.31041400       5.67375050       4.23651304      -0.00260778       0.00671800       0.00866960
O       10.27934287       6.35649139       7.16195367      -0.01612425      -0.00530988      -0.01819745
C       10.12343490       7.70139740       6.68921302       0.00230552      -0.00183362      -0.01201876
C       10.55323726       8.69786130       7.75414250       0.00271711      -0.01228124      -0.00355250
C       10.85366310       7.86162109       5.37404085       0.01692018      -0.00294064      -0.00296468
H        9.04631810       7.80430560       6.51947399       0.00557357       0.01050406      -0.02141021
H       10.43841723       9.71890075       7.38974400       0.01666806      -0.00924589       0.00213558
H        9.95692713       8.58230113       8.65997944      -0.00578344      -0.01081411      -0.00958608
H       11.60120338       8.55091452       8.01905917      -0.00109649      -0.02461863       0.00272046
H       10.66386050       8.84287756       4.93853903       0.03478516       0.00220673       0.00329906
H       10.52723668       7.09682442       4.67055047       0.01505651       0.00594865      -0.01060195
H       11.93013947       7.75199528       5.51953312       0.01355372      -0.01826123       0.00749534
H       11.22496580       6.14663557       7.27717693      -0.01870827      -0.01520127      -0.01678045
O        6.84935257       5.21066446       5.56263471       0.00164156       0.00072974       0.02005696
C        6.84668509       3.85788309       5.06461982      -0.00134566       0.00293088       0.01606744
C        8.04533702       3.09366559       5.57682312      -0.00097257       0.00044346       0.01051250
C        5.53300945       3.16673411       5.37100699      -0.00097698       0.00280058       0.01697293
H        6.94096025       3.96665241       3.98463810      -0.00442936       0.00553853       0.01624900
H        8.08749930       2.11583707       5.10300022      -0.00190319       0.00259970       0.00675167
H        8.96492538       3.62771495       5.34265033      -0.00178094       0.00161956       0.01122241
H        7.97544414       2.94861678       6.65852480       0.00091637      -0.00363736       0.00986962
H        5.50119887       2.17904786       4.90455740      -0.00203200       0.00407015       0.01505291
H        4.69325577       3.75815048       5.00287868      -0.00133504       0.00362855       0.01932335
H        5.41580943       3.02710147       6.44685862       0.00034359       0.00069121       0.01664132
H        7.09693442       5.17528889       6.49697435       0.00970856      -0.00125700       0.01768982
O        1.34123953       5.24563544       7.64267311      -0.02236754       0.01264390      -0.02509099
C        1.74756347       4.33475983       6.59115964      -0.01514391       0.00534257      -0.01707651
C        2.56494974       3.19979960       7.17522147      -0.01488718       0.01367998      -0.00420368
C        0.54663557       3.83126285       5.81501121      -0.01175743      -0.00090542      -0.01604816
H        2.37069315       4.94873530       5.93712359      -0.01408112       0.00321236      -0.01862621
H        2.89345515       2.51178288       6.39548909      -0.01144452       0.00744413       0.00374779
H        3.44826936       3.57530853       7.69104262      -0.01756120       0.02049144      -0.00524770
H        1.96284845       2.62187118       7.88410525      -0.01656033       0.02019254      -0.00075953
H        0.87560526       3.23718101       4.96091770      -0.00830825      -0.01112613      -0.00638364
H       -0.05895681       4.65477876       5.43983178      -0.00815050      -0.00446266      -0.02836305
H       -0.07995625       3.19797130       6.44867151      -0.01591949       0.00887035      -0.01135127
H        1.08903022       4.71715865       8.40851146      -0.00726543       0.01767030      -0.01605161
