147
Lattice="12.160589615143602 0.0 0.0 0.0 12.160589615143602 0.0 0.0 0.0 12.160589615143602" Properties=species:S:1:pos:R:3:forces:R:3 energy=-147608.234375 stress="0.00041848470573313534 0.0008659873274154961 -0.0002702424244489521 0.0008659873274154961 -0.00045205256901681423 0.00021972359536448494 -0.0002702424244489521 0.00021972359536448494 -0.0018746667774394155" pbc="T T T"
Co      13.54596805      11.60809220       1.15163906      -0.00577201       0.00863753       0.00372866
P        6.45381072      10.86968530       8.41991358      -0.01696239      -0.00342063      -0.00235079
F        7.89081398      11.30623443       8.98510626      -0.01684767      -0.00438797      -0.00209838
F        6.03094763      10.28739352       9.85747626      -0.01818758      -0.00241810      -0.00254315
F        4.90669544      10.44351890       7.86959405      -0.01777196      -0.00297822      -0.00360569
F        6.79464467      11.46145520       6.97322352      -0.01635045      -0.00378880      -0.00221151
F        6.98714084       9.42942033       7.97570891      -0.01960039      -0.00397271      -0.00184947
F        5.82785687      12.31987987       8.83725027      -0.01757613      -0.00364846      -0.00314978
P        4.47145554      10.33603359       4.24916357      -0.00177568      -0.01019254      -0.01712263
F        5.37610208      10.60196480       2.97800266      -0.00737764      -0.01508611      -0.02154477
F        4.93068321      11.67009806       4.98245260       0.00146059      -0.00323710      -0.02573249
F        3.20842875      11.10549228       3.63835651      -0.00427032      -0.01214600      -0.01590575
F        3.88587093       8.96840747       3.65193753      -0.00374663      -0.01164535      -0.00539055
F        5.59692271       9.50760947       5.01327077       0.00299096      -0.00295249      -0.01692876
F        0.69842486      10.13204122       1.86885412      -0.02386766       0.01210481      -0.00225777
O        3.38292265      10.07841626       5.76385852       0.00625703      -0.00019097      -0.01089734
C        2.24930983       9.12387106       5.77246670       0.00713842      -0.00036147       0.00200269
C        2.71541909       7.77026747       6.25376070       0.00995630       0.00022650       0.00131515
C        1.12773000       9.70203241       6.60075542       0.01626918       0.00219257       0.01252559
H        1.94650085       9.08448637       4.73010851      -0.00325043      -0.00308374       0.00509632
H        1.88482357       7.06637221       6.18392325       0.00720152       0.00205469       0.00910936
H        3.53747950       7.40215118       5.64306762       0.00371046      -0.00358904      -0.00434695
H        3.04341077       7.81974599       7.29418366       0.01958782       0.00230140      -0.00173593
H        0.24154991       9.08365789       6.44845936       0.01422787       0.00253309       0.02279065
H        0.89188139      10.71735199       6.28762186       0.01463348       0.00188747       0.01333907
H        1.36877218       9.70441717       7.66499857       0.02814761       0.00319540       0.00975123
H        3.94573874      10.06723260       6.58086960       0.00623769       0.01010872      -0.01029348
O        1.58527708       3.20587904       3.61523713      -0.00877982       0.00274462       0.00913727
C        0.98260439       1.92936047       3.54104820      -0.00566732       0.00153345       0.00763489
C        1.61119829       1.10483783       2.40509359       0.00070930       0.00318339       0.01055458
C        1.03446648       1.17309274       4.86078700      -0.00634101       0.00140709       0.00764763
H       -0.06332764       2.12612838       3.29758948      -0.00559133      -0.00183983       0.00473823
H        1.11911076       0.08392577       2.59731082       0.00799677       0.00032690       0.01092499
H        1.36908900       1.55538347       1.42116651       0.00151201       0.00032972       0.00888116
H        2.69586516       1.02458438       2.52536362       0.00049883       0.00833276       0.01335381
H        0.43044062       0.26516434       4.79454056      -0.00532307       0.00077847       0.00712776
H        0.64041991       1.79408135       5.66490913      -0.00732698       0.00075696       0.00766654
H        2.05437621       0.87333165       5.10609691      -0.00606535       0.00257537       0.00838782
H        2.54122874       3.13110618       3.76253551      -0.00882534       0.00339714       0.01156788
O        1.63780795      10.56261778      11.79048148      -0.01512066       0.01055877       0.00064844
C        2.51914129      10.99747739      10.69466223      -0.00527751       0.00572321       0.00649806
C        1.67262428      11.87303686       9.79962685       0.00491431       0.00724366      -0.00117579
C        3.73902637      11.68387815      11.25101863      -0.00758272       0.00237927       0.01558939
H        2.80808317      10.08484638      10.16523070      -0.00429567       0.00374275       0.01030986
H        2.25672648      12.17048749       8.92880161       0.01313852       0.00459902       0.00382438
H        0.77838957      11.34623078       9.46696692       0.00613019       0.00940162      -0.00747165
H        1.36394027      12.77541091      10.33209156       0.00325001       0.00829054      -0.00355607
H        4.37770458      12.01526066      10.43369146      -0.00006883      -0.00117012       0.02000269
H        4.32914730      11.00344199      11.86267259      -0.01596680       0.00181077       0.02281134
H        3.46784858      12.55932276      11.85026925      -0.00957578       0.00518057       0.01096928
H        1.86233184       9.68013422      12.11808000      -0.03153813       0.00459486      -0.00705376
O        7.91068121       5.27004566      10.08829744       0.00870794       0.00808185      -0.01571506
C        7.16948407       4.04750456      10.12028084       0.01384696       0.00364465      -0.00286862
C        5.93638285       4.27126128       9.26995238       0.00625408      -0.00035186       0.00924507
C        8.00269745       2.86913009       9.65412253       0.00900948       0.00081486      -0.00771698
H        6.83944269       3.85148271      11.15377933       0.02546065       0.00813182       0.00293666
H        5.30599961       3.38177718       9.26477436       0.00825725      -0.00120498       0.02035747
H        5.35974410       5.11758699       9.64545488       0.01088477       0.00132196       0.01164603
H        6.23974769       4.49267937       8.24578114      -0.00515967      -0.00524247       0.00481635
H        7.42129157       1.94677911       9.64703359       0.00877304       0.00014432       0.00403039
H        8.86006227       2.71765977      10.31536447       0.01833281       0.00311085      -0.01931702
H        8.37314195       3.04490777       8.64239829      -0.00568368      -0.00510438      -0.01436669
H        8.84773294       5.08710796      10.21769891       0.00777103       0.02060917       0.01931207
O       10.91599935       6.49486941       9.95024252      -0.03259861      -0.00769234       0.01177123
C       10.39998206       7.80910970      10.24378276      -0.02107334       0.00666338       0.00091690
C       11.39045123       8.57894360      11.09233514      -0.00527501      -0.00201452      -0.00770903
C       10.02718796       8.55166823       8.97633311      -0.00689024      -0.00289586      -0.00787270
H        9.48836198       7.61154747      10.81006565      -0.01826936       0.02350722       0.00088507
H       10.99252803       9.55368531      11.37514130       0.00341491       0.00278708      -0.00839514
H       11.65596852       8.03661349      12.00149553      -0.00780435      -0.00141883      -0.00718847
H       12.30008436       8.76349965      10.50977777      -0.00656785      -0.01195993      -0.01182774
H        9.52197182       9.48808231       9.21478432       0.00459276       0.00561528      -0.01632478
H        9.34799548       7.96017677       8.36553773      -0.01556897      -0.00088920      -0.00128511
H       10.92271927       8.78297224       8.39220874      -0.00489141      -0.02048391      -0.01071422
H       11.84073140       6.59802326       9.70466754      -0.04086891      -0.02155073       0.00285234
O       10.89334347       6.38580577       4.87600863       0.00738019       0.01099093       0.01258659
C        9.73202892       6.11052863       5.65475603      -0.00375557       0.00254241       0.01768667
C        8.66999192       5.37834852       4.85123414       0.00623989       0.00226268       0.00480130
C       10.07346147       5.36134377       6.92849411       0.00542443      -0.01236507       0.00502837
H        9.35102249       7.10249662       5.91412557       0.00066450      -0.00817335       0.02113007
H        7.75825853       5.26914114       5.44270671       0.00493184      -0.00203009       0.00431715
H        8.42478963       5.92158722       3.94138144       0.00523474       0.00920293       0.00907207
H        9.01316678       4.37588113       4.57921676       0.00634429       0.00529224      -0.00098171
H        9.19616181       5.26469446       7.57108055       0.00850643      -0.00920537       0.01013216
H       10.83366494       5.89262967       7.49599480       0.01156834      -0.01746060       0.00339256
H       10.44265565       4.35860052       6.69363886      -0.00081271      -0.01162812      -0.00135268
H       11.25296330       5.56062182       4.53205475      -0.01048066       0.02284580      -0.01884300
O        6.50004037       7.13783153       0.76035780       0.01348186       0.00118914      -0.01033002
C        5.35381012       7.18721979       1.60777261      -0.01462317       0.00908577       0.00954241
C        4.15326002       6.49951381       0.97939414       0.00568634      -0.00911099      -0.01485512
C        5.67399974       6.61722712       2.98309762      -0.00212474      -0.01429087      -0.00941211
H        5.14262469       8.25191385       1.71448063       0.00335680      -0.01837200      -0.00521100
H        3.25468071       6.66920367       1.57509667       0.00250995      -0.01203195      -0.00867391
H        3.98408322       6.87920491      -0.02907731       0.00244254      -0.00012630      -0.00871696
H        4.31529239       5.41887612       0.91824831       0.00507548      -0.00530066      -0.01745900
H        4.78990455       6.64795071       3.62227985      -0.00160904      -0.01270501      -0.01105833
H        6.45705649       7.19866807       3.46931905      -0.00132136      -0.01198693      -0.00424110
H        6.01226631       5.58201877       2.88431476      -0.00034790      -0.01105374      -0.00920371
H        6.60129639       6.24511297       0.41400622      -0.00289212      -0.00609682      -0.01967868
O       10.53769561       8.71332848       2.61177500      -0.00470269      -0.01043352      -0.02114509
C        9.16914490       9.12056016       2.69486538      -0.00152308      -0.00286502      -0.00722375
C        8.92593986      10.07461511       3.85443685       0.02066799      -0.00281322      -0.00352120
C        8.67693746       9.69220188       1.37730569      -0.00909072       0.00384021      -0.00143141
H        8.63106686       8.18853728       2.89250848      -0.00776303       0.00191700      -0.00360399
H        7.85630229      10.22124903       4.00983626       0.02332751       0.02119856      -0.00148909
H        9.35129489       9.68340891       4.77799975       0.01353561      -0.01647850      -0.00537282
H        9.37232726      11.05203817       3.65076307       0.04491301      -0.01281516      -0.00174757
H        7.60740120       9.89856135       1.42224704      -0.00731644       0.01283339       0.00980649
H        8.84915401       8.99448083       0.55969026      -0.02428535       0.00259861      -0.00430441
H        9.19343260      10.62964101       1.15568436      -0.00184579      -0.00128138      -0.00658495
H       11.11077905       9.44177502       2.32852220      -0.00286797      -0.00572462      -0.00500345
O       11.72196215       6.36957164       1.65337943       0.00990313      -0.00510693       0.02396357
C       10.96561868       5.35950869       0.99876229       0.00836259       0.00723350       0.00588835
C       11.28367328       4.02664227       1.65342999       0.00120711       0.00008476      -0.00787085
C        9.47521844       5.63835377       1.00351191       0.00880110       0.01469906       0.00589691
H       11.30250689       5.31712382      -0.04438687       0.00972161       0.01769963       0.00600696
H       10.87128936       3.19155533       1.08024548      -0.00258367       0.00865727      -0.01691424
H       12.36194520       3.91148222       1.74719157       0.00067723      -0.00466864      -0.00788373
H       10.85745036       3.99668233       2.66020790       0.00058343      -0.00718527      -0.00812805
H        8.94701502       4.86378334       0.44293575       0.00437086       0.01759110       0.00591335
H        9.23380827       6.59969419       0.55273984       0.01475604       0.01663783       0.00643123
H        9.08780941       5.63404808       2.02280124       0.00935682       0.01671618       0.00588089
H       11.15340922       7.07520222       2.01215244       0.01133212       0.00898665      -0.00017792
O        4.41551158       3.42453960       4.29963700      -0.01559699      -0.01465505       0.00065304
C        4.48235173       2.58905232       5.48764435      -0.00390538      -0.00453737       0.00695691
C        5.91122425       2.36782086       5.92906831       0.00054365       0.00442487      -0.00315219
C        3.59584806       3.17168374       6.57011749       0.00314230       0.00139561       0.00960279
H        4.07587373       1.63886827       5.14344801      -0.00312179      -0.00898337       0.01854622
H        5.94363270       1.67581219       6.77105348       0.00989039       0.01086229       0.00176328
H        6.50203300       1.93038842       5.12498394      -0.00517655       0.00057823      -0.00534229
H        6.37191040       3.30933073       6.23767716      -0.00075242       0.00895375      -0.01488486
H        3.51155590       2.47110745       7.40207099       0.01542611       0.00881112       0.01717070
H        2.59955103       3.37798892       6.17913941      -0.00181448      -0.00758479       0.01719152
H        4.01917125       4.10105341       6.95935952       0.00147220       0.00774059      -0.00319291
H        4.74734653       4.30446658       4.51176270      -0.01688780      -0.01143175      -0.00767437
O        5.02489731       1.90279708       2.01567381       0.00200123      -0.00136533      -0.00708168
C        6.40773581       1.54114844       2.01023158       0.00170541      -0.00095516      -0.00332502
C        6.66829305       0.78954038       0.72367220       0.00496364      -0.00171897      -0.00207442
C        7.28113750       2.77925383       2.14166115       0.00241268      -0.00138015      -0.00183918
H        6.61147144       0.87086798       2.85768561      -0.00031731      -0.00047249      -0.00234687
H        7.72326619       0.53298741       0.63004147       0.00498995      -0.00239368       0.00149142
H        6.09237192      -0.13233240       0.69617563       0.00423139      -0.00104098      -0.00356293
H        6.38085652       1.40270287      -0.13241923       0.00821954      -0.00169334      -0.00327537
H        8.34120557       2.51853663       2.12822021       0.00215353      -0.00219867       0.00077841
H        7.07745782       3.30367476       3.07739296       0.00070727      -0.00007795      -0.00330923
H        7.08458646       3.46416365       1.31424486       0.00513102      -0.00194050      -0.00341056
H        4.88000850       2.48771900       2.77650580      -0.00375552      -0.01077797      -0.00091887
