147
Lattice="17.240727454241185 0.0 0.0 0.0 17.240727454241185 0.0 0.0 0.0 17.240727454241185" Properties=species:S:1:pos:R:3:forces:R:3 energy=-1494029.25 stress="-0.0008019366068765521 0.00012891009828308597 -0.00011083332356065512 0.00012891009828308597 -0.000638370169326663 -1.5025064385554288e-05 -0.00011083332356065512 -1.5025064385554288e-05 -0.001097672851756215" pbc="T T T"
Co      18.56665522      16.40509537      -0.26134745       0.00634405      -0.01928012      -0.00017647
P       16.37770514      15.32292906       0.09814922       0.00000253      -0.03051353      -0.01671138
O       15.72252027      15.65020501       1.52309382      -0.01307216      -0.00086734      -0.02612257
O       15.52325097      14.42786122      -0.69237879       0.02889991      -0.02949727       0.00980210
O       17.85975232      14.87784442       0.41794371       0.00495970      -0.01113975       0.02322870
O       16.79258197      16.71655050      -0.51690075       0.00674402      -0.03169298      -0.03438801
H       14.99091620      15.04865402       1.69927568      -0.01309152       0.00008190      -0.02654086
Cl       7.29941900       7.73505178      14.45769831       0.00658262      -0.02320024       0.00090519
Cl       6.04082589       5.42535152      13.23595512      -0.01141653      -0.00370654      -0.01564893
Cl       4.61837840       7.95122568      13.38193190       0.00457123       0.00263700       0.01324069
Cl       5.10303967       6.41710627      15.79420772       0.00355473      -0.02267992      -0.00387782
C        5.76317239       6.88953147      14.22209110       0.00110954      -0.01189980      -0.00152189
Cl      13.46588332      14.31292580       8.45374407      -0.00481617       0.00095341      -0.00977559
Cl      11.28007136      16.18906108       8.19208495      -0.01521058      -0.01312566      -0.01969916
Cl      12.14754960      15.33805309      10.82788262      -0.00903287       0.00777191      -0.01566833
Cl      10.77131504      13.47122840       9.09258163       0.00043419      -0.00949314      -0.00313536
C       11.92224564      14.83303051       9.14869941      -0.00741276      -0.00380224      -0.01275012
Cl       9.28136685       9.57831480       5.81832209       0.00016478       0.00676417      -0.00243110
Cl       6.55736962      10.58688646       5.77330039      -0.00324857      -0.00451554      -0.00183626
Cl       8.43524512      11.38212297       3.71496816      -0.00730001       0.00332119      -0.00182813
Cl       8.75434838      12.36131626       6.42754629      -0.01087683       0.00398463      -0.00218531
C        8.25704656      10.97147887       5.43101943      -0.00530057       0.00238150      -0.00209406
Cl       4.83269992       7.96972764       3.73205039      -0.00694138       0.00663820      -0.00336966
Cl       4.11511347       5.81672907       5.53821347      -0.00737235       0.01454982       0.00479707
Cl       2.23142484       6.70453583       3.52037711      -0.00366619       0.00128238      -0.00361916
Cl       2.84389787       8.40912448       5.78833670      -0.01232980       0.01297677      -0.01077908
C        3.50915141       7.22410198       4.64565220      -0.00765493       0.00893313      -0.00324649
Cl       1.15847067      17.71687093       9.52298154      -0.00539095      -0.00721866      -0.00911992
Cl      -0.22293534      15.21927649      10.04328215       0.00736871      -0.01194847      -0.00423625
Cl       2.51716480      15.55858457      10.90763060       0.00356004       0.00322200      -0.00197950
Cl       1.92309936      15.31738689       8.08966685       0.00684917      -0.00601450      -0.00195867
C        1.34077736      15.95188706       9.63980006       0.00355445      -0.00561637      -0.00425954
Cl      14.08780622       7.81009623       8.72451396       0.00275017       0.00620458       0.00101769
Cl      13.17290701      10.34501662       7.66288682       0.00869048       0.00203738      -0.01128241
Cl      13.19413836       7.99792504       5.97082715       0.00826594      -0.00497192      -0.00115794
Cl      15.69571110       9.22383808       6.77223295       0.00822189      -0.00504454      -0.00142702
C       14.02807427       8.84165054       7.28680244       0.00677982      -0.00033783      -0.00294780
Cl      15.46161325      12.13879448      12.90602339      -0.01408102       0.01525804       0.00123116
Cl      13.19810914      11.68354069      11.15587228       0.00145310       0.00928275      -0.00341503
Cl      14.72397243       9.43591468      12.15674160      -0.00464850       0.02042717       0.00260212
Cl      15.89289994      11.21341492      10.18934568      -0.00258592       0.01184670       0.00962928
C       14.81879580      11.12051248      11.60377641      -0.00296545       0.01669912       0.00453847
Cl      10.86140275       2.87637597       7.62213511      -0.00400932      -0.00248706      -0.00537175
Cl      10.83831233       5.73120343       8.13829355      -0.00304839      -0.00315025      -0.00363371
Cl      10.95385326       4.75471858       5.41243789       0.00572282      -0.00129509      -0.00332069
Cl      13.24852231       4.44283213       7.16643148      -0.00148797      -0.00462005       0.00490973
C       11.47812827       4.45761969       7.08752509      -0.00080667      -0.00282824      -0.00188919
Cl      12.02995878       6.01590573      -0.01451498      -0.00649376      -0.00669473      -0.01376275
Cl      12.77829368       3.31391867      -0.74385729      -0.00411597      -0.00824210      -0.00453705
Cl       9.99036924       4.07973260      -0.70580854      -0.00417113      -0.00770240      -0.00366801
Cl      11.44580473       3.82608600       1.78649408       0.00017143       0.00000161      -0.00518805
C       11.56004894       4.31038912       0.08232794      -0.00331648      -0.00633870      -0.00671690
Cl       2.29944604      11.74240742      10.50359230       0.01135691      -0.00469564       0.00903857
Cl       4.29825212      12.43155032       8.52292347       0.01023531      -0.00413269       0.00882766
Cl       1.80108522      11.20196434       7.70380630       0.00763264       0.00224830       0.00900546
Cl       3.79483815       9.65842330       9.15556938       0.00612606      -0.00426584       0.00298909
C        3.05302865      11.25449457       8.97731141       0.00861211      -0.00285776       0.00724206
Cl       6.48346183      -0.16733708       5.63458423      -0.01982903       0.00481135      -0.00016700
Cl       5.12963830       2.25903002       4.80755117      -0.00813276       0.01069942      -0.00026995
Cl       7.73819409       2.40309875       6.07091383      -0.01253903      -0.00053853       0.00847494
Cl       5.42074773       1.65949874       7.62759230      -0.02019569       0.00439541      -0.00130653
C        6.19293337       1.54100316       6.03616086      -0.01508424       0.00487557       0.00165019
Cl      11.93234155      16.86172901      15.66686423      -0.01076984       0.00727504       0.00090265
Cl      11.32833093      14.14127173      16.47186220      -0.00070494       0.00834876      -0.00203258
Cl      13.04954083      14.63254943      14.19374291      -0.00224888       0.00718707      -0.00087756
Cl      10.20566498      15.20060636      14.02280024      -0.00040740       0.00717873      -0.00821531
C       11.63829007      15.20757103      15.08266224      -0.00360869       0.00758728      -0.00132586
Cl      12.06000945      10.08454463       3.00263820      -0.00514598       0.00978506      -0.00129440
Cl      14.54858984      11.25065122       3.91573977      -0.00672382       0.00696027       0.00538987
Cl      12.01940106      12.31884974       4.84237250      -0.00750118       0.00954461      -0.00186935
Cl      12.83651406      12.73157082       2.09732566       0.00058827       0.00806341       0.00077909
C       12.87169638      11.59447439       3.47214609      -0.00456202       0.00851789       0.00091077
Cl       7.59208985       3.18866081       1.83897316       0.00291078       0.00795317       0.00875381
Cl       5.13078431       4.69786543       2.04494737       0.00371122       0.00930290       0.00072394
Cl       7.53112707       5.99773209       1.07866090       0.00714684       0.00708976       0.00755373
Cl       7.34789902       5.24351969       3.85456887      -0.00215092       0.00816223       0.00709426
C        6.90332927       4.78502399       2.20549256       0.00287390       0.00813785       0.00609994
Cl      15.92498174       3.21566845       1.48807945      -0.00549142       0.00379583       0.00342888
Cl      16.55883854       1.08455770       3.35280620       0.00068271      -0.00291029      -0.00575079
Cl      13.95307619       1.18603395       2.12244224      -0.00257587       0.00041777       0.00325885
Cl      14.67668543       3.16086622       4.10447669       0.00376269      -0.00457114       0.00523853
C       15.27894853       2.16197212       2.76322407      -0.00113209      -0.00134838       0.00152623
Cl      13.96771094       8.43514110      15.64456161       0.00750867       0.01104990       0.01714915
Cl      15.86675554       8.16225896      17.81801380       0.02117699       0.02723444       0.01016536
Cl      14.49707176      10.67954677      17.39472232       0.01506639       0.02032816      -0.00093696
Cl      16.50918150       9.82405153      15.52059350       0.00764924       0.00798012      -0.00449014
C       15.21074603       9.28029547      16.59789892       0.01124472       0.01577407       0.00669990
Cl      16.02278555      16.52880068       6.70240838       0.01307780      -0.00155365      -0.01262963
Cl      16.12609976      13.62069615       6.68369335       0.00191142      -0.00073391      -0.00990310
Cl      17.43546063      15.11842626       4.59595245      -0.00029680      -0.00840435      -0.01660818
Cl      14.53214548      15.05214231       4.72283323       0.00091073       0.00266354      -0.00615132
C       16.02719246      15.09028487       5.67529328       0.00409812      -0.00231595      -0.01165888
Cl       1.64318448       4.38267782       8.02171487      -0.00076014      -0.00379565       0.00670123
Cl      -0.37933028       5.57624749       6.32183601       0.00519106       0.00099540       0.00408161
Cl      -0.80646779       2.94649539       7.46360629       0.00123680      -0.00162739      -0.00462674
Cl       1.17414918       3.32034661       5.37179150       0.00679934       0.00331399       0.00273520
C        0.41361966       4.05720971       6.78885584       0.00312417       0.00005884       0.00219038
Cl      11.81075635       3.49271064      11.30802183       0.00026867       0.00563231      -0.00915453
Cl       9.99735377       2.40335963      13.28507822       0.01076201      -0.00680658      -0.00616378
Cl       8.94040517       3.70969502      10.91817641      -0.00114688      -0.00874079      -0.00105858
Cl      10.24936281       5.27868264      12.97338552      -0.00469995      -0.00583735      -0.00199193
C       10.25147143       3.71887951      12.12360628       0.00148580      -0.00405172      -0.00448307
Cl       3.70171323       9.76314255       0.49160701      -0.00451794      -0.00444213      -0.00740062
Cl       6.58134027      10.05756696       0.64938034      -0.00520226      -0.01201120       0.00279159
Cl       4.86793076      11.53334196       2.46796404      -0.00746676      -0.00302170      -0.00759858
Cl       4.95313585      12.24495163      -0.34219498       0.00543531      -0.01014826      -0.00869396
C        5.02501570      10.89898403       0.81694290      -0.00311236      -0.00716758      -0.00509083
Cl       1.99909467       5.06917629      14.14857672      -0.00840482       0.00310966      -0.00817940
Cl       0.98660779       4.80391650      16.85195070       0.00982272      -0.00791362      -0.00232908
Cl      -0.64393678       6.04602781      14.80411938      -0.00477570      -0.00355682       0.01334637
Cl       1.70229234       7.40904420      15.81930257       0.00009367      -0.00422597       0.00133491
C        1.00707932       5.83586631      15.40424143      -0.00076434      -0.00368566       0.00127089
Cl       7.45786979       9.91488854       9.17031263       0.00441149      -0.00293109      -0.00052741
Cl       8.69461992      10.12621414      11.77905613       0.00126187      -0.00616300       0.00089759
Cl      10.27363046       9.29214233       9.49878474       0.00629896       0.01029201      -0.00079636
Cl       8.25386074       7.51707088      10.58961989       0.01477259      -0.00329053      -0.00768077
C        8.66553421       9.21492707      10.25999976       0.00692188      -0.00040138      -0.00223463
Cl       3.90022371       2.13940506      14.22397457       0.00363950      -0.00323882       0.01852322
Cl       3.21747662      -0.66440084      14.16575626       0.00954464      -0.00571333       0.00272439
Cl       1.27485415       1.30189417      13.32975074       0.01153779      -0.00403565      -0.00032952
Cl       1.97774092       1.09303090      16.20209694      -0.00091519      -0.01394460       0.00262401
C        2.61630086       0.96283893      14.38669628       0.00565968      -0.00667927       0.00548166
Cl       5.75399998      15.52247763       8.96001642       0.01182504       0.00401676       0.01314855
Cl       5.86614795      17.35992449      11.20532080      -0.00004253       0.00690818       0.00102407
Cl       8.29984128      16.16948927      10.17463971       0.00872707      -0.00921084       0.04393141
Cl       6.37857210      14.53219947      11.60992589      -0.00815510      -0.00055939       0.01474163
C        6.58030952      15.89505302      10.48281219       0.00301859       0.00000978       0.01853290
Cl      10.81284025      10.45676454      17.07627685       0.00385009       0.00691774      -0.00350636
Cl      11.75218824      11.19899727      14.42941457      -0.00632232       0.00309002      -0.00723231
Cl       8.91539348      11.15460970      15.00947331      -0.00333691      -0.00347260       0.00048204
Cl      10.42162593       8.66702761      14.83988230       0.00299510       0.00050229       0.00223482
C       10.48419951      10.37981959      15.33617400      -0.00083649       0.00155711      -0.00172158
Cl       1.13625527       8.24347411      12.02828083      -0.00874300       0.00065070       0.00853255
Cl       0.67294811       7.84386793       9.19748938       0.00263171       0.00121516       0.00692630
Cl      -0.03087704       5.76512952      11.07249960      -0.01246756       0.00489506       0.00424089
Cl       2.76765262       6.35740398      10.56254996      -0.00865048      -0.00410455       0.01571284
C        1.13214044       7.05666638      10.71053242      -0.00681454       0.00080037       0.00885466
Cl      10.51409337      17.79224120       4.37040951      -0.00089553       0.01271796       0.00045162
Cl       8.75064990      17.02061451       2.19351019      -0.01025549       0.00872560       0.00993448
Cl       9.54981904      15.06412795       4.17433038      -0.00620639       0.01468503       0.01322630
Cl      11.47927851      16.06228684       2.25550602      -0.01240915       0.00487852       0.00211364
C       10.07768656      16.48596304       3.25466120      -0.00710750       0.01015461       0.00633627
Cl       2.79711314      16.84928830       2.81851405       0.01116264      -0.00164653       0.01146811
Cl       4.96382508      17.93232206       1.23797866       0.00501454      -0.00169045       0.00229049
Cl       3.36137990      15.67536272       0.18172104       0.00691690      -0.00732994       0.01191443
Cl       5.20635453      15.28706776       2.38835472       0.01182866       0.00116998       0.00569561
C        4.11228569      16.47810751       1.72828891       0.00769824      -0.00122213       0.00826332
