131
Lattice="12.065401153054236 0.0 0.0 0.0 12.065401153054236 0.0 0.0 0.0 12.065401153054236" Properties=species:S:1:pos:R:3:forces:R:3 energy=-132627.484375 stress="-0.0006410717032849789 -0.00014841757365502417 -9.540601240587421e-05 -0.00014841757365502417 0.0001890190615085885 0.00016152338503161445 -9.540601240587421e-05 0.00016152338503161445 -0.0006051312666386366" pbc="T T T"
Co       9.53701063      11.29653470       2.88906288      -0.00209576       0.00300249      -0.00537183
S       10.45031761       8.88864519       4.65139233      -0.01498437       0.02455205       0.00420278
S        7.25449773       9.73355438       2.00743590       0.00737469      -0.00602686      -0.02574348
S        8.95358830       7.61221245       3.78718406      -0.00537720       0.01020044       0.00494848
S        7.31320909       8.76148993       3.92507212      -0.00677402       0.01042421      -0.01827781
O        9.95315318       9.35657332       5.91855737      -0.01855546       0.03607494      -0.01511812
O        6.80799483       8.81417189       0.99991361       0.02419415      -0.01531512      -0.02178746
O       10.64796920      10.01333050       3.66495580       0.00213477       0.00123847      -0.01127785
O       11.60285361       8.02300464       4.64149406      -0.00884461       0.01503813       0.02485685
O        6.41256052      10.87470366       2.30315913      -0.00526500      -0.00882548      -0.04194981
O        8.70254826      10.09646517       1.73777691       0.00681674       0.00476384      -0.01358992
C        7.03213904       2.71197443      10.89069017      -0.00023539      -0.00408047       0.00339544
C        5.93260471       1.66349570      10.78818326       0.00038699      -0.00452763       0.00215167
C        8.40372356       2.19547935      10.46900680       0.00039431      -0.00304848       0.00449079
C        4.53681060       2.21708200      11.05249787       0.00026983      -0.00514638       0.00223941
C        9.52309030       3.19150008      10.74090584      -0.00064212      -0.00210100       0.00497086
C        3.45386993       1.16124291      10.87746582       0.00069737      -0.00594208       0.00476539
H        6.77319737       3.58183126      10.27646895      -0.00015076      -0.00380555       0.00372775
H        7.08039664       3.08285803      11.92136908      -0.00140277      -0.00464210       0.00350478
H        6.13729660       0.84661417      11.49041154       0.00057378      -0.00487709       0.00156298
H        5.95388528       1.21594238       9.78942403       0.00085292      -0.00369786       0.00182751
H        8.61251323       1.24953647      10.97918903       0.00091148      -0.00262704       0.00497822
H        8.37629449       1.95044592       9.40261372       0.00131712      -0.00322164       0.00454116
H        4.49502077       2.63174583      12.06544428       0.00081363      -0.00358368       0.00159717
H        4.34883221       3.05812166      10.37534709      -0.00051335      -0.00615969       0.00122789
H        9.36836296       4.11461571      10.18034170      -0.00215185      -0.00156596       0.00629216
H       10.50000743       2.79406993      10.46243703      -0.00038967      -0.00059952       0.00384277
H        9.56150503       3.46039941      11.79974546      -0.00025749      -0.00357290       0.00527249
H        3.45833121       0.76916160       9.85782135       0.00143151      -0.00896413       0.00598578
H        3.61850262       0.32034548      11.55358350       0.00046312      -0.00394668       0.00728963
H        2.45866576       1.56024943      11.07606536       0.00058733      -0.00540233       0.00320219
C        7.39852026       6.01367081       8.52990673       0.00091122       0.00506109       0.00115076
C        6.37829035       7.09930170       8.84690415       0.00031621       0.00385797       0.00305155
C        8.37723777       6.41129163       7.43174680      -0.00300034       0.00521958      -0.00231734
C        5.32361703       6.67621588       9.86322044       0.00247131       0.00269681       0.00465775
C        9.45195081       5.36426146       7.17511385      -0.00102302       0.00736785      -0.00244319
C        4.39560522       7.82071522      10.24766050       0.00259820       0.00210500       0.00677566
H        7.94857332       5.76745080       9.44546706       0.00413196       0.00704177      -0.00033692
H        6.87687470       5.09417115       8.23365017       0.00152166       0.00397503       0.00367307
H        5.88103059       7.41078517       7.92080165      -0.00194138       0.00336126       0.00416207
H        6.90385784       7.98432984       9.22072763      -0.00006217       0.00434089       0.00221790
H        7.81991516       6.59116642       6.50762268      -0.00582856       0.00176815      -0.00116423
H        8.84928378       7.36525140       7.68071249      -0.00491841       0.00691992      -0.00533485
H        4.74234529       5.84323415       9.45087883       0.00233047       0.00251070       0.00514044
H        5.81846667       6.29264732      10.76130159       0.00427200       0.00277878       0.00354484
H       10.08337455       5.21716185       8.05470930       0.00033143       0.01020179      -0.00301601
H       10.09967202       5.65759071       6.34698126      -0.00267167       0.00770196      -0.00362284
H        9.01004904       4.39548537       6.92787002       0.00093803       0.00606111      -0.00050305
H        4.94636223       8.59768362      10.78015272       0.00308943       0.00186050       0.00710024
H        3.94743327       8.27242451       9.35976601       0.00107286       0.00241984       0.00765069
H        3.58456656       7.48662614      10.89678371       0.00348867       0.00105473       0.00737731
C        9.65016921       1.05004125       4.21481572      -0.00037830       0.00035810       0.00489675
C       10.12245654       1.74139589       5.48822174       0.00514776      -0.00168723       0.00387734
C        9.18062058       1.98893957       3.11853304      -0.00722076       0.00207651       0.00933686
C       10.90404043       0.87391217       6.46178820       0.00291531      -0.00618899       0.00158975
C        8.67107851       1.12302789       1.98492899      -0.01251760       0.00300205       0.01142260
C       11.30210970       1.67037806       7.69677672       0.00623164      -0.01183257       0.00398600
H       10.52559549       0.44394704       3.81712693      -0.00232196       0.00197728      -0.00065158
H        8.83901944       0.34535101       4.48925183       0.00208689      -0.00110391       0.00741079
H        9.23269167       2.14163438       5.98758183       0.00750202       0.00124868       0.00565782
H       10.71845791       2.61717089       5.21198858       0.00820169      -0.00398499       0.00326955
H        8.40165199       2.66084527       3.48846693      -0.00532833       0.00091080       0.01506354
H       10.01653689       2.61679299       2.79219851      -0.00964975       0.00315429       0.00541049
H       10.30983623      -0.00052339       6.74129556       0.00010365      -0.00489241      -0.00077601
H       11.79606467       0.48182665       5.96254768       0.00135145      -0.00800047       0.00027874
H        9.46470470       0.39243195       1.62468661      -0.01033470       0.01007524       0.00193775
H        8.51121313       1.65306647       1.04454443      -0.02738820       0.00384796       0.01457146
H        7.73983198       0.60156612       2.22526185      -0.00596908      -0.00525306       0.01893163
H       11.91448297       2.53380207       7.42415619       0.00943680      -0.01320270       0.00718415
H       10.41778328       2.05411367       8.20844113       0.00781994      -0.01073483       0.00592937
H       11.86636886       1.06835620       8.40979030       0.00422329      -0.01672085       0.00140522
C        2.00789869       5.78550415       1.50430403      -0.00420284       0.00323240       0.00253636
C        1.76939785       7.20162294       2.01344703      -0.00510532       0.00249258       0.00422961
C        0.72285483       5.00101608       1.26548633      -0.00258052       0.00209923      -0.00141754
C        3.04643129       7.93302708       2.41401008      -0.00400281       0.00229760       0.00096279
C        0.97499499       3.60777990       0.70446656       0.00074720       0.00345129      -0.00318263
C        2.76981191       9.31548243       2.99070088      -0.00088546       0.00495541      -0.00441170
H        2.59428268       5.81345173       0.57777760      -0.00241368       0.00568346       0.00373572
H        2.62548624       5.24137740       2.23011148      -0.00508147       0.00276998       0.00267991
H        1.09150664       7.17189126       2.87159216      -0.00288692       0.00167648       0.00615951
H        1.24537832       7.78089095       1.24404483      -0.00733285       0.00256084       0.00599483
H        0.17144129       4.93291067       2.20918187      -0.00462617      -0.00052059      -0.00277063
H        0.07825842       5.56185498       0.58090142      -0.00125034       0.00226729      -0.00232282
H        3.58168735       7.33141067       3.15658496      -0.00401458       0.00417241       0.00239772
H        3.72106963       8.01626680       1.55588364      -0.00520767      -0.00200547      -0.00034708
H        1.45290529       3.66594065      -0.27568099       0.00276404       0.00599932      -0.00206161
H        0.05001535       3.04014254       0.58871037       0.00203386       0.00199366      -0.00556816
H        1.63883476       3.03262170       1.35486707       0.00008141       0.00373746      -0.00245598
H        2.25260179       9.94367274       2.26232471       0.00100984       0.00327849      -0.00700675
H        2.12666355       9.24564113       3.86994484      -0.00141183       0.00997318      -0.00439553
H        3.69394121       9.82340097       3.26961074       0.00013462       0.00381768      -0.00584188
C        1.58139863       5.04096143       5.99908063       0.00029421      -0.00010553      -0.00387788
C        2.23865633       3.68556262       5.76315057       0.00091541       0.00049603      -0.00564447
C        2.13114784       5.80087646       7.20087162       0.00016993      -0.00237954      -0.00241891
C        1.62962584       2.94238376       4.57912730       0.00157523       0.00085771      -0.00605747
C        1.44480161       7.14541480       7.40135803       0.00084975      -0.00254774       0.00053558
C        2.21539907       1.56054751       4.32089481       0.00021760      -0.00008485      -0.00372062
H        1.68879784       5.66103476       5.10166758       0.00049455       0.00141615      -0.00283143
H        0.50177561       4.90317184       6.13097393       0.00033885      -0.00069804      -0.00419343
H        2.14720264       3.06929286       6.66627118       0.00130922      -0.00029351      -0.00621021
H        3.31257093       3.82379755       5.60026292       0.00080085       0.00125428      -0.00546256
H        2.01450331       5.18546522       8.10053302      -0.00016262      -0.00415270      -0.00376692
H        3.20954288       5.94884093       7.07375920       0.00016269      -0.00252467      -0.00192285
H        0.55416009       2.84884265       4.75008720       0.00125194       0.00239619      -0.00774053
H        1.73307313       3.56133285       3.68267579       0.00376582      -0.00006168      -0.00635874
H        1.58025459       7.78809386       6.53096454       0.00112517      -0.00050366       0.00210875
H        1.83055428       7.66714483       8.27785696       0.00147198      -0.00486460       0.00161517
H        0.36824763       7.02101712       7.52929399       0.00084171      -0.00223175       0.00045362
H        3.25572375       1.61726706       3.99805279       0.00054982      -0.00167920      -0.00279725
H        2.18469803       0.94302061       5.22127917      -0.00127787       0.00142288      -0.00280695
H        1.66209528       1.03043847       3.54351969       0.00033019      -0.00065652      -0.00334762
C        6.11179690       3.62319622       5.17421285       0.00403602      -0.00277194      -0.00130171
C        5.73453501       3.88579391       3.72170635       0.00568834      -0.00365227      -0.00187042
C        5.88800309       2.18688078       5.62629026       0.00313964      -0.00255707      -0.00104654
C        6.05752085       5.30924295       3.28837145       0.00563048      -0.00409168      -0.00333351
C        6.23779719       1.97038002       7.09016021       0.00016069      -0.00249665      -0.00036883
C        5.89415905       5.55553522       1.79739070       0.00278310      -0.00576381      -0.00325313
H        7.16629226       3.88844123       5.32032658       0.00379494      -0.00282173       0.00011011
H        5.54967636       4.30466944       5.82471044       0.00320968      -0.00246993      -0.00240599
H        4.66612744       3.68555349       3.57298622       0.00590950      -0.00390193      -0.00266681
H        6.26105550       3.17471465       3.07284266       0.00622633      -0.00415303      -0.00083537
H        4.84364139       1.91137329       5.46179373       0.00345632      -0.00249682      -0.00314909
H        6.47632995       1.51202271       4.99472611       0.00441900      -0.00278094       0.00042453
H        5.43170057       6.00692296       3.85361260       0.00663078      -0.00342463      -0.00307803
H        7.08731762       5.53853938       3.58038122       0.00618795      -0.00399126      -0.00550376
H        7.27070809       2.26044140       7.29718726       0.00000994      -0.00345344       0.00159526
H        6.12033240       0.92681906       7.38503612      -0.00130891      -0.00236046      -0.00058573
H        5.59723490       2.57437375       7.73758985      -0.00060184      -0.00204004      -0.00164080
H        6.58141402       4.92764590       1.22567394       0.00220461      -0.00576393      -0.00381250
H        4.88165402       5.32160906       1.46437450       0.00232039      -0.00695716      -0.00106206
H        6.10208193       6.59400982       1.54040070       0.00178979      -0.00601184      -0.00493871
