141
Lattice="12.087806549773 0.0 0.0 0.0 12.087806549773 0.0 0.0 0.0 12.087806549773" Properties=species:S:1:pos:R:3:forces:R:3 energy=-124504.75 stress="0.000382526806788519 0.0005496685917023569 0.0006472615350503474 0.0005496685917023569 0.00019076383614446968 -0.00031031818070914596 0.0006472615350503474 -0.00031031818070914596 -0.00029342350899241865" pbc="T T T"
Co      10.70327979      10.43176402      -1.11346509       0.00109717      -0.04903710      -0.00239539
B        8.32459494      11.36637809      11.94344824       0.00605786       0.00469938       0.01436197
F        7.66003018      11.82248348      13.03500122       0.00934085      -0.02664065       0.03058660
F        9.42492194      10.43908653      12.39589675       0.01297164      -0.00980957      -0.00671142
F        7.52356596      10.62943981      11.09435206       0.00963250       0.01178285       0.00598791
F        9.02875933      12.34973392      11.25868767      -0.00261277       0.01978642       0.03841230
B       10.90897300      11.44882679       5.67763388       0.00228077       0.00726958       0.00812941
F       10.24041461      11.36602132       4.44929785       0.00122273      -0.00536504       0.01273870
F       10.09888845      12.08890972       6.62950245      -0.00328672       0.00247079       0.01006806
F       11.23189522      10.15401747       6.12016279       0.01910165       0.01310742       0.01905277
F       12.09640990      12.18694064       5.51945178      -0.00534594       0.02306408       0.00722840
O        3.42188455       5.53953192       7.89114804      -0.00681433       0.00431740      -0.00410114
C        4.33584586       3.43805670       7.31817878      -0.00672287       0.00442052      -0.00451227
C        5.43654687       4.49458361       7.22902425      -0.00610876       0.00399715      -0.00168449
C        3.08597282       4.30378825       7.24976225      -0.00629747       0.00492150      -0.00570686
C        4.84185630       5.62847311       8.05277389      -0.00700068       0.00321659      -0.00109512
H        4.37678839       2.69513741       6.52144682      -0.00611494       0.00513449      -0.00500439
H        4.38373216       2.91170087       8.27355335      -0.00833409       0.00359103      -0.00458121
H        6.40391762       4.15931693       7.60273731      -0.00673425       0.00329088      -0.00114159
H        5.56739983       4.81419675       6.19217356      -0.00523241       0.00547764      -0.00132078
H        2.80736261       4.50349990       6.20733796      -0.00421339       0.00614686      -0.00600988
H        2.22361392       3.86957193       7.75853537      -0.00748187       0.00507200      -0.00783023
H        5.08827966       5.51613921       9.11639869      -0.00912089       0.00089256      -0.00077099
H        5.17363891       6.61833664       7.73075175      -0.00597927       0.00343269       0.00147669
O        8.01501922       9.72052309       6.79733510      -0.01042831      -0.02184029       0.01372188
C        6.46597064       9.26701329       5.04361230       0.00031513       0.00665636      -0.00374007
C        5.79245482       9.94075875       6.24066826      -0.00236630       0.01147155      -0.00633532
C        7.91329968       9.04691535       5.53345498      -0.00212747      -0.00373544       0.00348878
C        6.97533785      10.68006008       6.84769440       0.00246066      -0.00727499       0.00997759
H        5.98888392       8.33473979       4.74703907      -0.00498259       0.00658938      -0.00202291
H        6.45655178       9.93579720       4.18218907       0.00700376       0.00121096      -0.00569019
H        4.95058702      10.57823932       5.97061348       0.01050539       0.02641630      -0.01369848
H        5.43806111       9.18921656       6.95018638      -0.02192260       0.01474324      -0.01380193
H        8.14024324       7.99437157       5.71028097      -0.00235254      -0.00367486      -0.01289167
H        8.65364130       9.45573602       4.84145849       0.00082994       0.01089430       0.01217645
H        7.23735675      11.56667308       6.25142063       0.02101386      -0.00803334       0.01681089
H        6.84956670      10.97971160       7.88903741      -0.00466782      -0.01237164       0.00941986
O        1.97480196       4.19676584       2.19484510      -0.00127669      -0.00595689       0.00957688
C        1.17186509       6.34513931       2.72724711      -0.00357497      -0.00322509      -0.00331692
C        1.75044516       6.38545719       1.31361485       0.00134383      -0.01054984      -0.00150257
C        1.86304905       5.11201733       3.28485967      -0.00586933      -0.00089097       0.00495048
C        1.79771654       4.90478035       0.95596141      -0.00013637      -0.01230878       0.00559724
H        1.37571194       7.24755615       3.30042657      -0.00505289      -0.00021622      -0.00719875
H        0.09023098       6.19005711       2.69617736      -0.00343475      -0.00265059      -0.00632008
H        1.15710418       6.97363278       0.61473639       0.00473355      -0.01249650      -0.00637642
H        2.75111146       6.82057681       1.33699763       0.00214407      -0.01266416      -0.00021321
H        2.86735993       5.37183694       3.65318735      -0.00748980       0.00064293       0.00762291
H        1.31917658       4.61937478       4.09330473      -0.00930583       0.00295755       0.00530243
H        0.85388624       4.57883232       0.50338599      -0.00008565      -0.01340882       0.00672266
H        2.61469581       4.63808887       0.28239981       0.00052840      -0.01683341       0.00789163
O        4.72089696       2.80261980       1.01304824       0.00273030       0.01276410       0.00266063
C        5.63154267       2.90181638       3.18405809       0.00127047       0.00712012       0.00602156
C        4.50916881       1.86510482       3.17741678       0.00711554       0.00001884      -0.00042129
C        5.27638399       3.72313539       1.95541759       0.00818485       0.00830553       0.00472617
C        4.36118390       1.58770342       1.68533246       0.00047806       0.01072587      -0.00169510
H        5.66087147       3.50914810       4.08801237       0.00517352      -0.00155550       0.00325769
H        6.60419914       2.42061342       3.06431225       0.00605658       0.00187297       0.00049975
H        4.74397431       0.96571711       3.74650638       0.00190929       0.00411987      -0.00517410
H        3.58681546       2.29943350       3.56919526       0.00202450       0.00524931       0.00083662
H        4.52450542       4.48279426       2.19730035       0.00544280       0.00958952       0.00978652
H        6.13607112       4.21477471       1.49748120       0.00427127       0.00833206       0.00800903
H        5.04445085       0.79251802       1.36259129       0.00562340       0.01062527      -0.00437672
H        3.34139858       1.31981211       1.39930602       0.00538725       0.01029656      -0.00281782
O        2.13358351       9.46798407       1.79337814      -0.02356668       0.00230089      -0.00161076
C        1.92465391      11.12482681       3.46286398      -0.00973500      -0.00234088       0.00340950
C        0.83801423      11.34660931       2.41148129      -0.01070473       0.00868911       0.00704804
C        2.91734592      10.26586447       2.69874958      -0.01534998      -0.00120947      -0.00553948
C        0.79384776       9.97687762       1.75824186      -0.02016017       0.01182026       0.00032687
H        2.35478472      12.05045997       3.83934472      -0.00306725      -0.00402600       0.00528662
H        1.50358149      10.58916057       4.31407696      -0.00739688      -0.00275606       0.00188005
H       -0.11608087      11.63868029       2.84466147      -0.00969398       0.00969342       0.01302177
H        1.15576928      12.10276757       1.68739058      -0.01190361       0.01116309       0.01123586
H        3.62010880      10.87455017       2.11402451      -0.01793170      -0.00170895      -0.00733003
H        3.50036786       9.59333357       3.33477520      -0.01308388      -0.00514767      -0.01021305
H        0.13263476       9.29995138       2.31279315      -0.02525473       0.01241344      -0.00554830
H        0.46034143       9.99340488       0.70171419      -0.01905362       0.02179373      -0.00103244
O        2.96355587      11.07567415       9.72718962      -0.00971308       0.00998843       0.01322073
C        4.43290722       9.20569548       9.87472669      -0.00176692       0.01210952      -0.00239243
C        4.31098982       9.88852085      11.23738809      -0.01151943      -0.00606867       0.00689733
C        3.84332470      10.26209859       8.93763012      -0.01510313       0.01111358       0.00475726
C        2.98148178      10.60206461      11.07418885      -0.00831980       0.00195906       0.01101416
H        5.45904129       8.94526335       9.61279835      -0.00952923       0.01474635      -0.00366421
H        3.82843381       8.29592723       9.85096747      -0.00643745       0.00629225      -0.00625115
H        4.30549898       9.19435197      12.07691781      -0.00716139      -0.00542004      -0.00368278
H        5.12372175      10.60318778      11.37647902      -0.00628653       0.00124162       0.01007531
H        4.62337514      10.91227056       8.53074961      -0.01407412       0.01677388       0.00404651
H        3.28263483       9.82778122       8.10648160      -0.01553312       0.01662922       0.00806800
H        2.15286706       9.90184006      11.23634631      -0.00818515      -0.00646031       0.00319726
H        2.84918676      11.46186055      11.73370171      -0.01244224      -0.00882080       0.01546523
O        8.31395745       2.36757198       9.06245801      -0.00177228       0.02330846      -0.00547868
C        6.35287920       2.64041848      10.30238530      -0.00263160      -0.00832587       0.00767875
C        7.52211829       2.95633815      11.23594057      -0.00119878       0.02077898      -0.00216943
C        7.03545939       1.76977563       9.26203437       0.00519800       0.00855681      -0.00363559
C        8.70844143       3.03469521      10.26894698       0.00078085       0.01440543      -0.00036138
H        5.52132838       2.15763968      10.81005646       0.01018794      -0.01005791       0.00420310
H        5.98426958       3.55923829       9.84076007      -0.01294572      -0.00429875       0.00315636
H        7.38573626       3.88561260      11.78760119      -0.00762351       0.01132959      -0.00703906
H        7.65902837       2.15132641      11.95586246       0.00894769       0.01461619       0.00589417
H        7.14492472       0.74281261       9.62895303       0.02220029       0.00611240       0.00028515
H        6.52962215       1.74080448       8.29386507       0.00322700       0.00056539       0.00452173
H        8.95354273       4.07026985      10.00667913      -0.00228601       0.02114952       0.00079294
H        9.60353002       2.55978381      10.67315381      -0.00174409       0.01730821      -0.00554705
O       12.41004123       8.98296626       9.03507848       0.02357578      -0.01117909       0.00059839
C       10.18673127       8.48892503       8.50958928       0.02527303      -0.01677534      -0.00828046
C       10.21510858       9.92796714       9.04046314       0.02361053      -0.01494423      -0.01163796
C       11.46385411       7.90910705       9.08405742       0.02302378      -0.01203506       0.00337470
C       11.71014689      10.18641098       9.22939466       0.02040190      -0.01520902       0.00826672
H        9.28860279       7.94341733       8.79575928       0.02452187      -0.01651164      -0.00019429
H       10.23979446       8.55683602       7.42534017       0.02026813      -0.02763786      -0.00432467
H        9.73675508      10.67276336       8.40632222       0.03639045      -0.01370358      -0.02251121
H        9.52953900       9.91734649       9.97832032      -0.00097680       0.00896153      -0.02746582
H       11.31591392       7.59309961      10.12964141       0.01417333      -0.00204245       0.00356460
H       11.88099144       7.08205361       8.51200019       0.03046969      -0.01663220       0.00804871
H       12.09842226      10.96500640       8.57539769       0.03114493      -0.00410384       0.02494639
H       12.07827911      10.66007232      10.28847583       0.00017172      -0.02482133       0.02544212
O        9.34975970       2.94639375       4.61584103      -0.00098026       0.01395446      -0.01537120
C        9.40555459       4.24482203       6.54470869       0.00513647      -0.00497121      -0.00431925
C       10.81116466       3.66834499       6.36242406       0.00211531      -0.00948668      -0.00944513
C        8.59617835       3.20043844       5.79406070       0.00244190       0.00193584      -0.01033032
C       10.74505695       3.05152493       4.95515054      -0.00031435       0.00681865      -0.01641327
H        9.10877878       4.33841463       7.58755243       0.00641591      -0.01647438      -0.00024104
H        9.31274992       5.21687217       6.05156892       0.00634329      -0.00152287       0.00756358
H       11.60115602       4.41498719       6.45102103       0.00557780      -0.01058111      -0.00406218
H       10.98887741       2.88706471       7.10346122       0.00258428      -0.01435959      -0.01833439
H        8.50420414       2.29224873       6.40454211       0.00060756      -0.00227243      -0.02010512
H        7.60469170       3.53485458       5.48507779       0.00134033       0.00815102      -0.00607140
H       11.20725814       3.69337566       4.19791508       0.00074700       0.01092324      -0.01058924
H       11.21193077       2.06627249       4.92075799      -0.00278610       0.00419289      -0.02491377
O        7.61362190       7.25488669       2.88710679      -0.01026422      -0.00994338      -0.00944453
C        8.75468981       7.13821377       0.79495784       0.00393295      -0.01286215      -0.00205731
C        7.31897440       7.63289718       0.60429881       0.00635397      -0.00842845      -0.01170760
C        8.75834956       6.66236438       2.25594672      -0.00379945      -0.00843635       0.00008559
C        7.03583651       8.19761107       1.98270646      -0.00404570      -0.00965159      -0.01277137
H        9.03903285       6.34844530       0.09973840       0.00366355      -0.01677787       0.00215520
H        9.44599308       7.97188078       0.66131883       0.00797707      -0.01616344      -0.00291870
H        7.21564378       8.37537237      -0.18437020       0.01374784      -0.00809009      -0.01147909
H        6.64299049       6.79757374       0.40139009       0.00594163      -0.00709197      -0.01780676
H        8.66069168       5.57749649       2.34793745      -0.00041015      -0.00772685       0.00373336
H        9.66642696       6.96697621       2.78619550      -0.00835836      -0.00216460       0.00433409
H        7.50497164       9.18373389       2.09970677      -0.00431177      -0.00902027      -0.00923824
H        5.97605755       8.28218304       2.22735310      -0.00484779      -0.00968911      -0.02070788
