150
Lattice="11.3186484715169 0.0 0.0 0.0 11.3186484715169 0.0 0.0 0.0 11.3186484715169" Properties=species:S:1:pos:R:3:forces:R:3 energy=-174938.65625 stress="0.0018818032694980502 -0.0003455913392826915 -0.001070151454769075 -0.0003455913392826915 0.0020991202909499407 0.0005043355049565434 -0.001070151454769075 0.0005043355049565434 0.002522614784538746" pbc="T T T"
Co       9.13468737      11.99703078      -0.15702121      -0.00713012       0.00870001       0.01728169
O       10.12796790       2.22079863       0.37811223      -0.00157857       0.00747637       0.01210010
O        8.75336472       3.09523967       2.60340176      -0.00346248       0.01654977       0.00361168
O        7.64293941       1.47390155       0.69330326      -0.00612825       0.00736004       0.01647681
O        8.16718566       4.08448599       0.20409103      -0.01122820      -0.00130963      -0.00622600
Cr       8.66526048       2.79818906       1.03171430      -0.00495335       0.00776273       0.00533009
O        5.58596099       0.43768650       8.91853733      -0.00036722      -0.00377458      -0.00361431
H        5.71601411       0.44406966       7.96029020      -0.00641355       0.00426020      -0.00350448
H        4.75714318      -0.06996931       9.08736113      -0.00116592      -0.00231105      -0.00301173
O        0.00187322       9.21107209       8.97579000      -0.01134618      -0.00313950       0.01877662
H       -0.68313748       8.62410707       8.57120370      -0.00915547      -0.00171426       0.01050408
H        0.55406949       8.63485462       9.56573712      -0.00631534      -0.00715055       0.00747369
O        3.56312523       5.36789665       3.69558557       0.00352842      -0.00656614       0.00007612
H        3.70015052       4.57883651       3.15477367       0.00411494      -0.00704132      -0.00005220
H        3.53059518       6.08813289       3.00638183       0.00456356      -0.00648294       0.00074962
O        1.03072328       1.15607999       2.51808308      -0.00986773       0.00198638      -0.00172919
H        0.38298383       0.46483400       2.71513568      -0.01178196       0.00643446      -0.00446410
H        1.56595868       1.30181141       3.31815180      -0.00871525      -0.00114825       0.00114930
O        8.70951069       1.23426845       9.26425665      -0.01155773       0.00632458       0.01546846
H        9.28216814       2.01407145       9.08493423      -0.00809279       0.00398897       0.01438855
H        8.90631259       0.55550307       8.57494298      -0.00712132       0.00277565       0.02039362
O        8.18841981      10.32410178       0.34457733      -0.01202310       0.00973988      -0.00948402
H        7.20207110      10.40773314       0.45922357      -0.01843187      -0.00176274      -0.02927136
H        8.38008148       9.38475642       0.22095610       0.00245813       0.01591852      -0.01359196
O        3.97059305       4.43558828       7.35285566       0.00640718      -0.00664040      -0.00356537
H        4.71597134       4.81507385       7.85479580       0.00620397      -0.00810954       0.00308901
H        4.33383686       3.61488161       6.97932647       0.00175389      -0.00347832       0.00095082
O        7.05066726       9.29922577       8.91854697      -0.00334179      -0.00818419      -0.01291996
H        6.65623705      10.15684094       9.15599562      -0.00220504      -0.00780181      -0.01116191
H        6.55910932       9.00597469       8.12136164      -0.00480689      -0.00711184      -0.01251839
O        9.44105915       7.85989757       7.64001449       0.00085595      -0.00178754       0.00150753
H        8.86607292       7.35598450       8.22860947       0.00068593      -0.00872634      -0.00426830
H        9.82559646       7.22366970       6.99136116       0.00486955       0.00443467      -0.00226491
O       10.04502258       5.83613268       1.94445772       0.01124902       0.01129529      -0.00496979
H       10.36127871       5.01079450       2.36031166       0.01192157       0.01212315      -0.00064559
H       10.19338059       5.75556859       0.98072849       0.01154608       0.00718535      -0.00383131
O        9.61477546       3.84737205       9.14502068      -0.00483634       0.00303154      -0.00092046
H        8.97782935       3.94066357       9.88282898      -0.00624358       0.00619441      -0.00234244
H        9.07271913       3.93886530       8.33657649      -0.00384592       0.00059259      -0.00256290
O       10.32464368       6.13302729      10.53280331       0.00568679      -0.00421609      -0.00086677
H       10.38893025       5.34883038       9.95356454       0.00000349      -0.00548510      -0.00099812
H        9.45158837       6.50920841      10.30705885       0.00768557       0.00129589      -0.00234586
O       10.63806355      -0.10267957       5.20586447      -0.00397679       0.00152645       0.01256475
H       10.68140702       0.88019690       5.32072025       0.00197482       0.00179105       0.00798223
H       10.31386260      -0.30017750       4.30162754       0.00219891      -0.00011419       0.01039223
O       11.44463813       3.78347873       3.25668216       0.00443858       0.00959888       0.00004372
H       11.51522893       2.90730437       2.83276256      -0.00043664       0.00827952       0.00218124
H       12.34895326       4.11662948       3.24805851       0.00664121       0.00473525      -0.00097729
O        2.19973448       6.13296185       8.64590476      -0.01638689       0.02055147       0.01729019
H        2.73823962       5.33205647       8.65251566       0.01718078      -0.02689659      -0.00595832
H        2.05395874       6.42537300       9.56354511       0.00555510      -0.01510318      -0.02498072
O        3.21824685       8.39106115       7.71449091      -0.00062615      -0.00596004       0.00444262
H        2.55438206       8.74160216       7.09424397      -0.00591021       0.00163861       0.01011335
H        2.88498044       7.49913873       8.00110888       0.00233898      -0.00319933      -0.00126419
O       -0.51801201      -0.06899502      10.50384804      -0.01632866      -0.00163613       0.01558143
H       -0.48575773      -0.90037708       9.94673419      -0.02385410      -0.00216308       0.01801862
H       -0.10911039       0.60364543       9.90697032      -0.01141430      -0.00466663       0.01381335
O        2.41652220       0.86310766       6.88571266      -0.00678516      -0.00007859       0.01300538
H        2.08204531      -0.06334151       6.79500694      -0.00881363       0.00113472       0.01494766
H        2.18606175       1.29724297       6.04125831      -0.00969031       0.00074334       0.01341411
O       10.16362614      10.34829342       2.67728227      -0.00579777       0.00687441       0.01121655
H       10.25423359       9.40939704       2.97511076      -0.00034822       0.00486842       0.00193392
H        9.26561405      10.43068058       2.32512702      -0.01947218       0.01179878       0.04472231
O        1.31745663       9.11016878       1.72396282       0.00697267       0.00896113      -0.00630441
H        0.93481207       8.55288398       2.43304988       0.00069435       0.01954028      -0.00078793
H        0.62588447       9.76963856       1.57364005       0.01268196       0.01114512      -0.01884276
O        5.57851862       2.73336945      10.49041648      -0.00746069      -0.00921163       0.01050466
H        5.43903684       2.00905571       9.84694208       0.00059210      -0.00664339       0.00600995
H        6.30265136       2.37655940      11.03780494      -0.00983333      -0.00778281       0.01449715
O       10.88502493       7.86603057       3.42960608       0.01196591       0.01185825      -0.00219640
H       10.81445044       7.46915861       4.32063091       0.01001571       0.00779943      -0.00345549
H       10.58294440       7.13757553       2.83153904       0.01287828       0.01457295      -0.00558297
O        1.73039022       4.87599066       5.65720405       0.00062677      -0.00166023      -0.00027199
H        2.31270921       5.23960050       4.95458460       0.00260741      -0.00512905       0.00094004
H        2.30892511       4.90260856       6.44032400       0.00072224      -0.00143617       0.00233342
O        3.71227576       4.42152947       0.68524008      -0.00700722      -0.00289166      -0.00404280
H        2.84963002       4.12431696       0.34545759      -0.00800071      -0.00149698      -0.00170648
H        4.35427588       3.87187628       0.20388126      -0.00851157      -0.00712059      -0.00308314
O        8.93935265      10.74416113       7.21394719      -0.00429195       0.00697795       0.01251616
H        9.57826704      10.85356007       6.46591212      -0.00300316       0.00459394       0.01289998
H        8.93453879       9.79979276       7.44759527      -0.01169871       0.00660956       0.01004327
O        3.71566189      10.15357642       2.67968772       0.02160854       0.00109863      -0.01938844
H        2.87991003       9.78196918       2.32894955       0.01709085       0.00483064      -0.01179396
H        4.14447791       9.41291700       3.12675629       0.02657638      -0.00110405      -0.02705188
O        2.51223453       2.40321563       4.56717857      -0.00619359      -0.00911580       0.00556944
H        3.44963321       2.33938871       4.83148309      -0.00627580      -0.01306550       0.00543012
H        2.18825203       3.23299387       4.97892472      -0.00184288      -0.00592867       0.00294310
O        7.69654921       3.63320315       7.16478547      -0.00335601       0.00372747      -0.00468384
H        7.51716405       2.69987512       7.31727786       0.00515687       0.00244319      -0.00790649
H        7.06966718       4.12150100       7.76521542      -0.00463255      -0.00252998       0.00081919
O        7.91072076       7.48598037       1.24668638       0.01854539       0.01130651      -0.01111192
H        7.16707563       7.68757090       1.85713208       0.01655823       0.00831944      -0.01272573
H        8.45190208       6.79878967       1.67426723       0.02005981       0.01344495      -0.00968061
O        0.46296752       1.77356680       8.57237193      -0.01768892      -0.01636112       0.02101189
H        0.80230437       2.45583594       9.18249881      -0.01262341      -0.01615205       0.01925586
H        1.24602654       1.45821708       8.06966815      -0.01982541      -0.02011210       0.02044511
O        6.50759877      11.11907478       6.09973378      -0.00013869      -0.00530905      -0.01755731
H        6.09956135      10.22859251       6.20461912      -0.00100516      -0.00475781      -0.01473391
H        7.40595181      11.01268386       6.50159850      -0.00378270      -0.00076696      -0.00823110
O        1.20203072       9.82370070       6.59315948      -0.00568986      -0.00228061       0.01922962
H        0.72746835       9.66563913       7.43894156      -0.00558101      -0.00024738       0.01881792
H        0.54205293      10.19095016       5.96971826      -0.00428287      -0.00126103       0.01679990
O        5.65318332       8.58547419       6.66930734      -0.00465128      -0.00330889      -0.01056910
H        5.86078228       7.78617209       6.14904185      -0.00488941      -0.00300200      -0.01332114
H        4.73546157       8.45174348       7.01836293      -0.00335589      -0.00330772      -0.00996793
O       10.48857358       6.25631578       5.69544859       0.00802746       0.01077825      -0.00628524
H        9.80239418       5.65248343       5.33366112       0.00519358       0.01347488      -0.00568331
H       11.31573175       5.74685435       5.78781115       0.00612139       0.00647554      -0.00534380
O        2.67209441       0.73326090       0.31297448      -0.00936368      -0.00174972      -0.00251418
H        2.16591001       0.74142725       1.15197399      -0.00874846      -0.00085482      -0.00270224
H        3.60398884       0.73779007       0.56663810      -0.00856669       0.00613987      -0.00219811
O        3.64662705       7.04757020       1.65730780       0.00687754      -0.00485680      -0.00125076
H        4.49494742       7.49541713       1.79551391       0.00889602      -0.00668766      -0.00879334
H        3.81225202       6.28614305       1.07051522       0.00065098      -0.00637389      -0.00177798
O        5.50069885      10.50371478       0.61623984       0.00632802      -0.01532493      -0.02916913
H        4.91849711      10.31413249       1.38883269       0.00973785      -0.00432288      -0.02328807
H        4.98770226      10.19736390      -0.15029697       0.00169197      -0.01915563      -0.02420346
O        6.99570551      -0.62002569       3.37314362       0.03204958       0.00025368      -0.00378888
H        6.70771276       0.08365593       2.78124764       0.03633520       0.01627171      -0.02276098
H        6.82474755      -0.31286710       4.28610719       0.01885901      -0.00085443      -0.02233078
O        5.90804334       8.23332445       2.94905509       0.01085567       0.00547469      -0.01002881
H        6.01850364       7.64176254       3.72769482       0.01032820       0.00329173      -0.01022731
H        6.30245051       9.10987741       3.16053244       0.02129446       0.00000090      -0.01486231
O        4.76212938       1.99280572       6.14217503      -0.00392514      -0.01186541       0.00308674
H        4.07203589       1.44740395       6.57638200      -0.00709181      -0.00692099       0.00558976
H        5.49048487       1.36991079       5.97984709      -0.00864381      -0.01460774      -0.00351229
O        6.19039840       4.89954190       8.93430729       0.00054686      -0.00882222       0.00651267
H        6.03241470       4.20369952       9.61332074       0.00189815      -0.00837663       0.00773927
H        6.67059481       5.63915425       9.36789962       0.00089791      -0.00878166       0.00355514
O        1.25853403       7.60618892      -0.61713131       0.00742697      -0.01028036      -0.00252563
H        1.44589374       8.03351117       0.24252874       0.01052218      -0.00727971       0.00205074
H        0.43703395       7.08170336      -0.51224558       0.00978879      -0.00810214       0.00159988
O        7.67510042       6.96145841       9.97597831       0.00270103      -0.00477786      -0.00557271
H        7.36533193       7.85681579       9.68741608       0.00076534      -0.00697264      -0.01017486
H        7.61548602       7.00132627      10.96268327       0.00934660       0.00367847      -0.00533405
O        3.64367658      10.16295694       9.77565622       0.00183433      -0.00816499      -0.00103141
H        2.90236955      10.58087281      10.23709121       0.00086458      -0.00802050       0.00214445
H        3.32180625       9.49477485       9.13355420       0.00254309      -0.00826912       0.00159013
O        1.42688262       3.09348049      -0.43931357      -0.01457149      -0.00121656       0.00372225
H        1.93200140       2.27786169      -0.23263966      -0.01353037      -0.00037238       0.00572344
H        0.55076808       2.92546226      -0.04900200      -0.01229505       0.00184831       0.01039513
O       10.66273761       2.48690279       5.81150288       0.00173858       0.00511813       0.00596024
H       11.03446092       3.11056055       5.16712087       0.00703923       0.00914060       0.01095985
H       11.11783924       2.60686412       6.65851957      -0.00762588       0.00459110       0.00940756
O        8.29538634       4.80546485       4.77911043       0.00412909       0.01536852       0.00404526
H        8.44042614       4.21814540       4.01078456       0.00235760       0.01613391       0.00310223
H        8.11623046       4.22192886       5.54536047       0.00553212       0.01252459       0.00272568
O        6.03050305       6.39735168       4.94289625       0.00207284       0.00492734      -0.01197429
H        6.80259955       5.79616234       4.84372358       0.00407404       0.00579180      -0.00345197
H        5.23705542       5.88424179       4.71020371       0.00340019       0.00126977      -0.01087397
