148
Lattice="17.59902377018833 0.0 0.0 0.0 17.59902377018833 0.0 0.0 0.0 17.59902377018833" Properties=species:S:1:pos:R:3:forces:R:3 energy=-1553024.5 stress="-0.0010165685089305043 0.00013943941303296015 -0.00038416270399466157 0.00013943941303296015 -0.0012735623167827725 -0.0001430962947779335 -0.00038416270399466157 -0.0001430962947779335 -0.0011914568021893501" pbc="T T T"
Co      17.93254621      16.43139112       0.93120366       0.00127405      -0.00256413       0.00017755
Cl       8.00810039      17.46952580       4.76121196      -0.01909546       0.02034681      -0.00369387
Cl       7.56449605      16.42773749       3.11902555      -0.00775925       0.01162168      -0.00066783
Cl       4.52256141      14.36005219      12.21240313       0.00980297      -0.03283093      -0.00404635
Cl       3.95467265      12.90761643      14.66462653      -0.00960111      -0.00712696       0.00463830
Cl       2.01048313      14.78162984      13.61738238       0.01030782      -0.00025789      -0.01626468
Cl       4.50136907      15.75625374      14.73243330       0.01396474      -0.01083365      -0.01545671
C        3.74633106      14.44030192      13.79041025       0.00499167      -0.01456619      -0.00822480
Cl      13.18307073      10.58386109       7.56657085      -0.00372602       0.00036082       0.00790671
Cl      14.73990021      13.02260775       7.32232227      -0.00431696      -0.00006267       0.00856345
Cl      12.73887586      12.78680936       9.40225161       0.00013708      -0.00371532       0.01187408
Cl      11.92136938      13.01272807       6.62762468      -0.00440612       0.00246510       0.01549244
C       13.13943492      12.35009034       7.73350513      -0.00278321      -0.00001554       0.01091352
Cl      16.33475785      13.26268993      14.50981908      -0.00390057       0.01549220      -0.01189613
Cl      13.80456967      12.58765500      13.25313369      -0.00887063       0.01059236       0.00320157
Cl      15.47375246      10.49370057      14.36465149      -0.00361640       0.01575327       0.00439064
Cl      16.31647575      11.90453962      11.96817987      -0.01529340       0.00434770      -0.00479144
C       15.47586718      12.05292198      13.51413519      -0.00760033       0.01218270      -0.00169202
Cl       9.92418362       4.53196313       9.36223525       0.00927109       0.00024590      -0.00322112
Cl       9.69666757       6.66368121       7.41740600      -0.00761056      -0.00605917      -0.00622889
Cl       7.49273281       6.11320009       9.21589226       0.00269523      -0.01134290       0.00407103
Cl       8.13495025       4.24139575       7.10249684       0.00087057      -0.01206526       0.00566697
C        8.80995797       5.38160510       8.27952488       0.00157281      -0.00754307       0.00022748
Cl       3.49389811      11.32610331       9.07121096      -0.01409155       0.00007284       0.00466166
Cl       2.32592403      11.66102780      11.69956640      -0.02064401      -0.01514442       0.00234461
Cl       0.63237085      11.09506756       9.41976368      -0.01499584       0.00886515      -0.00674555
Cl       1.89850418      13.68023697       9.66589910      -0.00567249       0.00159061       0.01627383
C        2.08818267      11.93836729       9.97371943      -0.01439964      -0.00083068       0.00417706
Cl      10.71235073       2.59419419       4.83795108       0.00663897       0.00329254       0.00033110
Cl      10.51978773       4.54023089       2.69823914       0.02348602      -0.00409356      -0.01013683
Cl       8.12303027       3.24915273       3.70547143       0.01217225       0.01470629      -0.00328036
Cl      10.03758183       1.73286437       2.14528560       0.00299131      -0.00289312       0.00174627
C        9.85091012       3.03167925       3.34472902       0.01115993       0.00336189      -0.00223421
Cl      11.65825017      15.91294379      13.34130143      -0.01850379       0.00340708       0.00497639
Cl      11.44681825      14.38562304      15.80160298       0.00078569       0.00272205       0.00514385
Cl      11.43419576      17.29084283      15.89044896      -0.01684055       0.00231546       0.00635046
Cl      13.87132775      15.87591786      15.21272342      -0.01115102       0.01825079      -0.00412779
C       12.10185283      15.86510154      15.05819315      -0.01164546       0.00672172       0.00267968
Cl      14.13864816       8.24728649       4.48221365      -0.00102444       0.01223025      -0.00984102
Cl      14.19870035       9.30380787       1.78585675      -0.00432435       0.01868345      -0.00700939
Cl      16.32509159       9.95906963       3.63850460      -0.00719655       0.02051639      -0.00500905
Cl      13.67509032      11.07216905       4.01136651      -0.00947160       0.01116332      -0.00259301
C       14.58275372       9.64271243       3.47661078      -0.00492259       0.01556903      -0.00554810
Cl       7.39943284       7.51293112      -0.54688130       0.00292087       0.00288850      -0.01577157
Cl       5.28544815       5.53522241      -0.74763030      -0.00534454       0.01318958      -0.01003891
Cl       5.17058741       7.57471703       1.32016239       0.01156211       0.01168805      -0.00914046
Cl       7.14031193       5.45348850       1.47315854       0.00176758       0.00294331      -0.01720515
C        6.24758182       6.51805919       0.37291166       0.00308071       0.00805461      -0.01271804
Cl      15.09066998      -0.36989251       3.56231133       0.02861585      -0.01980750       0.00511795
Cl      16.60934994       0.53144878       1.09229627      -0.00127482      -0.00218876       0.00462854
Cl      15.90492576       2.40012102       3.38738864      -0.00552485      -0.01270279       0.01075472
Cl      13.79134329       1.40417901       1.68028347      -0.00947687      -0.03555307       0.01719171
C       15.23298308       1.03106817       2.56247290       0.00809786      -0.03121401       0.01486599
Cl      11.62940130       5.89223772      15.99205366      -0.00499082       0.00058153       0.00905978
Cl      12.66045640       8.52944307      16.57500113       0.00705969       0.00171182      -0.00958920
Cl      14.25107183       6.66712127      15.03603606      -0.00553289      -0.01220917      -0.00109112
Cl      13.82018943       6.17915753      17.85880789      -0.00562462       0.00360584       0.00553057
C       13.09141930       6.80897654      16.36890716      -0.00182701      -0.00123994       0.00038552
Cl       7.17481635       8.75720372       5.75583093       0.01282834       0.00021526      -0.00431728
Cl       7.91641493       9.65954033       3.10123718       0.01461256       0.00254574      -0.00254470
Cl       7.90895973      11.51860592       5.33184239       0.02921121      -0.00407818       0.00193334
Cl       5.40231329      10.51655762       4.26549074       0.02255195       0.01476540       0.00359496
C        7.10219629      10.10246735       4.61145443       0.01982239       0.00378918      -0.00045203
Cl       8.58279909       2.85274774      12.41248859      -0.00569092       0.00868949      -0.00379102
Cl      11.16724393       4.08549871      12.88446189      -0.00115263      -0.01137148       0.00154668
Cl       9.18086461       3.95079586      15.01968484      -0.00219361      -0.00410223      -0.00204509
Cl       8.78179636       5.72782083      12.77169333       0.01003207       0.00355160       0.00347321
C        9.43049483       4.15568263      13.26640476      -0.00104129      -0.00330773      -0.00156477
Cl       8.37774865      11.57809180      -0.15673087       0.00483400       0.00333470       0.00649765
Cl       6.85573666      13.93859853      -0.87541261       0.00251578      -0.00212467      -0.00415385
Cl       7.34854883      13.33943289       1.91383093      -0.01051346       0.00283349      -0.00158465
Cl       5.52572986      11.68293147       0.38464871       0.00295520      -0.00384758      -0.00882905
C        7.02836039      12.62933181       0.31273981      -0.00053241       0.00021943      -0.00139939
Cl       1.90521236       3.80678760      16.93364791       0.01037799      -0.00783551       0.00148559
Cl       1.77049809       6.59101934      17.75184452       0.00866500      -0.01006922       0.00675184
Cl      -0.25778354       4.71877700      18.63856944       0.01316437      -0.01280642       0.00739825
Cl      -0.15470542       5.54277269      15.86232599       0.00657129      -0.00791252       0.00947821
C        0.81251051       5.17391657      17.29087092       0.00911283      -0.00840944       0.00609457
Cl       8.93068939       9.00107708      10.98977444      -0.03504560       0.00777429      -0.00946537
Cl       9.15780363      11.88415513      11.00062568       0.01107053       0.00192586       0.01470685
Cl       7.04659728      10.60659082       9.47251726      -0.00505269       0.04807667       0.00371329
Cl       9.80128396      10.38953899       8.60110868      -0.01122147       0.00635096       0.00519103
C        8.73268688      10.46651882      10.01257722      -0.01269232       0.01862212       0.00219174
Cl       0.20723868       6.38798631      12.34730993      -0.00316900       0.00094056      -0.00388616
Cl      -0.08505604       3.56728016      11.74389214      -0.00816154       0.00092292       0.00289385
Cl       2.30686982       4.52171978      13.07215315      -0.00324282       0.00112420      -0.00609127
Cl       1.83228139       5.18308857      10.28702572      -0.01037544      -0.00585635      -0.00548849
C        1.06876972       4.90835018      11.87067839      -0.00647926      -0.00012160      -0.00358588
Cl       0.08996113      13.01049564       5.58105539       0.00296238       0.02091177      -0.00345799
Cl       1.86401800      11.97798523       3.52160604       0.00338675       0.01619543       0.00028977
Cl       2.96366882      13.23250456       5.89113346       0.00324953       0.00641598       0.00563101
Cl       1.59113042      14.84599031       3.91351699       0.01779539       0.01534873       0.00473201
C        1.62906801      13.25622434       4.74031090       0.00696354       0.01560076       0.00040708
Cl      10.20654902      14.12066160       3.94431610      -0.00672373      -0.00354014       0.00315671
Cl      13.01744639      14.38330116       3.32244516      -0.00838226      -0.00643070      -0.00188783
Cl      11.56453571      16.64088767       4.41951856      -0.00311562      -0.00646290       0.00213689
Cl      11.05655771      15.75900462       1.70335166      -0.00969893      -0.00327514       0.00332236
C       11.45509780      15.23291160       3.35061316      -0.00659612      -0.00464521       0.00261515
Cl       3.86943488      17.72605577      -0.30521958      -0.00433259       0.03001294      -0.01944093
Cl       4.43259552      15.72529299       1.69661645       0.00080666       0.02273737      -0.01395611
Cl       2.04312984      15.38957134       0.03651157       0.00252223       0.00841719      -0.00381953
Cl       2.00249614      17.46258576       1.90158350      -0.00153917       0.00323156       0.00381714
C        3.23387282      16.58168357       0.82105601      -0.00322396      -0.00690639       0.01514396
Cl       4.83631968       2.05658799       6.20992612      -0.01742625      -0.00902674       0.01846835
Cl       2.22082714       1.38550162       5.14742507      -0.00152199      -0.00695099      -0.01724272
Cl       4.38909398      -0.51169074       4.94380455      -0.00667605      -0.01592076       0.03023799
Cl       4.45174627       1.91233131       3.34782519       0.02902060      -0.03052346       0.01399471
C        3.98317451       1.20936333       4.92097229       0.00111126      -0.01750649       0.01166749
Cl      13.73659331       5.23275678       6.98239016      -0.01488277      -0.01592651      -0.00413671
Cl      16.17564544       5.20224261       8.55523672      -0.01319411      -0.00281653      -0.00795902
Cl      15.35319035       2.82513147       7.11737797      -0.00653476      -0.00936615       0.00045225
Cl      13.85951877       3.70273498       9.44633199      -0.00611311      -0.00832327      -0.00095618
C       14.78474548       4.24729075       8.02918016      -0.01044323      -0.00867414      -0.00308768
Cl       2.49335805       0.73593472      12.43490623       0.00594419       0.00718267       0.00341725
Cl       2.73709326      -0.49170677       9.81878735       0.00496244       0.00035098       0.00700313
Cl       5.12150067       0.23323737      11.31941117       0.00304991      -0.01209851       0.00974984
Cl       3.43518524       2.28675518      10.17281514       0.02001635      -0.00349039       0.00404206
C        3.44863126       0.69122419      10.93716768       0.00980779      -0.00206643       0.00606756
Cl      -1.28913972       9.08648045       7.49743602      -0.00446069      -0.00503699      -0.00146331
Cl      -0.06462022       7.15797653       5.71437654      -0.00067916       0.00551352      -0.00923619
Cl       1.11790272       7.68794151       8.29864332      -0.00110660      -0.00105654      -0.00814566
Cl       1.23313181       9.70002245       6.21057120      -0.00723243       0.00610051      -0.00067773
C        0.24966298       8.40610390       6.92790811      -0.00321800       0.00175134      -0.00493016
Cl       4.31939897       5.42576482       7.39895024       0.00858762       0.00498940      -0.00965929
Cl       5.53286501       5.45331315       4.75617726       0.00283700      -0.00159217      -0.01117626
Cl       3.68083337       7.53149358       5.52065556       0.00126761      -0.00213438      -0.01409331
Cl       2.71465158       4.84956520       5.04936852       0.00497052      -0.00477540      -0.00402160
C        4.06226009       5.81691372       5.67964339       0.00418848      -0.00050272      -0.00971907
Cl      16.44264478      15.20441268      -0.03525064       0.00585820      -0.00088769      -0.01227635
Cl      16.18375383      13.57933163       2.48777769       0.01396447       0.02320980      -0.00477815
Cl      17.41874792      12.35268614       0.19514381      -0.00352681       0.00368601      -0.00203030
Cl      14.57689777      12.91494685       0.16734288      -0.00472718       0.00296886       0.00335185
C       16.12591584      13.35962773       0.77355708       0.01738012       0.00880158      -0.00666834
Cl       3.48478796       7.90689003      14.28779859      -0.00969154       0.01261487      -0.00616398
Cl       5.48881750       6.70010240      12.56828346       0.01118398       0.00945258       0.02190024
Cl       5.43706404       9.57611282      12.94215717      -0.00565514       0.01092345       0.00107974
Cl       3.35208786       8.26981623      11.40944285       0.01537549      -0.00933011      -0.00921437
C        4.43555787       8.11473593      12.80239698       0.00297266       0.00604306       0.00139552
Cl       6.44202426      17.05182466       7.99057787       0.01765859      -0.01214218       0.01471363
Cl       7.94616309      14.97447766       9.33517558       0.01288974      -0.01561745      -0.00131726
Cl       6.99003773      14.55158146       6.62502743       0.01096021       0.00283703      -0.00814804
Cl       5.12092758      14.60263828       8.82333017       0.01420796      -0.02124220      -0.00681612
C        6.63072156      15.30112646       8.19882541       0.01374882      -0.01404476      -0.00070328
Cl      12.15650336       8.25510767      12.61174091      -0.01808202      -0.01550527      -0.00276804
Cl      12.32567919       7.55118598       9.80494420      -0.00602588       0.00500993      -0.00521725
Cl      14.46594596       6.81123467      11.60719992      -0.02082300      -0.02259517       0.00017248
Cl      14.07304889       9.58450895      10.90342846       0.00277519      -0.01626587       0.02033812
C       13.25135037       8.05326940      11.23194733      -0.01071995      -0.01214597       0.00303239
