135
Lattice="12.49806781698936 0.0 0.0 0.0 12.49806781698936 0.0 0.0 0.0 12.49806781698936" Properties=species:S:1:pos:R:3:forces:R:3 energy=-128112.21875 stress="9.204424713971093e-05 0.00026485657144803554 0.00014339301560539752 0.00026485657144803554 -0.00015102903125807643 -0.00020517054508673027 0.00014339301560539752 -0.00020517054508673027 -0.0007157122017815709" pbc="T T T"
Co      13.05884197      12.03901771       2.37717615      -0.00398791       0.00069097      -0.01114354
P        3.59113033      11.56158330       1.08345927      -0.00683533      -0.00274922      -0.00691965
F        2.18920780      12.55132583       1.57275359       0.01098889       0.00554075       0.00186786
F        2.85656240      10.32078853       1.79488165      -0.01389843      -0.00471735      -0.01373738
F        2.77307666      11.24958770      -0.25817727      -0.01004577       0.00487781      -0.00936031
F        4.16079023      12.89701534       0.41536134       0.00513433      -0.00341040      -0.00595880
F        4.25871091      11.95721532       2.47007957       0.00078547      -0.01903266      -0.00908369
F        4.83576772      10.68474416       0.62970331      -0.01808494      -0.01141191      -0.01995176
P        1.14669181      10.88535450       5.35823388      -0.00040823      -0.02150972       0.04229207
F        2.71999380      10.88470796       5.55079728       0.00024182       0.00910524       0.01046355
F        1.00290828      12.09314601       6.39293235       0.01882333      -0.00527883       0.01055825
F       -0.45032836      10.99272755       5.06297041       0.01438117       0.02268265       0.01496497
F        1.24916620       9.78027737       4.19538637       0.00606952       0.02207261       0.00720334
F        0.90929674       9.77946268       6.47441329       0.00412359       0.01541811       0.02301824
F        1.38342641      12.09114538       4.11727633       0.01322464       0.03096686      -0.02091271
C        4.64031804       1.57717813       9.65767256      -0.00237876      -0.00252861       0.00325647
C        5.99194942       1.79984911       8.99460459      -0.00415467      -0.00348586      -0.00118300
C        3.99266978       2.87251889      10.13157285      -0.00283568      -0.00239581       0.00200791
C        6.66651538       0.51177459       8.54200142      -0.00570616      -0.00491518       0.00031034
C        2.61956438       2.64645887      10.74699888      -0.00383240      -0.00057212       0.00073490
C        8.00984340       0.76184662       7.87237743      -0.00632501      -0.00754486      -0.00113811
H        3.97061393       1.07663663       8.94960736      -0.00385135      -0.00222407       0.00251317
H        4.74938833       0.89626626      10.50693155      -0.00421735      -0.00289333       0.00168157
H        6.65618188       2.33022661       9.68875174       0.00028390      -0.00160164      -0.00510719
H        5.86797964       2.46205838       8.12951337      -0.00694293      -0.00517614      -0.00146323
H        4.64963898       3.35788568      10.86115728      -0.00272608      -0.00393879       0.00402695
H        3.91199220       3.56562300       9.28644414      -0.00086647      -0.00195739       0.00302649
H        6.79682262      -0.14282693       9.40995964      -0.00639647      -0.00632475      -0.00169873
H        5.99966294      -0.02017259       7.85727995      -0.00816375      -0.00306343      -0.00021392
H        1.96143974       2.15079806      10.03146918      -0.00491607       0.00333153      -0.00203654
H        2.14832347       3.58797136      11.03321870      -0.00168997      -0.00014713       0.00289050
H        2.68687278       2.00964540      11.63081211      -0.00713537      -0.00322045      -0.00165388
H        7.89421342       1.37467563       6.97518119      -0.00591333      -0.00715509      -0.00010628
H        8.68373356       1.29825467       8.54322219      -0.00457684      -0.00970042       0.00000951
H        8.50507906      -0.16448299       7.57768461      -0.00871914      -0.00872001      -0.00138948
C        3.35409048       7.03954000       3.01611463       0.00590834      -0.00210327      -0.00437874
C        4.32343102       7.07726610       4.19155919      -0.00010729      -0.00490168       0.00029458
C        3.28866594       5.68392522       2.32581029       0.00078398      -0.00302073      -0.00234486
C        4.26518397       8.40121878       4.93818110       0.00364327      -0.00208098      -0.00368766
C        2.40031342       5.68749150       1.08964639       0.00328541       0.00062549      -0.00420710
C        5.27367643       8.51459662       6.07084310      -0.00087109      -0.00325393      -0.00034016
H        2.35580337       7.32144533       3.36830853       0.00432253       0.00177064      -0.00583577
H        3.63405838       7.81382788       2.29382936       0.00803299      -0.00454307      -0.00347894
H        5.34230653       6.89626611       3.82884787       0.00255716      -0.00754527       0.00190859
H        4.09777936       6.25509296       4.88262789      -0.00322661      -0.00271887      -0.00096643
H        4.29934857       5.36843305       2.04709269       0.00096449      -0.00642134      -0.00162499
H        2.92552823       4.93424552       3.03744895      -0.00224461      -0.00079761      -0.00321922
H        4.40482616       9.22364900       4.23163928       0.00074031      -0.00412884      -0.00108588
H        3.26000415       8.53448184       5.33789035      -0.00054032      -0.00093509      -0.00301260
H        1.38319223       5.99566034       1.33934782       0.00395678       0.00479972      -0.00477428
H        2.34758626       4.70057072       0.62823625      -0.00072486       0.00078553      -0.00391459
H        2.77466301       6.39102292       0.34326918       0.00638657      -0.00109252      -0.00340852
H        5.10682489       7.74558792       6.82863014      -0.00138754      -0.00234812      -0.00132029
H        6.29922640       8.40328309       5.70848766       0.00170091      -0.00270719       0.00048324
H        5.19550861       9.48517610       6.56216805      -0.00168572      -0.00240377      -0.00201494
C        9.12851788      10.17930882       1.58307424       0.00127211      -0.00249296      -0.00104603
C        8.59361467       8.75584819       1.67287906      -0.00292385       0.00061733      -0.00112069
C       10.50441575      10.28995118       2.23570024       0.00182369      -0.00342026      -0.00274518
C        7.22633976       8.53231208       1.04290527      -0.00064769       0.00640476      -0.00604998
C       11.14608707      11.66768747       2.11385721      -0.00383858      -0.00275174      -0.00386046
C        6.84714707       7.05700249       1.02873214      -0.00646216       0.00886235      -0.00518780
H        9.17978005      10.48801879       0.53334273       0.00272464      -0.00031048       0.00074053
H        8.43038165      10.87079511       2.06744214       0.00191599      -0.00020529       0.00131108
H        8.54955095       8.46262044       2.72773719      -0.00613761      -0.00203689      -0.00291064
H        9.32172844       8.07825226       1.20775960      -0.00398180      -0.00193830      -0.00135823
H       10.40989193      10.05374324       3.30038038       0.00892118      -0.00295733      -0.00278354
H       11.17373521       9.52873609       1.82770930       0.00570908       0.00087017      -0.00794794
H        6.47142936       9.11009019       1.58033552      -0.00141656       0.00896332      -0.00718078
H        7.22123640       8.92451625       0.02120905       0.00226405       0.00528069      -0.00554568
H       11.80094876      11.79131409       1.17319780       0.00115062       0.00062008       0.00056887
H       11.70639876      11.88437512       3.13493870      -0.01655944       0.02280217      -0.00490969
H       10.41275954      12.47764890       2.08066093      -0.00337730      -0.00459073      -0.02019607
H        7.55515521       6.47503802       0.43190591      -0.00792259       0.00504332      -0.00376028
H        6.85789426       6.64010810       2.03811216      -0.01012582       0.00834371      -0.00608057
H        5.84980576       6.89888055       0.61702072      -0.00489789       0.00930955      -0.00662109
C       11.48497298       1.87825435       7.43207485      -0.00354555       0.00386524       0.00724860
C       11.31358611       2.67932986       8.71420395      -0.00492795       0.00205880       0.00857861
C       11.19861324       2.69078330       6.17573535      -0.00325251       0.00380045       0.00635247
C       11.42297202       1.83699735       9.97905215      -0.00215906       0.00038743       0.00721664
C       11.26271760       1.84958070       4.90919313       0.00426992       0.00443229       0.00678799
C       11.27012149       2.66467388      11.24732330       0.00067116      -0.00219083       0.00919899
H       12.49697594       1.47105503       7.37916596      -0.00225163       0.00504245       0.00827164
H       10.82210129       1.00741608       7.45129151      -0.00034618       0.00185555       0.00665806
H       10.33930494       3.18296725       8.70411395      -0.00717258      -0.00034225       0.01118482
H       12.06272377       3.48000924       8.74711266      -0.00743154       0.00399232       0.00958720
H       10.21131942       3.15837214       6.26371937      -0.00706062      -0.00274199       0.00264607
H       11.91652839       3.51504412       6.11043971      -0.00706899       0.00785941       0.00963524
H       10.65858271       1.05317740       9.95377197      -0.00140235       0.00023662       0.00729109
H       12.38347160       1.31502573       9.98705219      -0.00132951       0.00071156       0.00478517
H       12.24547003       1.39088654       4.80058071       0.00598428       0.00749134       0.01184359
H       11.06088619       2.44362329       4.01681201       0.00515966       0.00410844       0.00570695
H       10.53167047       1.03863159       4.94734364       0.01038286      -0.00183298       0.00426032
H       12.03373791       3.44328944      11.29836376       0.00141506      -0.00317247       0.00977042
H       10.29589621       3.15920440      11.27449552       0.00066380      -0.00166299       0.01197696
H       11.36203612       2.05414655      12.14669041       0.00031340      -0.00430216       0.00776650
C        8.70298113       7.03413868       9.78510589       0.00198442      -0.00250489       0.00087685
C       10.10575303       7.15689015      10.36713252       0.00202000      -0.00308520       0.00020349
C        8.42568106       5.67456153       9.15600810      -0.00002253      -0.00177860       0.00059134
C       10.44392794       8.56472124      10.84296573       0.00425836      -0.00431830       0.00019391
C        7.06226993       5.60046582       8.48480127      -0.00134194      -0.00158463       0.00326683
C       11.84191916       8.67334681      11.43570803       0.00508469      -0.00490994      -0.00025558
H        7.96076783       7.23729667      10.56543927       0.00276890      -0.00235759       0.00159878
H        8.56061471       7.80902397       9.02584918       0.00170466      -0.00169870       0.00115183
H       10.83808369       6.84728627       9.61203515       0.00179303      -0.00369378      -0.00114715
H       10.22102095       6.45224051      11.20002273       0.00241833      -0.00354184      -0.00054893
H        9.20794903       5.46179073       8.41926540      -0.00145823      -0.00153165      -0.00152391
H        8.51002701       4.89355954       9.91951026       0.00164408      -0.00210372      -0.00013787
H       10.34637894       9.25920776      10.00288864       0.00145268      -0.00363326       0.00085115
H        9.70018894       8.87771308      11.58030624       0.00396389      -0.00456151       0.00091824
H        6.25772936       5.76981465       9.20304069       0.00019217      -0.00292055       0.00541402
H        6.89304006       4.62774745       8.02265143      -0.00184133      -0.00076365       0.00217076
H        6.97264067       6.36192739       7.70809273      -0.00349550      -0.00011340       0.00470158
H       11.96213026       7.99990812      12.28754655       0.00252782      -0.00177720       0.00288415
H       12.60105620       8.40498055      10.69879123       0.00598840      -0.00572409      -0.00081803
H       12.06546797       9.68459162      11.77771267       0.00454482      -0.00498852      -0.00133397
C       10.86490993       7.24277471       5.26636032       0.00261289      -0.00030628      -0.00176883
C       10.49647447       6.30198180       4.12612262       0.00156707      -0.00031338      -0.00118800
C        9.65318225       7.95582787       5.85677198       0.00466353       0.00105719      -0.00001764
C       11.68358139       5.57059939       3.51213374       0.00179559       0.00212713      -0.00341153
C       10.02071296       8.94484600       6.95307392       0.00713794       0.00545919      -0.00468859
C       11.30127323       4.77414513       2.27099424       0.00160915       0.00346994      -0.00443047
H       11.37570335       6.68285911       6.05872042       0.00322796      -0.00044039      -0.00251576
H       11.58574214       7.98701073       4.91225566       0.00227851      -0.00073054      -0.00228527
H        9.99309719       6.87627852       3.34208407      -0.00002445      -0.00044873      -0.00097871
H        9.76206110       5.56669781       4.47827666       0.00278209      -0.00163740      -0.00237131
H        9.12295622       8.48099443       5.05499769       0.00152135      -0.00061446      -0.00019008
H        8.94814531       7.20998540       6.24240907       0.00467175       0.00321618       0.00347444
H       12.46038914       6.29868702       3.25894448       0.00024262       0.00379342      -0.00304715
H       12.12695944       4.90477066       4.25818175       0.00380935       0.00152546      -0.00488093
H       10.55854238       8.44440089       7.75985408       0.00407526       0.00745241      -0.00217515
H        9.13305947       9.41238237       7.38349860       0.00857808       0.00978316      -0.00715187
H       10.67141984       9.73029981       6.57149654       0.01125929      -0.00041157      -0.00795989
H       10.47250149       4.09456071       2.48154880       0.00355561       0.00154439      -0.00457300
H       10.97673569       5.43823517       1.46635691      -0.00095005       0.00455646      -0.00240949
H       12.13300395       4.17671603       1.89497462       0.00205444       0.00650917      -0.00741217
