147
Lattice="11.957581415320382 0.0 0.0 0.0 11.957581415320382 0.0 0.0 0.0 11.957581415320382" Properties=species:S:1:pos:R:3:forces:R:3 energy=-142541.8125 stress="-0.0009533577249385417 -0.0005527870962396264 -0.0011392188025638461 -0.0005527870962396264 0.000996853457763791 -0.0013665492879226804 -0.0011392188025638461 -0.0013665492879226804 -0.0011249255621805787" pbc="T T T"
Co      12.53107033      11.62803622       2.00616543      -0.00167283      -0.00285479      -0.00461976
P        2.88066439      10.92301590       1.48672740       0.00171341       0.00702602      -0.00904280
O        3.65523169      10.51671211       0.28247707      -0.00080833      -0.00091323      -0.00536513
O        3.80722626      10.93225383       2.78143413       0.00468373       0.02972538      -0.01135156
O        2.18570924      12.32623887       1.38723802      -0.00971323       0.00116426      -0.02147216
O        1.63298175      10.06479135       1.86297386       0.00785458       0.00215310       0.00466019
H        4.90609436      11.02273130      -0.42275345      -0.00062256      -0.00241276      -0.00460631
H        4.35619574      11.75120911       2.78459240      -0.00215108       0.03504283      -0.01902013
P        5.73999154      10.92538575       9.49763668       0.02095574       0.00093696       0.00501609
O        6.09337306       9.38997269       9.52705422       0.01973945       0.00745270      -0.00798024
O        7.13324668      11.52075468       8.99464649       0.01282515       0.00856507       0.00711352
O        4.57542800      11.33945167       8.71094182       0.00487733       0.00630629      -0.01313320
O        5.74924089      11.32525788      11.02588246       0.00513916      -0.00133361      -0.00423092
H        5.60116045       8.77511493       8.89281135       0.01236257       0.00173023      -0.00393283
H        7.08242720      12.40572598       8.56805919       0.01102576       0.01130886       0.00458469
O        4.83921573       6.12842248       0.31013832      -0.00291288      -0.00405890      -0.00600970
C        4.73816687       7.54297342       0.47946872       0.00042199      -0.00390384      -0.00391325
H        3.74656671       7.92118803       0.22521615       0.00268799      -0.00068334      -0.00833859
H        5.47264895       8.08491388      -0.12205073       0.00529698      -0.00519535       0.00138196
H        4.93065605       7.74232785       1.52980856      -0.00456563      -0.00653519      -0.00249612
H        4.69524637       5.92368011      -0.61618969       0.00328298      -0.00174715      -0.00718876
O        3.88078683       3.66114160      10.98915352      -0.00183614      -0.00381356      -0.00611973
C        4.21981382       2.27571210      10.89156656      -0.00493458      -0.00417206      -0.00591487
H        3.41377844       1.63766388      11.26018862      -0.00468415      -0.00255671      -0.00271246
H        5.12619694       2.05385186      11.46008822      -0.00326860      -0.00600402      -0.01032522
H        4.39885267       2.03587899       9.84501729      -0.00981630      -0.00504648      -0.00737831
H        3.79534366       3.85958759      11.94064506       0.00194980      -0.00251795      -0.00495198
O        4.97847437       7.83465607       7.85930639       0.00719072      -0.00168389       0.00381181
C        4.16801445       8.68634774       7.03315944      -0.00120924      -0.00726211       0.00793323
H        3.30240036       9.06145232       7.57450927      -0.00430912      -0.01590586       0.01010391
H        3.85941620       8.15066586       6.13977297       0.00107218      -0.00850871       0.00735322
H        4.78888947       9.53272893       6.75030820      -0.01012129      -0.00049025       0.00807833
H        4.47942833       7.05986047       8.17388664       0.01297545      -0.00398868       0.00636132
O        8.26787485       7.34017217      11.34328896      -0.00092106       0.00030833       0.00823984
C        7.60260622       6.69657245      10.27775941       0.00102147       0.00250435       0.00631595
H        7.87292433       5.64180462      10.31928511      -0.00791961       0.00022107       0.01198283
H        7.90177199       7.10442499       9.31007422       0.01055874      -0.00392266       0.00669861
H        6.51586942       6.77622981      10.35432715       0.00109756       0.01167592      -0.00161302
H        8.18740138       8.31466413      11.25719054       0.00183323       0.00164284       0.00832432
O        7.79920405       7.12279825       2.08538414       0.00382198      -0.00075364       0.00962341
C        8.02157642       8.50596944       2.30111252       0.00368597      -0.00067770       0.01063944
H        7.19582309       9.11583071       1.91521039       0.00511098      -0.00042027       0.00848889
H        8.95225704       8.84146972       1.83739529       0.00511044      -0.00050247       0.01348701
H        8.10218787       8.67194409       3.37586284       0.00080905      -0.00120423       0.01087835
H        7.80933979       6.99858208       1.11990582       0.00378502       0.00012721       0.00921670
O        8.00045549       4.29387563       6.44855623      -0.00555003      -0.00573696       0.01121764
C        7.30951028       5.31850217       7.18051961      -0.00757406      -0.00421605       0.00747694
H        7.74067777       6.29863478       6.97387711      -0.01180999      -0.00378126       0.00127201
H        7.37390165       5.12837881       8.24922144      -0.00479932       0.00170802       0.00829038
H        6.25965244       5.33636914       6.89654201      -0.00817546      -0.01005658       0.00946856
H        8.85920256       4.69898130       6.15881227      -0.00419512      -0.00637525       0.01314118
O        4.06756589       5.25361895       8.78919239       0.00026417       0.00200398       0.00059474
C        3.15592054       4.60116003       7.91385641      -0.00211513       0.00850998      -0.00179100
H        2.11723412       4.76877313       8.21636644      -0.00151923       0.01214115      -0.00190890
H        3.33748878       3.52271202       7.88369752      -0.00662872       0.00765753      -0.00421452
H        3.30159142       5.00967299       6.91431045       0.00025745       0.01022030      -0.00067991
H        4.03425168       4.75265840       9.63245257      -0.00008772      -0.00177206      -0.00167280
O        9.04057829       9.20772914       8.35537397      -0.00464362      -0.00726165      -0.00086313
C        9.23688065       9.88244104       7.11452419      -0.01058982       0.00426541       0.00554770
H        9.38408137      10.95299050       7.26200239      -0.00127849       0.00152558       0.01531480
H        8.40010768       9.72266838       6.43016255      -0.01761010       0.01747666       0.01066564
H       10.13543173       9.47108761       6.66138075      -0.01722214       0.00186346      -0.00654794
H        8.27077587       9.57943964       8.80997434      -0.00942582      -0.01576465       0.00389948
O        4.86813565       6.25370156       5.01746808      -0.00143875      -0.00628418       0.00367841
C        5.80764160       7.26151255       4.61896411      -0.00356591      -0.00501488       0.00167555
H        6.48133577       6.88751702       3.84858042      -0.00453126      -0.00364771       0.00029397
H        6.37217694       7.61156994       5.48698466      -0.00242521      -0.00395689       0.00043699
H        5.25296025       8.10602390       4.20609921      -0.00596565      -0.00596136       0.00296741
H        5.30021774       5.37717855       4.87051625       0.00036982      -0.00607215       0.00650996
O        3.75316908       3.69511437       1.82282587       0.00449222      -0.00360966      -0.00320546
C        2.52437600       3.37671528       2.46491814       0.00439535      -0.00874521      -0.00532904
H        1.67605890       3.82347791       1.92783075       0.00459951      -0.00864580      -0.00515379
H        2.50258273       3.75952678       3.48658562       0.00280878      -0.01197737      -0.00417751
H        2.44006933       2.29102226       2.47746877       0.00592150      -0.00879267      -0.00964293
H        3.90381081       4.64899432       2.00500241       0.00161732      -0.00345016      -0.00006366
O        0.61011970      10.52536779       5.98048192      -0.00432670      -0.02301031      -0.02136755
C        1.80715599      10.86963624       5.28022544       0.00244667      -0.00627808      -0.00085840
H        2.31095237       9.98786921       4.88046219       0.01394117       0.00329614      -0.00973123
H        2.49595724      11.42838505       5.91875153      -0.00871512      -0.01233166       0.01762050
H        1.52170590      11.49225149       4.42388893       0.01031803       0.00624432       0.00541964
H        0.80032864       9.76148514       6.56195149      -0.00411114      -0.02192825      -0.01739532
O       10.07509874       5.78447859       5.76528588      -0.00451854      -0.01223119       0.01074791
C        9.65329381       6.72925779       4.77170612      -0.00605609      -0.01650158       0.00723089
H       10.46754287       7.39239887       4.47428672      -0.00568187      -0.01964673       0.00131573
H        8.83150833       7.34941543       5.13942400      -0.00365940      -0.01303108       0.00668438
H        9.30472200       6.18140984       3.90010282      -0.00973640      -0.02013806       0.01105344
H       10.29256487       6.28755626       6.57543419      -0.00447989      -0.00850260       0.00863516
O       10.60119431       7.10873539       8.14260295      -0.00357726      -0.00007448      -0.00010729
C       10.71183504       6.11882288       9.16912439      -0.00095949       0.00727056       0.00643841
H       10.49980591       6.54653959      10.14818271      -0.00021692       0.01344544       0.00389442
H       11.72990309       5.73095335       9.15174714      -0.00049478       0.00820738       0.00793530
H       10.01754592       5.29564859       8.97910976      -0.00034484       0.00539368       0.01271564
H        9.93520230       7.79790843       8.38687882      -0.00501490       0.00119479      -0.00330681
O        6.06223430       3.87653074       4.63064212      -0.00398713      -0.00633082       0.00956493
C        5.37205960       2.88027899       5.38528535      -0.00700898      -0.00863419       0.00350520
H        5.24399511       3.18584660       6.42679088      -0.00488500      -0.01667494       0.00628278
H        5.90301102       1.92645434       5.35995269      -0.01089785      -0.01049858      -0.00448459
H        4.39640668       2.73575373       4.92785525      -0.00819337      -0.00098680       0.00337581
H        6.91202287       4.02342592       5.09684536      -0.00390887      -0.00912025       0.01061095
O        1.02109639       8.09517897       7.26715796      -0.01508045       0.00808050      -0.00812137
C        1.12300814       7.24236025       6.13027003      -0.01085076       0.00633156      -0.00688770
H        0.59517175       7.66396472       5.26976444      -0.00880355       0.00490052      -0.00911805
H        0.71885420       6.24918383       6.33593778      -0.01062195       0.00628918      -0.00657725
H        2.17463924       7.13520744       5.87201265      -0.00965184       0.00806398      -0.00324799
H        0.18207622       7.86476156       7.71043190      -0.01588188       0.00655639      -0.00854116
O        5.16197091       1.30036187       2.63733852       0.00229698       0.02656704      -0.01313081
C        6.54978355       1.27102459       2.33274502       0.00305897       0.01290121      -0.00873851
H        6.72797919       0.85418014       1.33598822       0.00139653       0.02437721      -0.01387942
H        7.03652345       0.63173311       3.07016905      -0.00754277      -0.00382529      -0.01605561
H        6.97766928       2.27264397       2.40322373       0.01610377       0.00649935       0.00637881
H        4.77024620       2.11144243       2.26995441       0.01156689       0.03569600      -0.00405404
O        8.34136572      10.01159029      11.40590248       0.00054729      -0.00102878       0.00937731
C        9.59917065      10.66674864      11.34816175      -0.00509202       0.00536985       0.00245551
H       10.35613958       9.92387855      11.59436449       0.00069669       0.00829902      -0.00468169
H        9.65498013      11.47146406      12.08700830      -0.00353307       0.00345370       0.00492370
H        9.79709369      11.07369727      10.35271801      -0.01355017       0.01007655       0.00249863
H        7.60899910      10.63755798      11.31690805      -0.00505857      -0.00301079       0.00934146
O       11.35421752       8.26971135       1.16357393       0.01309311       0.02119648      -0.02603244
C       11.21914738       6.86188359       1.18437749       0.00933316       0.02191025      -0.00955242
H       11.88919381       6.37229347       0.46563980       0.01377192       0.01160422       0.00125721
H       10.18988437       6.63798378       0.90986982       0.01091114       0.02059014      -0.01455659
H       11.40872583       6.43740371       2.17625406       0.00099447       0.03375319      -0.00291929
H       12.25354022       8.53975630       1.39901836       0.01009059       0.02191938      -0.01506147
O       11.84228669       1.46780521       1.98874291      -0.00392199      -0.00405766      -0.00989527
C       10.70196769       1.97197638       1.27483761      -0.00966470      -0.00467366      -0.00106782
H       10.79147727       1.76623498       0.20786947      -0.01791351      -0.00442814      -0.00179383
H       10.61448543       3.04405230       1.45295935      -0.00863180      -0.00471096      -0.00028136
H        9.82864236       1.46620768       1.67601982      -0.00628977      -0.00502601       0.00555896
H       12.64098979       1.93959358       1.70652097      -0.00518471      -0.00848761      -0.02018496
O       10.70664119       9.93455280       4.12195684       0.00402658      -0.02208918      -0.01218033
C       10.63886669      10.92104775       3.14740518       0.00852378      -0.00574625       0.00436658
H       10.90809288      11.91743541       3.51228048       0.03052533      -0.01563832       0.01748890
H        9.62495127      10.97055208       2.73223371       0.00530592       0.01865998       0.01492627
H       11.21801374      10.59474739       2.20676373      -0.00321845      -0.00070813      -0.00552944
H       11.40521771      10.16734237       4.77826965       0.00666059      -0.03266899      -0.01023262
O        3.35526418       6.10841034       2.90543771       0.00504252      -0.00954717      -0.00001698
C        2.26737283       6.99569582       2.78456988       0.01153979      -0.00203007      -0.00425459
H        2.01140804       7.07131220       1.72776687       0.01465768      -0.00109615      -0.00484389
H        2.50867766       8.00191631       3.13535022       0.01781894      -0.00336918      -0.00445892
H        1.38427672       6.63489960       3.32661204       0.00774011       0.00484440      -0.00601652
H        3.81686022       6.22551555       3.76815812       0.00338438      -0.01114577       0.00107320
O        7.26639835       2.13183379       8.23663076       0.00609931       0.00398411       0.00513637
C        7.45904000       2.75048499       9.50318636       0.00495242       0.00087823       0.00714110
H        6.70686686       3.52088841       9.69288079       0.00266069      -0.00174364       0.00925190
H        8.45847169       3.18721881       9.58660257       0.00367025       0.00395474       0.00697462
H        7.35247078       1.97617447      10.26167283       0.00821608      -0.00087491       0.00530416
H        7.58949052       2.72717565       7.53903595       0.00487660       0.00494562       0.00690030
