147
Lattice="12.92824022192249 0.0 0.0 0.0 12.92824022192249 0.0 0.0 0.0 12.92824022192249" Properties=species:S:1:pos:R:3:forces:R:3 energy=-92408.984375 stress="0.0010505968239158392 -0.0003026763297384605 0.0002178825598093681 -0.0003026763297384605 0.0002461062395013869 -0.0002824998227879405 0.0002178825598093681 -0.0002824998227879405 0.00036726469988934696" pbc="T T T"
Co      12.83983317      13.95704420       0.34065411      -0.00511737       0.01712835      -0.00329137
O        1.74175807      13.77303181       0.53245177      -0.00688457       0.01132494       0.01405860
N        3.18198456      11.90742430       1.07578653      -0.01404488       0.00491309       0.00672308
C        2.44570607      12.78310725       0.82363071      -0.00865376       0.00504988       0.01066655
O       -0.47908170      12.94695388       1.86211088      -0.02219456       0.02189144       0.00183392
N        0.75878498      13.19830623       3.92648595      -0.02784228       0.00319267       0.02048254
C        0.18709123      13.08970129       2.90935403      -0.04124600       0.00943624      -0.01723593
C        1.38064185       5.04173646       7.50351225       0.00243455      -0.00481969      -0.00233284
C        1.75597105       4.30875387       6.22231516       0.00134817      -0.00507689      -0.00272013
C        2.00591273       4.44549285       8.75930024       0.00425747      -0.00377136      -0.00257562
C        1.10240779       4.90189139       4.97909551      -0.00040591      -0.00570935      -0.00242789
C        1.61305302       5.18456960      10.03246887       0.00498042      -0.00338903      -0.00242940
C        1.47095830       4.15478228       3.70496968      -0.00152551      -0.00620726      -0.00281614
H        1.67400174       6.09584570       7.41891534       0.00169414      -0.00459391      -0.00305155
H        0.28861556       5.04180270       7.60974514       0.00251636      -0.00543517      -0.00094240
H        1.47300880       3.25369708       6.30572940       0.00190015      -0.00525808      -0.00191711
H        2.84557896       4.32082484       6.10000052       0.00128534      -0.00460428      -0.00383623
H        1.71388356       3.39282097       8.83701969       0.00517896      -0.00404629      -0.00163938
H        3.09570431       4.44651282       8.65438542       0.00423390      -0.00301144      -0.00353105
H        0.01488274       4.89165696       5.11072893      -0.00023985      -0.00608149      -0.00088175
H        1.38606080       5.95738530       4.89220842      -0.00084539      -0.00552142      -0.00270567
H        1.92194602       6.23170743       9.99043678       0.00438290      -0.00318640      -0.00312616
H        2.06870605       4.73840525      10.91798140       0.00612574      -0.00271957      -0.00261313
H        0.52969971       5.17300585      10.17487515       0.00508094      -0.00406094      -0.00138899
H        2.54613494       4.20469358       3.51999473      -0.00139043      -0.00751411      -0.00272796
H        1.19866756       3.09940028       3.77203511      -0.00286643      -0.00588393      -0.00250302
H        0.96658209       4.57776322       2.83548780      -0.00082633      -0.00724704      -0.00385161
C        9.65417835      11.93063881      10.00478390       0.00169892       0.00167078       0.00576496
C        8.41103333      11.32417973       9.36570340       0.00250139       0.00231671       0.00315382
C       10.84692558      10.98282407      10.02174352       0.00238568       0.00228155       0.00559056
C        7.23673309      12.29275555       9.28862562       0.00204467       0.00203127       0.00378291
C       12.08376264      11.56294658      10.69603720       0.00143832       0.00152332       0.00882168
C        5.98962616      11.66041847       8.68837839       0.00258911       0.00284933       0.00140351
H        9.92765240      12.84526158       9.46383764       0.00182824       0.00280848       0.00760354
H        9.41460264      12.23737265      11.02991366       0.00045469      -0.00012776       0.00610018
H        8.11073224      10.43558561       9.93411991       0.00220893       0.00099415       0.00117119
H        8.65630426      10.97113317       8.35682609       0.00373712       0.00438169       0.00273898
H       10.55560316      10.05399143      10.52349654       0.00220788       0.00102338       0.00320196
H       11.08701694      10.70538962       8.98966893       0.00397877       0.00451574       0.00525707
H        7.01136168      12.66518383      10.29339572       0.00090118       0.00023188       0.00425625
H        7.53058763      13.16612919       8.69631462       0.00230839       0.00326264       0.00566624
H       12.39790700      12.48550737      10.20322181       0.00240015       0.00226820       0.01066357
H       12.92770372      10.87282461      10.65457824       0.00132483       0.00126690       0.00872471
H       11.90377430      11.79386648      11.75110075      -0.00040007      -0.00029563       0.00900036
H        6.18453048      11.28411040       7.68147806       0.00348742       0.00460855       0.00087839
H        5.65329697      10.81674290       9.29452518       0.00183922       0.00176932      -0.00039628
H        5.16448247      12.37048659       8.62153135       0.00259221       0.00305849       0.00192907
C       11.11843034       7.96510685       7.51236276      -0.00025105       0.00120288      -0.00203347
C       11.99060891       8.68193586       6.48877460       0.00008696       0.00219697      -0.00113709
C       11.83704139       7.71293537       8.83282481      -0.00069124      -0.00102808      -0.00213487
C       11.27810443       9.00923137       5.18085905       0.00020868       0.00306390      -0.00108404
C       10.96616517       7.01821961       9.86998226      -0.00150648      -0.00211723      -0.00341949
C       12.16089897       9.77323225       4.20250378       0.00008976       0.00382262      -0.00068912
H       10.21551541       8.55882336       7.70066905      -0.00009948       0.00136320      -0.00136356
H       10.77130277       7.01098955       7.09790978      -0.00063653       0.00185180      -0.00341635
H       12.87742132       8.07182200       6.27750733       0.00029308       0.00252339      -0.00137480
H       12.36687425       9.61236544       6.92847250      -0.00020786       0.00205606      -0.00025232
H       12.73258214       7.11562627       8.64589251      -0.00088426      -0.00134289      -0.00271224
H       12.19206320       8.66626205       9.23432095      -0.00034630      -0.00168523      -0.00061406
H       10.92170403       8.07967270       4.72220856       0.00038473       0.00321022      -0.00169455
H       10.38125358       9.59737608       5.40417430       0.00008786       0.00281367      -0.00081977
H       10.05839901       7.59232216      10.07026013      -0.00120300      -0.00173390      -0.00273085
H       11.49319917       6.89366702      10.81757937      -0.00180247      -0.00400546      -0.00336568
H       10.65673015       6.02797969       9.52591655      -0.00209472      -0.00138295      -0.00506338
H       12.51937046      10.71064860       4.62935342      -0.00040573       0.00407356      -0.00053941
H       13.04034436       9.18677073       3.92614186       0.00036362       0.00416906      -0.00082724
H       11.63073662      10.02368510       3.28312361      -0.00000523       0.00397531      -0.00059442
C        2.53209168      10.49659048       6.52812659       0.00048279       0.00326359       0.00026655
C        3.42314303       9.35163243       6.99203214      -0.00240031       0.00081730       0.00002760
C        1.82541587      11.20054619       7.68090988       0.00054234       0.00391550      -0.00000334
C        4.20542425       8.68436564       5.86735284      -0.00314416       0.00015336      -0.00022608
C        0.91747710      12.33187117       7.22186710       0.00209436       0.00503734      -0.00048181
C        5.17199077       7.61958121       6.36933073      -0.00736567      -0.00412124      -0.00104517
H        3.12860547      11.22782587       5.97246708       0.00276113       0.00245374       0.00148675
H        1.78925500      10.12552519       5.81516042       0.00040466       0.00527158      -0.00081447
H        2.81308906       8.59775502       7.50587329      -0.00473042       0.00167644      -0.00132585
H        4.12871059       9.72617345       7.74150978      -0.00208709      -0.00162186       0.00108466
H        1.24803852      10.46377902       8.25161788      -0.00084482       0.00436965      -0.00061116
H        2.57989587      11.58833345       8.37417760       0.00053960       0.00279772       0.00070873
H        3.50528380       8.24388020       5.15006703      -0.00385687       0.00385116      -0.00191787
H        4.75819726       9.45085321       5.31470544       0.00014164      -0.00065947       0.00179875
H        1.45718967      13.04691503       6.60112356       0.00329335       0.00472434       0.00010629
H        0.48329162      12.86369547       8.07028310       0.00200309       0.00544756      -0.00066905
H        0.10011307      11.96007076       6.60196556       0.00223248       0.00638440      -0.00153543
H        5.90882982       8.05337477       7.04921302      -0.00684319      -0.00800693       0.00096814
H        4.64423277       6.83556186       6.91729727      -0.01079150      -0.00360285      -0.00346389
H        5.71488509       7.14445932       5.55102919      -0.00773127      -0.00423953      -0.00131090
C        8.68508678       2.58414290      12.27806774       0.01055531      -0.00548345       0.01316856
C       10.14792285       3.00544536      12.36890552       0.00896795       0.00091797       0.00854188
C        7.75693294       3.79575609      12.19202290       0.00708394      -0.00874853       0.01334032
C       11.18075580       1.88082381      12.22794447       0.00886211       0.00452527      -0.00786592
C        6.28181522       3.43426250      12.08093580       0.00871712      -0.01230595       0.00733858
C       12.55328314       2.42176785      11.86216284       0.00591357       0.00539306      -0.02027857
H        8.54132080       1.96133257      11.38714174       0.01166965      -0.00736263       0.01420590
H        8.40446580       1.96319143      13.13574086       0.01570997      -0.00621350       0.01446015
H       10.32730567       3.56886896      13.28816400       0.01191472      -0.00824022       0.01391456
H       10.34616713       3.70488267      11.54756119       0.00108198       0.01038322       0.01456535
H        7.91480829       4.43318270      13.06797036       0.00360040      -0.01008563       0.01500806
H        8.04936747       4.39972099      11.32573618       0.00893613      -0.00687133       0.01530471
H       11.18458471       1.30599134      13.23196398       0.01029731       0.00000591      -0.00825217
H       10.84853895       1.14784688      11.49261299       0.00234345       0.00525901      -0.00556448
H        6.08725143       2.83937211      11.18619589       0.01457018      -0.01262978       0.00613543
H        5.65984168       4.32915201      12.02377930       0.00729680      -0.01353103       0.00444692
H        5.94919284       2.85266789      12.94234887       0.00641669      -0.01332556       0.00577971
H       12.64451922       2.58841738      10.78535484       0.00522425      -0.01892008      -0.02458987
H       12.82092643       3.33044070      12.40491157       0.00038673       0.01956013      -0.04056430
H       13.41738728       1.64078901      11.92682242       0.01334763       0.01694820       0.00122169
C        9.78123464       7.60268635       0.93352331      -0.00282633       0.00257647      -0.00217002
C        9.22188208       9.01495757       1.06782842      -0.00445440       0.00212020      -0.00314488
C       11.29587231       7.53816089       1.09961396      -0.00255290       0.00446007      -0.00323988
C        7.71161488       9.10220187       0.87357134      -0.00458258       0.00015703      -0.00385274
C       11.85895091       6.13077911       0.96168378      -0.00135075       0.00463948      -0.00128154
C        7.17144186      10.52244051       0.98487908      -0.00657770      -0.00047505      -0.00499867
H        9.30652250       6.95051162       1.67685496      -0.00157367       0.00268129      -0.00124758
H        9.50651807       7.19357541      -0.04640985      -0.00301445       0.00132459      -0.00165012
H        9.71888729       9.66872217       0.34029132      -0.00496361       0.00228256      -0.00342309
H        9.48316317       9.41441190       2.05463308      -0.00521768       0.00304952      -0.00323460
H       11.76440918       8.19590392       0.35990248      -0.00379670       0.00363635      -0.00487766
H       11.56889551       7.94631507       2.07627358      -0.00210173       0.00642816      -0.00412172
H        7.45289710       8.68588374      -0.10605817      -0.00347351      -0.00092562      -0.00375259
H        7.21740615       8.46283734       1.61245617      -0.00419152      -0.00009976      -0.00371453
H       11.44624470       5.46512969       1.72392042       0.00025477       0.00558411       0.00047252
H       12.94495056       6.11812624       1.06632543      -0.00111967       0.00575456      -0.00274781
H       11.61288000       5.70318978      -0.01268530      -0.00239234       0.00253731      -0.00012779
H        7.39213173      10.94771068       1.96605127      -0.00862629       0.00016271      -0.00474998
H        7.63561646      11.17141303       0.23745613      -0.00637995       0.00001444      -0.00456813
H        6.09069451      10.56804461       0.84405885      -0.00651345      -0.00191910      -0.00645525
C        8.23009643       2.33978205       4.51401397      -0.00015955      -0.00298846      -0.00159472
C        6.96634458       1.49194515       4.42819467       0.00078813      -0.00455010      -0.00201925
C        9.51133520       1.51660018       4.60806138       0.00152075      -0.00062251      -0.00034352
C        5.67619303       2.30111913       4.33949269      -0.00002977      -0.00547063      -0.00123372
C       10.77217590       2.36419688       4.71336376      -0.00085711       0.00274518       0.00157444
C        4.43277399       1.42611218       4.25419730       0.00014669      -0.00604403      -0.00134015
H        8.28719583       2.99732478       3.63779818      -0.00054850      -0.00308542      -0.00181666
H        8.16360326       3.00495201       5.38368856      -0.00154790      -0.00276387      -0.00174147
H        6.91366381       0.83396711       5.30428655       0.00163238      -0.00497809      -0.00224024
H        7.03180264       0.82735900       3.55968358       0.00139574      -0.00404263      -0.00240776
H        9.44370969       0.85127877       5.47584890       0.00194233      -0.00093892      -0.00045931
H        9.58539801       0.86071416       3.73426987       0.00433885      -0.00020626      -0.00039205
H        5.61053996       2.96286477       5.21091589      -0.00015023      -0.00621642      -0.00065219
H        5.72646720       2.95959211       3.46500501      -0.00064011      -0.00464603      -0.00069582
H       10.87694097       3.01531741       3.84150946      -0.00021753       0.00153585       0.00072654
H       11.66993746       1.74753614       4.77059218       0.00028008       0.00478828       0.00446084
H       10.73892825       3.00528722       5.59780083      -0.00476690       0.00397459       0.00067200
H        4.44354683       0.79728737       3.36174497      -0.00125157      -0.00463226      -0.00245807
H        4.36347554       0.76391366       5.12000571       0.00172846      -0.00737622      -0.00214551
H        3.51677925       2.01501096       4.22606061       0.00001077      -0.00592297       0.00096803
