149
Lattice="12.512728780855378 0.0 0.0 0.0 12.512728780855378 0.0 0.0 0.0 12.512728780855378" Properties=species:S:1:pos:R:3:forces:R:3 energy=-99685.0234375 stress="-0.000862454529851675 -0.00012508052168413997 0.00013623201084556058 -0.00012508052168413997 -0.0014222312020137906 -0.000289205796434544 0.00013623201084556058 -0.000289205796434544 -0.0012125045759603381" pbc="T T T"
Co      10.99600514      12.15542514      -1.23876962      -0.02169913       0.03317434      -0.02148604
O        2.19270678       8.89436413       6.64923067      -0.01394010      -0.01534325       0.00549316
O        2.85841743       8.61309540       4.50872320      -0.00793087      -0.00289190       0.00337410
C        4.04322789      10.13766886       5.86713872      -0.01112461      -0.00601161      -0.00387928
C        4.78343224      10.61014561       4.78823081      -0.01460938      -0.00184567      -0.00807652
C        4.39291688      10.54646932       7.15358040      -0.01007433      -0.00752724      -0.00860755
C        5.87774729      11.44214769       4.99072777      -0.01774263       0.00323883      -0.00473534
C        5.50898994      11.34364929       7.36449284      -0.01488614      -0.00415210      -0.00505382
C        6.25873395      11.78750350       6.28001576      -0.01781344       0.00217447      -0.00684926
C        2.91183571       9.12164881       5.64916308       0.00012255      -0.01105046      -0.03007001
H        4.49009293      10.28378349       3.79854612      -0.01379508      -0.00033237      -0.00630182
H        3.78186748      10.19784448       7.97679966      -0.00883031      -0.01262606      -0.00567970
H        6.45639452      11.80406040       4.15042471      -0.02064820       0.00784745      -0.00602369
H        5.80434127      11.61582588       8.37168054      -0.01385990      -0.00545657      -0.00564969
H        7.13672521      12.39897232       6.43967971      -0.02074945       0.00532074      -0.00563821
O       10.08082063      10.46669568      11.25824523      -0.01101726       0.03147785      -0.03259611
O        9.33194185      12.30563682      12.10527272      -0.00443289      -0.00539283       0.04654482
C        7.68224351      10.68980113      11.52167704      -0.00771239       0.01003253      -0.00084075
C        6.69911935      11.67965018      11.46336834      -0.02045626      -0.00244600       0.00607993
C        7.33479431       9.34725072      11.36275779       0.00415620       0.00829467      -0.00797403
C        5.37637814      11.33180934      11.25531261      -0.01698586      -0.01930694       0.00494681
C        6.00168214       9.00427478      11.19181597       0.00766326      -0.00906193      -0.00661972
C        5.02253364       9.99295018      11.13371806      -0.00360963      -0.02133087      -0.00122282
C        9.06886392      11.13160447      11.66416613      -0.00647491       0.01429169       0.00579877
H        6.99614223      12.71516640      11.55290256      -0.03673125       0.00120069       0.01533059
H        8.10396748       8.58548957      11.38936100       0.01871129       0.02384007      -0.01121447
H        4.62771788      12.10857765      11.18033210      -0.03020718      -0.03248259       0.00755280
H        5.71590181       7.96466574      11.10206184       0.01543998      -0.01075682      -0.01256106
H        3.98668456       9.71850918      10.98428515      -0.00210375      -0.02912541      -0.00311924
C        4.08233035       4.96106335       9.36185577      -0.00222796      -0.00256245       0.00239186
C        3.02802957       4.05604504       9.98428367      -0.00221884       0.00126232       0.00730240
C        3.56546659       6.28160664       8.80984125      -0.00150949      -0.00331794       0.00035800
C        3.60873470       2.73677612      10.48548220      -0.00375527       0.00109105       0.00832034
C        4.65782742       7.06866694       8.10366425      -0.00277793      -0.00707144      -0.00536625
C        2.56728265       1.81433569      11.09623181      -0.00487578       0.00421813       0.01056793
H        4.86791896       5.16156684      10.10261478      -0.00010638      -0.00211783      -0.00019222
H        4.57504734       4.41612709       8.55126516      -0.00541779      -0.00558758       0.00258726
H        2.24731054       3.85073547       9.24160894      -0.00465755       0.00167541       0.00984541
H        2.53202942       4.57568975      10.81298042       0.00144547       0.00389774       0.00752720
H        2.74757043       6.10678861       8.10575622      -0.00399518      -0.00413742       0.00334361
H        3.13484187       6.88034132       9.61979137       0.00185937      -0.00056013      -0.00014073
H        4.10631054       2.22736867       9.65437378      -0.00556058      -0.00097667       0.00855398
H        4.38836154       2.94714501      11.22373520      -0.00287804       0.00054376       0.00721657
H        5.49978859       7.27489897       8.77003631      -0.00212474      -0.00288604      -0.00752161
H        4.26743391       8.00994407       7.72820010      -0.00312527      -0.00953472      -0.01014902
H        5.04431580       6.51175906       7.24665372      -0.00349547      -0.01189682      -0.00228733
H        2.03253510       2.31122138      11.90868969      -0.00467498       0.00705273       0.00883925
H        1.83601357       1.51380476      10.34408280      -0.00467056       0.00322181       0.01109119
H        3.00856306       0.90534026      11.50718445      -0.00661927       0.00475745       0.01319104
C        5.26486497       3.27033735       1.63717822      -0.00287586       0.00403941       0.00075307
C        5.07970980       4.69305875       1.12418009      -0.00212100       0.00390172       0.00077638
C        6.47004265       2.53597268       1.05796636      -0.00368866       0.00298262       0.00080946
C        3.91228882       5.42198952       1.78146499      -0.00082004       0.00474355       0.00175777
C        6.72882660       1.20435912       1.75081877      -0.00277535       0.00434661       0.00274312
C        3.72922786       6.84752372       1.27972938       0.00097893       0.00554675       0.00382851
H        5.36537791       3.30229386       2.72788637      -0.00253437       0.00419706       0.00061199
H        4.35684415       2.68673343       1.44109468      -0.00319329       0.00457509       0.00111121
H        4.94015571       4.68306933       0.03616193      -0.00286243       0.00411881       0.00094986
H        6.00069954       5.26121192       1.30383132      -0.00154179       0.00320235      -0.00002600
H        6.32602515       2.38184196      -0.01798217      -0.00508462       0.00101051       0.00136811
H        7.35774751       3.17017384       1.14680167      -0.00380805       0.00317891      -0.00141913
H        2.99222884       4.84986260       1.61773604      -0.00154150       0.00618242       0.00131476
H        4.06298726       5.43977658       2.86506922      -0.00058944       0.00316456       0.00159219
H        6.87230284       1.35635058       2.82260054       0.00010016       0.00685896       0.00184825
H        7.61662989       0.70767241       1.35835647      -0.00424205       0.00283398       0.00173974
H        5.88208373       0.52440936       1.62983860      -0.00357154       0.00479003       0.00658333
H        4.65989141       7.41191302       1.37441769       0.00194316       0.00378350       0.00373434
H        3.44287677       6.85716833       0.22427983       0.00054273       0.00733891       0.00397693
H        2.97414958       7.37962941       1.85791907       0.00243190       0.00582434       0.00508603
C        7.32635967       6.07680679       4.11359206       0.00648788      -0.00174256       0.00327247
C        7.78921478       7.19416547       3.19355579       0.00509697      -0.00054904       0.00414243
C        8.07139149       4.77036312       3.88164950       0.00634465      -0.00113228      -0.00019068
C        7.02604658       8.49292116       3.39995512       0.00430837      -0.00105727       0.00422001
C        7.63037070       3.67173965       4.83175240       0.00943553      -0.00334635      -0.00152123
C        7.47118964       9.57227933       2.42747712       0.00275308      -0.00139916       0.00305158
H        7.45091440       6.39005696       5.15665579       0.00811218      -0.00342610       0.00355875
H        6.25001145       5.91828364       3.97636444       0.00640824      -0.00159637       0.00458255
H        7.67482922       6.87147137       2.15062998       0.00520282      -0.00013076       0.00415668
H        8.86247257       7.36580137       3.33937932       0.00495943       0.00015285       0.00406539
H        7.92268867       4.45292947       2.84524341       0.00401366       0.00055021      -0.00029457
H        9.14630075       4.94622030       3.99332786       0.00648433      -0.00095075      -0.00257771
H        5.95427005       8.30439438       3.28488044       0.00457165      -0.00183995       0.00532781
H        7.15273964       8.83411666       4.43117648       0.00493331      -0.00032955       0.00388896
H        7.79795414       3.97346543       5.86591546       0.01248085      -0.00618452      -0.00125214
H        8.16927275       2.73726670       4.66246869       0.00914139      -0.00260778      -0.00574809
H        6.56340204       3.46332527       4.72918489       0.00922671      -0.00345791       0.00114029
H        8.50459819       9.87612364       2.61069274       0.00308727      -0.00183162       0.00082688
H        7.41647589       9.20261141       1.40403663       0.00017002      -0.00129190       0.00309770
H        6.84519022      10.46267418       2.48096876       0.00348116      -0.00119932       0.00470639
C       11.46785611       1.31858488       6.93895149       0.00811589      -0.01093215       0.00161751
C       11.55097226       1.98820644       8.30615907       0.00721135      -0.01302499       0.00134723
C       11.36332061       2.27702089       5.75869144       0.00364123      -0.00209403       0.00910661
C       11.64230620       0.95546489       9.43611758       0.01777644      -0.00109860       0.01161208
C       11.25916156       1.52734197       4.43581478      -0.00137326       0.01150851       0.00261727
C       11.53205846       1.55876439      10.82919369       0.00528945       0.02580690      -0.00151918
H       12.34266309       0.67319436       6.80000706       0.00947416      -0.00791159      -0.00325504
H       10.59958799       0.64900309       6.92876571       0.00920677      -0.01151580       0.00454487
H       10.66642214       2.61379643       8.46975682       0.00626796      -0.01439528       0.00214348
H       12.41546626       2.65932898       8.35560178       0.00288427      -0.00722291      -0.00271156
H       10.48918528       2.92447006       5.88758128       0.00379923      -0.00408301       0.01929512
H       12.23190845       2.94194125       5.74091627       0.00241095      -0.00033368       0.01134846
H       10.80278135       0.25706891       9.27003035       0.02016896      -0.01346673       0.02963068
H       12.56914834       0.37445682       9.32073738       0.02421874       0.00618939       0.02397311
H       12.13813347       0.89895696       4.27557957      -0.00235447       0.01306918      -0.00827319
H       11.17311783       2.20559337       3.58614799      -0.00387542       0.02091444       0.01096970
H       10.38689455       0.86942934       4.42731617      -0.00189534       0.01298870      -0.00221112
H       12.35050313       2.25135729      11.03112211       0.00912201       0.02171296      -0.00559362
H       10.58659282       2.07618725      10.99285420       0.00219905       0.02586955      -0.02154800
H       11.79595013       0.86673400      11.79270838      -0.02882352       0.02933154       0.00807878
C        8.57477379       4.59854766      10.02976149       0.00508342       0.00003424       0.00728697
C        7.90264657       4.07575544       8.76925347       0.00410832      -0.00103065       0.00852060
C        9.48783408       5.78858784       9.77253081       0.00023694       0.00331581       0.00629565
C        7.05525192       2.83513517       9.01212908       0.00484318      -0.00114852       0.00901210
C       10.19248869       6.28057741      11.02840734       0.00090671       0.00522223       0.00500995
C        6.33140637       2.35516510       7.76579163       0.00741443      -0.00292987       0.00868994
H        7.80519412       4.87550824      10.76134080       0.00630316      -0.00366826       0.00972541
H        9.15049860       3.79007332      10.49667743       0.00905779       0.00172533       0.00488628
H        8.66745218       3.85561526       8.01429027       0.00339174      -0.00062343       0.00775385
H        7.27533893       4.86582785       8.33896766       0.00312260      -0.00178140       0.00876621
H       10.23062444       5.51503371       9.01573085      -0.00032631       0.00636353       0.00479190
H        8.90157701       6.59954818       9.32966451      -0.00351760       0.00139511       0.00797258
H        7.69415770       2.03192433       9.39900075       0.00414370      -0.00004587       0.00990964
H        6.33185686       3.05263749       9.80229422       0.00402346      -0.00162503       0.00809613
H        9.47153661       6.54419912      11.80633471       0.00161789       0.00231831       0.00633276
H       10.80622857       7.16066852      10.83249340      -0.00254874       0.00731115       0.00395960
H       10.84110328       5.50401788      11.44110619       0.00450883       0.00743209       0.00309734
H        5.73239037       3.15379422       7.32427843       0.00657424      -0.00400607       0.00805903
H        7.03871659       2.03377174       7.00170526       0.00891437      -0.00142389       0.00955541
H        5.66784152       1.51557703       7.96856715       0.00858481      -0.00391917       0.00810709
C       10.43348736       9.09356545       6.87299607       0.00777370      -0.00315720      -0.01314262
C       10.82609569       7.66059876       6.55072780       0.01036881      -0.00333542      -0.00920093
C        9.39933910       9.23396229       7.98161311      -0.00210249      -0.00228122      -0.02266145
C       11.78733478       7.57499343       5.37321561       0.01548040      -0.00439972      -0.00503621
C        9.09725669      10.69355273       8.26921270      -0.01357466      -0.00274551      -0.03277308
C       12.18713522       6.14764942       5.03860201       0.01805425      -0.00431153      -0.00205241
H       11.33709510       9.65345511       7.13802667       0.00519887      -0.00289994      -0.00493154
H       10.03735121       9.57019596       5.96773681       0.01668969      -0.00380407      -0.01710039
H        9.92121266       7.07061526       6.34643041       0.01198196      -0.00425056      -0.01203893
H       11.29417464       7.20939671       7.43320497       0.00716886      -0.00157887      -0.00657272
H        8.48035755       8.70843442       7.70034734       0.00309011      -0.00824314      -0.02829402
H        9.76652007       8.75713977       8.89617746      -0.00794993       0.00398402      -0.01741731
H       11.31847239       8.04201799       4.49946762       0.01899612      -0.00590619      -0.00774202
H       12.69022081       8.15178270       5.59512985       0.01384819      -0.00425795      -0.00216775
H        9.97496932      11.15595562       8.71693048      -0.01638591       0.00978801      -0.04013704
H        8.26240924      10.82198400       8.95678071      -0.01198129      -0.00524158      -0.03021592
H        8.86216107      11.23163740       7.35081487      -0.02211007      -0.01293911      -0.03618172
H       12.70062287       5.68774537       5.88588565       0.01589267      -0.00254855       0.00024259
H       11.31551181       5.52921434       4.80368490       0.01984662      -0.00594745      -0.00427663
H       12.86970845       6.12214851       4.18929793       0.02108850      -0.00422566       0.00070557
