150
Lattice="11.180786481955334 0.0 0.0 0.0 11.180786481955334 0.0 0.0 0.0 11.180786481955334" Properties=species:S:1:pos:R:3:forces:R:3 energy=-166915.0625 stress="0.00263991835527122 0.0012049012584611773 -0.0007196281221695244 0.0012049012584611773 0.0028664576821029186 0.00015535748389083892 -0.0007196281221695244 0.00015535748389083892 0.0009326428407803178" pbc="T T T"
Co      10.97610338      11.06161960       0.80697894      -0.00310787       0.00452050       0.00496678
P        4.60489784       3.73546042       6.57372432      -0.00507484      -0.00019826      -0.00387762
O        3.81952930       4.75448800       7.48004755      -0.00849423       0.00011665      -0.00701764
O        6.10496648       4.18681632       6.78868259      -0.00586569      -0.00063302       0.00182865
O        4.37174475       2.36248612       7.17243786      -0.00707763      -0.00154051      -0.00171584
O        4.20497419       3.87271323       5.12050357       0.00038832      -0.00324018      -0.00432056
H        3.95848865       5.71044440       7.26573162      -0.00770592       0.00055640      -0.00679940
H        6.76583269       3.78944816       6.16472879      -0.00414205      -0.00443680       0.00488730
P        9.28285577       6.57987872       4.97047798       0.00622389      -0.00849312      -0.00609925
O       10.04407392       6.70462693       3.56138418       0.00967625      -0.00643994       0.00003594
O       10.39505694       5.91522703       5.92280159       0.00124854      -0.00070944      -0.00019452
O        8.96147976       7.97097685       5.47681137       0.00171159      -0.00416708      -0.00943545
O        8.14799152       5.64144507       4.79656611       0.01136732      -0.00133705      -0.00428735
H       10.72819429       7.42330944       3.50087827       0.00303708      -0.00036293      -0.00409846
H       11.32000350       6.08616394       5.64592502       0.00139443      -0.00063060       0.00404907
O        0.83390091       5.77028831       8.88581335      -0.00212729       0.00400514      -0.00123037
H        0.91271479       4.86129447       8.50598872      -0.00616965       0.00217634       0.00194633
H        0.23723098       5.68867154       9.65363720      -0.00348991       0.00974096      -0.00140984
O        4.75614737      10.89543460       4.08666421       0.00322647      -0.00143273      -0.00017649
H        5.01577877      11.78633505       3.76914852       0.00090330      -0.00123560      -0.00271280
H        4.17429389      11.08035254       4.84518176       0.00531469      -0.00167347       0.00122165
O        9.31256577       4.03351463       7.66958712      -0.00582454       0.00529221      -0.00056147
H        9.95405963       4.53951686       7.14145065      -0.00430297       0.00509427       0.00053807
H        8.86697842       4.73972284       8.18855161      -0.00477322       0.00553939       0.00126884
O        0.49991501       8.56465827       9.10366170      -0.00072747       0.00702022       0.00680700
H        0.61226907       9.24036985       8.41672782      -0.00550859       0.00742286       0.00694014
H        0.62829775       7.68744437       8.71048615      -0.00248658       0.00672938       0.00497940
O        4.41557294       6.40013884       4.18183460       0.00281790      -0.00068966      -0.00121322
H        5.11524546       6.98132163       4.52971031       0.00371158      -0.00293282      -0.00027626
H        4.54331613       5.49437631       4.54632200       0.00028758      -0.00214190      -0.00259749
O        2.10981301       2.97520470       1.59241428       0.01596023      -0.00684343       0.01257524
H        2.61813041       3.61152713       1.04173992       0.01030011      -0.00430382       0.01077973
H        2.77575830       2.58478097       2.16976532       0.02212406      -0.00760214       0.00546258
O        9.47421987       1.47110618       8.61959082      -0.00275344       0.00169219      -0.01204795
H        8.88039819       1.06678781       7.97634479      -0.00553326       0.00512379      -0.01173896
H        9.60288319       2.39916628       8.31351703      -0.00050308       0.00247939      -0.00988307
O        7.44397554       8.15946364       1.62275766       0.01814054      -0.00292502      -0.00679283
H        6.97756081       8.70792980       0.96000316       0.01086361      -0.00904022      -0.00735095
H        7.12040990       8.43039982       2.50914426       0.01219297      -0.00669822      -0.00763145
O        3.21697631       2.16387693       9.63629952      -0.00769470      -0.00383736      -0.00098421
H        3.64860947       2.29991054       8.76480785      -0.00649750      -0.00584385      -0.00039344
H        3.48591370       2.94575444      10.16618129      -0.01038099      -0.00135234      -0.00252643
O        6.21573310       9.51265297      10.74689166      -0.01146901       0.00973248       0.02163607
H        6.19557837      10.45243923      11.01395854      -0.01215043       0.00627054       0.04557762
H        6.70036322       9.45870246       9.91507387      -0.02570732       0.03877125       0.01443179
O        8.07534072       8.51297817       8.05779960       0.00350893      -0.01015010      -0.00775892
H        7.21437424       8.85778624       7.73549840       0.00159098      -0.00603396       0.00196431
H        8.54245894       8.30230173       7.22432593      -0.00416374      -0.00799371      -0.01136526
O       10.40682626       6.07488003      -0.11110406      -0.00107786       0.01138870      -0.00074911
H       10.75395319       6.84385998       0.34998064      -0.01270987       0.01709013      -0.00137761
H       10.08245245       5.45139033       0.59230399       0.00484241       0.00831446      -0.00061416
O        7.98701722       2.21342256      10.82458575      -0.00070293       0.00132961      -0.01042731
H        7.52221512       3.03408171      10.49492295      -0.00256309       0.00280072      -0.00496756
H        8.40244075       1.83076909      10.02256066       0.00029369       0.00524637      -0.01209777
O        8.38048111       6.13017186       9.21427983      -0.00579121      -0.00059296       0.00308611
H        8.19234802       7.00950697       8.79895324      -0.00185052      -0.00122678      -0.00113396
H        9.08097599       6.27538696       9.87813020      -0.00664975       0.00014713       0.00427943
O       11.49299293       0.42051117       3.59778491      -0.00087409      -0.00034890       0.00037210
H       11.04343217      -0.08826705       4.30381300      -0.00065741      -0.00414917      -0.00250766
H       11.13131242       1.32826227       3.66600867      -0.00237266      -0.00090703       0.00375839
O        9.89434709       1.37732830       1.32700824      -0.00259303       0.00720590      -0.00012515
H        9.31445874       1.19384142       2.09117573      -0.00155044       0.01248354       0.00194246
H        9.31643462       1.84330027       0.67732177      -0.00171931       0.00426196      -0.00276288
O        3.20602096       6.61027758       9.67314951       0.00018389      -0.00229672      -0.00030033
H        2.28121405       6.35076023       9.42122192      -0.00032917      -0.00171673      -0.00028485
H        3.18618334       7.32522685      10.34649392       0.00086716      -0.00211118       0.00014284
O        4.04492660       7.49054167       7.29217948      -0.00276155      -0.00358758      -0.00131896
H        3.77817653       7.32205957       8.22933619      -0.00121874      -0.00382381      -0.00051671
H        3.27417550       7.94889184       6.88402305      -0.00232355       0.00046589       0.00152859
O        0.50564384      -0.11143306       7.81084595       0.00030687      -0.00109372       0.00007179
H       -0.03959661       0.60746333       8.18079564      -0.00015770       0.00128587      -0.00482581
H        1.26976513       0.29156450       7.36553571       0.00057357      -0.00400396      -0.00273756
O        2.72792810       0.55378933       6.04015767      -0.00646886      -0.00357391      -0.00227173
H        2.19614178       1.21973450       5.55370690      -0.00609881      -0.00445776      -0.00434241
H        3.37540075       1.13369862       6.51027010      -0.00882699      -0.00260479      -0.00100112
O        9.71481405       9.87276680       1.66971777      -0.00477885       0.00713447       0.00578690
H        9.03792644      10.34898695       2.23176747       0.00096449       0.00988824       0.00996324
H        9.22498403       9.10665712       1.31792735      -0.01043683       0.00777003       0.00999542
O        5.62232998       0.58216506       8.80389752       0.00706182       0.00190015      -0.01285484
H        5.38999697       1.26057756       8.13632876      -0.00576519       0.00219220      -0.00845436
H        4.96805790       0.74988513       9.49541471       0.01572547      -0.00440450      -0.00302036
O        0.52707432       8.64332089       3.25937809      -0.00812704       0.00347612      -0.00125601
H       -0.11161148       9.18840987       2.76686665      -0.00418027       0.00450837      -0.00511070
H        1.39524769       9.04663033       3.02353758      -0.00513492      -0.00317862       0.00095579
O        6.20365119       0.72204268      12.11935539       0.01177457       0.00136173      -0.00399300
H        6.78980082       1.34568746      11.61322651       0.01083722      -0.00288798      -0.01274399
H        5.50064635       1.24668235      12.52654305       0.00482550       0.00146924      -0.01675735
O        9.55642555       4.60132802       1.91636454       0.01031522      -0.00063243      -0.00293747
H        9.70297751       5.35627387       2.52409563       0.00984795      -0.00019032      -0.00208910
H        8.59287386       4.42210816       2.01827862       0.01029837      -0.00159730      -0.00406730
O        1.68461773       6.42639364       4.75516706       0.00397991       0.00743845       0.00090449
H        1.44012608       6.55941188       3.83464458       0.00122353      -0.01568091      -0.00130828
H        2.66255012       6.42981802       4.74084459       0.00429721       0.00476236      -0.00148909
O        3.73072074       4.42539669      -0.03993133      -0.00213408      -0.00153977      -0.00500441
H        4.57694770       4.65814030       0.36452929       0.00793580      -0.01083559      -0.02053939
H        3.54775519       5.20516110      -0.62468665      -0.00280537       0.00101025      -0.00228123
O       10.11034374      10.34869377       5.67217622       0.00050242      -0.00500368      -0.00160576
H        9.88344272       9.38937408       5.59989103       0.00170589      -0.00349825      -0.00334994
H       10.67349485      10.47328809       6.46692482       0.00016934      -0.00483683      -0.00070449
O        2.44965292      10.34538921       2.55575381       0.00149272      -0.00081339       0.00329138
H        1.84026700      10.97846767       2.99136413       0.00128525      -0.00063424       0.00254639
H        3.32074163      10.45791531       2.98208637       0.00084728      -0.00210034       0.00513810
O        1.56498608       2.93044271       5.34488338      -0.00548953       0.00064629       0.00158098
H        0.78128857       3.13260501       4.79282517      -0.00552075      -0.00071591       0.00116584
H        2.30885350       3.49327253       5.06926832      -0.00545375      -0.00033269      -0.00174262
O        8.09541759       2.84002446       5.57238895      -0.00655687      -0.00066127       0.00453777
H        7.88874727       1.89919803       5.73867617      -0.00024306      -0.00116746       0.00898445
H        8.53640349       3.21197992       6.37269357      -0.00404327       0.00505602       0.00127950
O        6.99743084       4.29220170       2.76309714       0.00859264      -0.00870056      -0.00630434
H        7.33871462       4.74148835       3.57877080       0.00611266      -0.01022849      -0.00521828
H        6.42995476       4.95274333       2.32368706       0.00730091      -0.01019949      -0.00499140
O        0.99532340       3.18070382       8.06134794      -0.00731008       0.00308338       0.00455792
H        1.73201057       2.84118574       8.59744931      -0.00654435       0.00444501       0.00444460
H        1.27940751       3.11834073       7.12715073      -0.00712831       0.00277519       0.00452858
O        7.63777847      11.30877026       5.67376888       0.00451314      -0.00056583       0.01033700
H        6.97560567      10.72724845       6.08774622       0.00349655      -0.00214905       0.00666136
H        8.53125536      10.89107212       5.78833607       0.00398435      -0.00352673       0.00549087
O        2.00613360       8.95310603       6.24471483      -0.00067972      -0.00345859      -0.00024387
H        2.23183660       9.87299815       6.03097241      -0.00257616      -0.00403694      -0.00646374
H        1.61974366       8.55303577       5.45481869       0.00630251      -0.01253260       0.00106528
O        5.78726676       9.64496895       7.14687993       0.00334635      -0.00329319      -0.00346731
H        5.14477303       8.90137186       7.17703535       0.00237310      -0.00251751      -0.00432026
H        5.52928459      10.30889472       7.82216889       0.00204192      -0.00051323      -0.00647217
O       10.39981087       2.92869092       3.96122985      -0.00577597      -0.00140172       0.00143157
H        9.56931368       2.96293870       4.48056791      -0.00625226       0.00018538       0.00079709
H       10.21793955       3.43784319       3.14484299      -0.00271403       0.00074555       0.00169791
O        0.97154376       1.14816149       0.05352831      -0.00022395       0.00262374       0.00568291
H        1.66312147       0.96879593      -0.59895635      -0.00197333       0.00431256       0.00320944
H        1.34953896       1.85394086       0.65395374       0.00279026      -0.00189482       0.00832026
O        5.32523190       6.32813305       1.63450834       0.01005706      -0.00612651       0.00148599
H        4.96925541       6.39705986       2.55395054       0.00941636      -0.00292245       0.00127465
H        6.12312975       6.89908863       1.61045902       0.01037899      -0.00775235      -0.00010984
O        3.73716498       8.40704844       0.39317812      -0.00034477      -0.00799705       0.00228213
H        4.16018228       7.69824553       0.91476773       0.00132494      -0.00847129       0.00017172
H        4.49887517       8.85747385      -0.01278440      -0.00083799      -0.00268006       0.00627425
O        7.99829772       0.19065472       2.93654924       0.00269678       0.01297172       0.01137859
H        7.71500056       0.15577012       3.87580162       0.00310756       0.01117571       0.01139069
H        7.22008585       0.33674595       2.35611571       0.00247975       0.01056370       0.01174402
O        6.39771995       8.46779188       4.19580821       0.00673598      -0.00210083      -0.00969365
H        7.18627034       8.39679782       4.76842249       0.00532711      -0.00476684      -0.00918720
H        5.97053166       9.32417528       4.36916104       0.00807139      -0.00138189      -0.00847439
O        5.07620997       2.31291419       3.11560715       0.00512837      -0.00467651      -0.00440870
H        4.65229709       2.80040884       3.86231594       0.00447671      -0.00254271      -0.00567897
H        5.86588387       2.87859592       2.96772324       0.00675490      -0.00669453      -0.00429085
O        6.62530099       4.25828496       9.87502257      -0.00850788       0.00648470       0.01090620
H        7.19584791       5.04743466       9.71041877      -0.00661730       0.00505909       0.00713502
H        6.27292138       4.05854291       8.99793517      -0.01337003       0.00709093       0.01259355
O        0.85180057       9.54423253       0.29728873      -0.00367427       0.00345954       0.00750075
H        0.81272640       9.15724557      -0.62492210      -0.00284670       0.00372332       0.00720288
H        1.76920042       9.51390110       0.61869745      -0.00388159       0.00364020       0.00872073
