150
Lattice="12.205332756737786 0.0 0.0 0.0 12.205332756737786 0.0 0.0 0.0 12.205332756737786" Properties=species:S:1:pos:R:3:forces:R:3 energy=-580196.125 stress="-0.0028496121522039175 0.0002560773427831009 -0.0009041153243742883 0.0002560773427831009 -0.0034625879488885403 -0.00155899568926543 -0.0009041153243742883 -0.00155899568926543 -0.0031739354599267244" pbc="T T T"
Co      12.38163500      11.34477537       0.39420472      -0.02933871      -0.00896335      -0.00641298
O       11.45323922      12.80727654       1.05443525      -0.03060189       0.00240460      -0.03543937
O       10.06670574      11.09333093       3.15677756      -0.01127180       0.04759997       0.00814146
O       10.93997056      10.18709188       0.47813008      -0.02603656      -0.01047263       0.02264300
O        8.57384374      12.03749198       0.96239886      -0.03169674      -0.01421240      -0.00218880
W       10.15821367      11.54383983       1.47407769      -0.02448887       0.00786725      -0.00202790
O        3.55898541       7.97140022       8.92675791      -0.01229858      -0.03681767       0.02625096
N        5.31496669       7.97246487       7.46088707      -0.00416580      -0.01664868       0.00917322
C        5.60752561       6.56735741       7.63283366       0.00251933      -0.01306117      -0.00079937
C        6.19547249       8.74229568       6.61860222      -0.00424886      -0.00852594       0.01108693
C        4.28584650       8.54248437       8.13925175       0.01568943       0.00022474      -0.00969672
H        6.61721215       6.43829140       8.02382771       0.00160596      -0.01433203      -0.00166111
H        5.53860815       6.05166478       6.66961062       0.00100433      -0.01068056      -0.00135237
H        4.88769340       6.15438578       8.33249878       0.00249833      -0.01810305      -0.00055790
H        7.18448756       8.85037229       7.07367180      -0.00387973      -0.00686282       0.01129481
H        5.77212894       9.73153972       6.44075927      -0.00591159      -0.00988230       0.01255378
H        6.32412811       8.24909446       5.65198412      -0.00005109      -0.00530668       0.00823501
H        4.17181323       9.60644814       7.89033803      -0.00410080      -0.02445382       0.01597226
O        2.19329984       9.80662073       6.50342460       0.01212591       0.01534569      -0.00700450
N        3.00523854       8.04393220       5.28857769       0.01259471       0.01357457      -0.00591168
C        2.17610036       7.01937778       5.89659595       0.01935191       0.01208872      -0.00061132
C        3.91679343       7.64439932       4.24550688       0.00601280       0.01331082      -0.01156199
C        2.93195301       9.33083472       5.65592686       0.01174802       0.01379919      -0.01062512
H        2.79996216       6.31641959       6.45353179       0.02293605       0.01995161       0.00496809
H        1.66757062       6.45819886       5.11020780       0.02405292       0.00408474       0.00233078
H        1.46012411       7.46596181       6.58425071       0.01510936       0.01079091      -0.00463742
H        4.56060532       6.83394872       4.59528425       0.01126754       0.01651266      -0.01460682
H        4.53965356       8.48376041       3.95110214       0.00107524       0.01408461      -0.01872062
H        3.36671432       7.28828539       3.37715448      -0.00009337       0.00877437      -0.00583789
H        3.63945501       9.95506927       5.07882868       0.00526634       0.01475960      -0.01429057
O        5.56605146       2.20270909       1.47123816       0.00343788       0.00172457       0.01373911
N        3.32128775       2.17332931       1.90558899       0.00089952      -0.00578141       0.00281005
C        3.49266521       1.78203459       3.28973699      -0.00374568       0.00269019       0.00553989
C        1.98885855       2.52398704       1.45798814       0.00216770      -0.01073687      -0.00443312
C        4.41034350       2.39812188       1.13268806       0.00155306      -0.00467666       0.00617784
H        3.12845200       0.76841259       3.46579484       0.00002059       0.00236753       0.01175930
H        2.95048716       2.47419423       3.93549255      -0.00836891       0.00453374      -0.00095327
H        4.55497529       1.81446211       3.51760193      -0.00491840       0.00893031       0.00916192
H        1.29584576       1.68763778       1.55887359       0.00337970      -0.01104718      -0.00139186
H        2.02959363       2.81343818       0.40857695       0.00517210      -0.01837289      -0.00610292
H        1.61359767       3.36436026       2.04605432      -0.00170717      -0.00740311      -0.01214850
H        4.13685998       2.79238170       0.14053791       0.00684978      -0.01180106       0.00346708
O        1.62963215      10.08723341       0.28552436      -0.03347954      -0.01103586       0.00142127
N        1.48666835      10.11649431       2.64198814      -0.01755779       0.00752605       0.00009626
C        0.89262558       8.79026206       2.64871155      -0.01313768       0.00628105       0.01392448
C        1.02242768      11.00461805       3.71062666      -0.00906662       0.01296102      -0.00178798
C        1.61116858      10.71031857       1.41752826      -0.02611363      -0.00094259      -0.00391966
H       -0.19456771       8.85707224       2.53736848      -0.01252568       0.00027715       0.00720717
H        1.13575908       8.29322860       3.58561257      -0.01591904       0.02014677       0.02153721
H        1.29526994       8.22494283       1.81270420      -0.00676373      -0.00401357       0.02424783
H       -0.06806612      11.07504488       3.69929651      -0.00870210       0.01634111       0.00447883
H        1.43588060      11.99835181       3.55795577      -0.00732309       0.01076664      -0.00895594
H        1.33656248      10.64348594       4.68194409      -0.00297263       0.01605381      -0.00276905
H        2.08394076      11.72173279       1.48724929      -0.02580738      -0.00096595      -0.01494041
O        8.32145591      11.37306144      10.41768069       0.00281477       0.00022280      -0.02114636
N        6.42021162      10.15502082      10.65290607       0.00060496       0.00115061      -0.00133616
C        5.78918738      10.89993489       9.58970062      -0.01040752       0.00385643       0.00819160
C        5.80808467       8.93031020      11.13859730       0.00325993       0.00304858       0.00592473
C        7.68602015      10.49350495      10.97220048       0.00212044      -0.00833976      -0.01211092
H        4.70920867      10.88866592       9.72252797      -0.00888947       0.00046413       0.01704911
H        6.03407930      10.48593458       8.60946302      -0.01724484       0.01043917       0.00428885
H        6.16690115      11.91648891       9.61698738      -0.01338845       0.00492859       0.01054607
H        4.73650691       9.08137331      11.26889209       0.00430498       0.00514185       0.01293583
H        6.24823519       8.66655400      12.09989869       0.00840607       0.00561243       0.00400954
H        5.93869021       8.10066951      10.43799959      -0.00318889       0.00077808       0.00782081
H        8.08980915       9.88505996      11.79827359       0.01255295      -0.00871718      -0.02432185
O       11.96397068       7.71873053       7.90404354       0.00258341      -0.00130105      -0.02022737
N       10.89652223       9.61025670       8.61424319       0.01016286      -0.00307915      -0.00468096
C       10.16067252       8.94066197       9.66304750       0.01580977      -0.00671750      -0.00327588
C       10.66694709      11.02614376       8.41385682       0.00773369      -0.00288231       0.00061642
C       11.75442889       8.92421530       7.83572168       0.00329536       0.00058460      -0.01314879
H        9.10073483       8.87027610       9.41049712       0.01550755      -0.01008520       0.00059213
H       10.27401574       9.49675362      10.59320221       0.01682365      -0.00819710      -0.00274551
H       10.55078823       7.93179148       9.76519406       0.01935679      -0.00534347      -0.00579938
H        9.62205993      11.22081014       8.16358563       0.00695187      -0.00350938       0.00523966
H       11.29914829      11.39188248       7.60686986       0.00455202       0.00013484      -0.00007674
H       10.88194784      11.58424969       9.32903333       0.01039946      -0.00568099       0.00145170
H       12.27169243       9.56759762       7.11065731      -0.00047278       0.00257343      -0.01325309
O        8.81565128       6.65514247       8.09768602      -0.00325912       0.00014424      -0.00354743
N        9.88124706       6.42389718       6.09233793      -0.00451351      -0.00431894      -0.00208810
C        9.64523706       7.77769088       5.65075402      -0.00209313      -0.00475371      -0.00363961
C       10.58379692       5.55386391       5.18776752       0.00394266      -0.00304616       0.00405529
C        9.47646167       6.00275646       7.30542031      -0.00552559      -0.00053421      -0.00054067
H        8.89763229       7.80168826       4.85223588       0.00545952      -0.00581403      -0.01024774
H       10.57290188       8.21145910       5.27361067       0.00083739      -0.00388398       0.00531880
H        9.29976815       8.36414121       6.49638238      -0.01038536      -0.00539565      -0.00709251
H       10.00106993       5.41420704       4.27192223       0.01419993       0.00099925      -0.00257221
H       10.74163607       4.58187392       5.65157067      -0.00388965      -0.00458050       0.00274737
H       11.55602645       5.97738578       4.92280692       0.00773808      -0.00446327       0.01689096
H        9.79606182       4.96779873       7.51203694      -0.00626433      -0.00124735       0.00039962
O        6.59608738       8.51366171       2.39042241       0.02101499       0.00899327       0.00243962
N        6.47583286      10.74133651       2.89340023      -0.00770692       0.00431949       0.01180193
C        5.56746545      11.08447304       1.81883276      -0.01144214      -0.00376839       0.01294436
C        7.01821142      11.83662910       3.66559861      -0.01688910       0.00880182       0.01116303
C        6.94497218       9.49691813       3.03861904       0.00947050       0.01023483       0.00550798
H        6.09796566      11.69300939       1.08437184      -0.01549053      -0.00484046       0.00949940
H        4.73407608      11.66613490       2.21366289      -0.01280898      -0.00650343       0.01312861
H        5.19654250      10.17162850       1.36397239      -0.00824551      -0.00676405       0.01681658
H        7.47090813      12.55300244       2.98250504      -0.02944811       0.01566324       0.01054761
H        7.78853228      11.46181556       4.33518774      -0.00904383       0.01694866       0.00618021
H        6.22677225      12.32725795       4.23836277      -0.01935253      -0.00216387       0.01635058
H        7.70387583       9.43606412       3.83504528       0.01173872       0.01736430       0.00355294
O        2.67215236       4.90806713       3.26320708      -0.00731719       0.00590648      -0.01494589
N        4.24314020       5.47045618       1.69366611       0.00266789       0.00315464      -0.00499234
C        3.32889406       6.18929598       0.82732507       0.00898489       0.00431257      -0.01024014
C        5.65020339       5.49058757       1.32710889       0.00523010       0.00371507       0.00715771
C        3.82060151       4.89414771       2.82495467      -0.00601143       0.00470549      -0.00654387
H        3.44468825       5.84006295      -0.19901203       0.01826895       0.00740808      -0.01000351
H        3.54675662       7.26084183       0.84779894       0.00626116       0.00454316      -0.00432185
H        2.31503386       6.02122259       1.18177014       0.00685239       0.00140511      -0.01895615
H        5.75893989       5.17861800       0.29228379       0.01224068       0.01240748       0.00559986
H        6.19871565       4.79278751       1.95431271      -0.00112904      -0.00320388       0.00458245
H        6.05502813       6.49534278       1.45238811       0.00641934       0.00158149       0.01900347
H        4.64653399       4.38922946       3.35600011      -0.00952742       0.00464085      -0.00110570
O        5.20010286       4.94839276      10.31467558      -0.01560676      -0.01419294       0.01048175
N        6.24833735       2.98958017       9.80855071       0.00001668      -0.00277552       0.00235133
C        5.01877664       2.23572324       9.76596200       0.00572228      -0.01099954      -0.00293663
C        7.49390701       2.25552411       9.72747461       0.00557081       0.00744416       0.00074330
C        6.21866311       4.31004589      10.07218368      -0.01078123      -0.00493443       0.00959462
H        4.98074347       1.51228359      10.58416926       0.00641609      -0.01010022      -0.00251645
H        4.93951788       1.69331285       8.82043128       0.01461655      -0.01229286      -0.00249878
H        4.18866741       2.93273718       9.85116054       0.00077100      -0.01693791      -0.00759823
H        7.59497846       1.56266327      10.56522307       0.00950253       0.00441784      -0.00262278
H        8.32325362       2.95830793       9.75803694      -0.00053522       0.01390979       0.00594074
H        7.54434103       1.67896648       8.80030517       0.01126141       0.01255733      -0.00171024
H        7.21611003       4.76907980      10.04515273      -0.01427376       0.00233179       0.01495108
O        8.37028745       4.58153510      -0.04958130       0.00930488      -0.01171909      -0.00883216
N        9.91525527       6.05315083       0.76732259       0.01031705      -0.00961789      -0.01078263
C        9.07696603       7.22612818       0.62384049       0.00576864      -0.01257035      -0.00346251
C       11.24214775       6.25780299       1.29330423       0.01062293      -0.00713118      -0.01229428
C        9.47730569       4.83257711       0.39667958       0.01624680      -0.00902802      -0.01024672
H        9.61711517       7.99290546       0.06719830       0.00518596      -0.00427413       0.00831138
H        8.80283812       7.63344224       1.59966647      -0.00294421      -0.02323187      -0.00182942
H        8.17033742       6.94267880       0.09724145       0.01049888      -0.01173422      -0.01204623
H       11.80047853       6.95114787       0.66055795       0.00533724       0.00082743      -0.00785762
H       11.77025636       5.30725183       1.34265666       0.01566701      -0.00441092      -0.02153930
H       11.19296177       6.68327183       2.29935859       0.01179335      -0.01588529      -0.00868776
H       10.24252583       4.05198690       0.54828666       0.01490906      -0.00763512      -0.01671427
O       10.56972255       1.40411719       5.73999369      -0.00608671       0.01450959       0.00705934
N        9.75725890       2.42271462       3.85667179       0.00162403       0.00792712       0.00097418
C       11.06383839       2.76945413       3.33914733       0.00386950      -0.00319656       0.00040905
C        8.59938445       2.82713304       3.08672113       0.00530270       0.00663798      -0.00399775
C        9.64673605       1.74271169       5.02160774      -0.00344419       0.01371691       0.00318629
H       11.18606794       3.85382492       3.29250327       0.00857456      -0.00439960      -0.01051592
H       11.19519046       2.35275070       2.34050992       0.00405771      -0.01362981       0.00488031
H       11.81709022       2.35435381       4.00433438       0.00025551       0.00089617       0.00658301
H        8.58633790       3.91255140       2.95240741       0.00925646       0.00550964      -0.01129300
H        7.69123942       2.53945543       3.61228383       0.00332573       0.01314826      -0.00444186
H        8.58337508       2.36029426       2.09826992       0.00548122       0.00076599      -0.00101295
H        8.59249629       1.52294274       5.26931789      -0.00428069       0.01837280       0.00170557
