141
Lattice="12.170055730028766 0.0 0.0 0.0 12.170055730028766 0.0 0.0 0.0 12.170055730028766" Properties=species:S:1:pos:R:3:forces:R:3 energy=-182452.53125 stress="-0.002338450402021408 0.0005333107837941498 0.00012548506492748857 0.0005333107837941498 -0.0009898107964545488 -0.00046532644773833454 0.00012548506492748857 -0.00046532644773833454 -0.0014781721401959658" pbc="T T T"
Co      11.02537363      12.93400631       0.18308302       0.00659350      -0.00850362       0.00180843
B        0.98813091      10.92685596       4.50137912      -0.00798853      -0.00205529       0.00274634
F       -0.14524884      10.10715662       4.63377035      -0.01102865       0.00100911      -0.00989933
F        2.04546649      10.42157283       5.24642471      -0.01876163      -0.00500286       0.01532376
F        1.34894064      11.02362208       3.15144314       0.00828916      -0.00431649       0.00686669
F        0.65662212      12.22021362       4.97036019      -0.00973767      -0.00122058      -0.00253510
B        7.46365978      10.01009935       9.71827798      -0.01699808      -0.01807551       0.00052520
F        7.68302129      10.50166145       8.43790949      -0.02693571      -0.01359606       0.00169861
F        8.47414808      10.47756651      10.58454939      -0.01433861      -0.01311684      -0.00627011
F        6.21791174      10.45445242      10.20615080      -0.01676798      -0.02820143       0.01115531
F        7.47120405       8.60449253       9.72340920      -0.00757702      -0.01760745      -0.00428976
O        5.24804371       0.12180228       5.84719555       0.00419655      -0.00835356      -0.00241016
O        6.28676380       0.95166979       7.62458890      -0.00514654      -0.00348182       0.00048769
O        7.40985053       0.73223798       5.69174330      -0.00190210       0.01214033       0.00155014
C        4.22123717       0.23885950       6.86340846       0.00280195      -0.02469304      -0.00195050
C        5.03486647       0.43562371       8.13262236       0.00138104      -0.02009177      -0.00138688
C        6.40396836       0.60575253       6.33310021      -0.00046843       0.00129610      -0.00018004
H        3.61655317      -0.66272523       6.83595233       0.01003522      -0.02964592      -0.00681033
H        3.60969628       1.10620422       6.61691074      -0.00703129      -0.03104931       0.00173961
H        4.61266805       1.17930983       8.80558313      -0.00636981      -0.02779499       0.00195906
H        5.25305815      -0.48398275       8.67177704       0.01256604      -0.01995546      -0.00630164
O       10.61098349       7.30385930       8.89537073       0.00259417       0.00093836      -0.00119448
O       12.11755112       7.65491007       7.30594236      -0.00925291      -0.00635338      -0.01406121
O       11.83433717       5.57510876       8.12665253      -0.00664568      -0.00275803      -0.00491413
C       10.38594189       8.66403516       8.46582821       0.00344622      -0.00011142      -0.00375912
C       11.65737655       8.96593407       7.68879229       0.00138187      -0.00451392      -0.00868231
C       11.55145263       6.73748331       8.09655733      -0.00481895      -0.00493038      -0.00662552
H       10.23401786       9.28143335       9.34763620       0.00631548       0.00262830      -0.00553894
H        9.49020276       8.68300704       7.84853224       0.00192374      -0.00117084      -0.00181067
H       11.50278153       9.54680454       6.78339496       0.00314791       0.00158951      -0.00450373
H       12.43242762       9.42946882       8.30207589       0.00817868      -0.00787626      -0.01498365
O        3.96208542       8.27367717       4.86887806       0.00590533       0.01236594      -0.00071830
O        2.03851463       7.21960437       5.24793016       0.02451229      -0.01975745       0.00085548
O        3.43236458       7.64255906       6.96810723       0.03027624      -0.02223848      -0.00550413
C        3.36346622       8.13725366       3.58337405       0.00031769       0.01548031       0.00171359
C        1.95577795       7.62847303       3.88273547       0.00950128      -0.00302836       0.00774074
C        3.16285691       7.71244628       5.81020411       0.02175254      -0.01129805      -0.00220311
H        3.94606185       7.41786192       3.00844841       0.00480422       0.02631000      -0.00697695
H        3.36139031       9.10441350       3.08389143      -0.01283164       0.02040237       0.01166603
H        1.20966680       8.41066387       3.78674708       0.00143713      -0.01030499       0.02208462
H        1.66389637       6.76933089       3.27927087       0.01374334       0.00286824      -0.00012243
O        9.44733503       9.22138521       2.43264194       0.01205266       0.00372551       0.00347611
O       11.51961159       8.46550772       2.24514019       0.00942910      -0.00070518      -0.00355853
O       10.98915346      10.44689171       1.33753339       0.00935030      -0.00151384      -0.00593019
C        9.38828966       7.86450295       2.91649794       0.01106596       0.00499912       0.00636345
C       10.85300315       7.51219802       3.09713130       0.01066417       0.00216089       0.00102003
C       10.68494598       9.45877165       1.94998283       0.01000519      -0.00068676      -0.00136590
H        8.90317608       7.26059401       2.15241795       0.00630918       0.00467667       0.00995824
H        8.80597901       7.83539365       3.83182101       0.01502270       0.00838686       0.00883502
H       11.19470626       7.66461385       4.12084979       0.01471700       0.00422196      -0.00087416
H       11.10270832       6.51434827       2.75048349       0.00723445       0.00129777       0.00166416
O       11.80740519       2.08245266       2.95306913      -0.00348482      -0.00326969      -0.00091344
O       10.32521760       1.40122304       4.47220906      -0.00571564       0.00561047       0.00068671
O       11.55373891       3.23725459       4.86945006      -0.00457618       0.00425184      -0.00587589
C       11.17370101       0.94660003       2.35741321      -0.00471240      -0.00406600       0.00452130
C       10.25795393       0.39004582       3.44924559      -0.00877294       0.00383481       0.00417829
C       11.25342424       2.31679740       4.17103287      -0.00437485       0.00292677      -0.00365764
H       11.92260844       0.21019594       2.04150024      -0.00464268      -0.00433794       0.00897114
H       10.49239789       1.44287214       1.57918308       0.00035623      -0.00807871      -0.00039134
H        9.22211008       0.27612581       3.14360361      -0.00752252       0.00667532      -0.00002629
H       10.62847662      -0.54520402       3.85761229      -0.01429412       0.00238889       0.00439739
O        8.89206245       2.95074219       2.42064177       0.00015275       0.00520304      -0.00344348
O        9.03400085       4.96823520       3.32551904       0.00449339       0.00303322       0.00032556
O       10.16268528       4.52236042       1.43883422       0.00722170       0.00237775       0.00342542
C        7.88129921       2.97368676       3.46983903      -0.00269729       0.00691468      -0.00665747
C        8.29470387       4.17561108       4.29090026      -0.00166940       0.00450811      -0.00387603
C        9.42736035       4.18045756       2.32705129       0.00507772       0.00393157      -0.00072065
H        7.90912131       2.03824609       4.01825667      -0.00683247       0.00652781      -0.00746036
H        6.91973263       3.10951607       2.99033970      -0.00078744       0.01023127      -0.00927341
H        7.45425482       4.76863550       4.63560024      -0.00076282       0.00689992      -0.00638585
H        8.98105288       3.93259461       5.09970045      -0.00593776       0.00091089      -0.00169724
O        6.95493063      12.63430016      -0.04593455       0.00608907      -0.00512230      -0.00274245
O        8.23258207      11.25937664       1.11284469       0.00051302      -0.00781404      -0.00018301
O        9.15533613      12.93314712      -0.05727095       0.00196147      -0.00807940      -0.00930119
C        6.02925579      11.74704354       0.63988268       0.00226438       0.00300278       0.00096518
C        6.93462480      10.61702197       1.10790059      -0.00335021      -0.00025094       0.00382897
C        8.17868184      12.28872545       0.30600008       0.00620539      -0.00773484      -0.00237200
H        5.27427152      11.44527501      -0.07706824      -0.00047350       0.00326087       0.00357848
H        5.60127808      12.30482311       1.47220275       0.00601149       0.00842047      -0.00082409
H        6.73357870      10.26330159       2.11451833      -0.00189095       0.00533216       0.00566116
H        6.98446596       9.79356499       0.39978404      -0.00848656      -0.00237966       0.00652814
O        0.57525671       1.81323064      12.27349395       0.00152571      -0.01014728       0.00960338
O        2.36432620       2.56072885      11.18308927      -0.00222439      -0.00807188       0.00619157
O        2.33299983       0.42541153      11.89946260       0.01584783      -0.02998585       0.00754219
C        0.18982926       3.13583394      11.76628538       0.00074357      -0.00933194       0.01195021
C        1.51881520       3.73090935      11.35441082      -0.00313532      -0.00819975       0.00862947
C        1.82873544       1.48939553      11.77413009      -0.01129001       0.02954131      -0.00000945
H       -0.32971166       3.65758271      12.55983929       0.00102943      -0.00928821       0.01549694
H       -0.47323552       2.97656353      10.91834103      -0.00480056      -0.00769310       0.01466456
H        1.46897528       4.26953325      10.41306171      -0.00802575      -0.00480826       0.00804707
H        1.95186470       4.36608168      12.12613665      -0.00213060      -0.00423452       0.00663337
O        4.82079595       2.35983382       3.02127132      -0.00111613       0.00040486       0.00516045
O        3.33922713       2.36342741       4.67277340       0.00565612       0.00164313       0.01102148
O        5.38483372       3.22304370       5.03417740       0.00567180       0.00278193       0.00090587
C        3.57625101       1.92826229       2.43839029      -0.00304837       0.00111317       0.00994992
C        2.79407668       1.49315741       3.65106029      -0.00059909       0.00426283       0.01290590
C        4.58354961       2.69643473       4.31868139       0.00457329       0.00226566       0.00627929
H        3.76606819       1.13462892       1.72280970      -0.00536405      -0.00169745       0.01209505
H        3.11902517       2.78339434       1.93178773      -0.00275110      -0.00017446       0.00892803
H        1.72886967       1.65786795       3.58909722      -0.00000215       0.00854093       0.01585667
H        2.99996610       0.46252251       3.93232141      -0.00413147       0.00354195       0.01204190
O        5.56582628       5.17173634       2.22994135       0.00703132       0.00595655      -0.01494893
O        6.09860633       7.13976464       1.33244527      -0.00320795       0.01049887      -0.00979656
O        6.48537391       6.77031025       3.52437203       0.00310239       0.00631246      -0.01121944
C        5.36215530       5.00827933       0.81919650       0.00641642       0.00920498      -0.01539357
C        5.36801924       6.44455579       0.30703376      -0.00242569       0.01044926      -0.01055038
C        6.09041249       6.40081121       2.46755404       0.00166407       0.00680611      -0.01365417
H        4.41706950       4.49316939       0.66408217       0.00969452       0.00390810      -0.01586854
H        6.17695352       4.40179924       0.41855418       0.00989714       0.01585339      -0.01809882
H        5.88268713       6.58967255      -0.63899015      -0.00578874       0.01687528      -0.01128152
H        4.36352640       6.86708745       0.25063917      -0.00439286       0.00567700      -0.00638058
O       10.12229896       1.46280280       9.15607889       0.00673768       0.00455350       0.01047716
O       11.99836487       0.51398726       8.48023524      -0.00600404      -0.00896956      -0.00384971
O       11.40509005       0.28175519      10.59308127       0.00835483      -0.00509109       0.00040019
C       10.13846250       1.64469123       7.69319738      -0.00140202       0.00872703       0.01110157
C       11.59070315       1.38022391       7.36969270      -0.00636467      -0.00346869       0.00046682
C       11.16467360       0.72534552       9.47532851       0.00308710      -0.00316637       0.00239298
H        9.83202649       2.66333880       7.48192745       0.00582629       0.01179448       0.01567435
H        9.44166304       0.92435802       7.26626750      -0.01023242       0.01592982       0.01386994
H       11.77485061       0.83466397       6.45540362      -0.01791856      -0.00360271      -0.00137967
H       12.20008023       2.28283175       7.41253928       0.00243548      -0.00967371      -0.00264867
O       10.19037943       7.15200138      11.88046602       0.02342036      -0.00981438       0.01335669
O       11.12585839       5.35353591      10.97773630      -0.00491853      -0.01312989      -0.00724137
O       12.42663827       6.84882705      12.00908943       0.01947808      -0.04077893      -0.00109828
C        9.08471739       6.41338604      11.33089363       0.01110533       0.00884059       0.01347490
C        9.73656712       5.17886093      10.69679791      -0.00851674       0.00484538       0.00215152
C       11.34057196       6.49462966      11.65748224       0.01343405      -0.02303958       0.00136325
H        8.57069960       7.05367132      10.61838503       0.01859090       0.02073178       0.01953369
H        8.42321501       6.15136474      12.15745699       0.01009417       0.01278299       0.01379368
H        9.41411820       4.24694385      11.16280081      -0.01609762       0.00570530      -0.00150141
H        9.62697338       5.13658366       9.61724953      -0.01598454       0.01371576       0.00284445
O        6.96531803       6.14995355       7.22493329      -0.00057691       0.01805181      -0.01858083
O        8.61919329       4.69208675       7.50203649      -0.01148693       0.00838506      -0.00595766
O        9.00804156       6.62024326       6.39956091       0.00817370       0.00438094      -0.00508666
C        6.41670005       5.11903171       8.06051023      -0.01076162       0.02379829      -0.01829271
C        7.43157811       3.99330056       7.91909638      -0.01820858       0.01516908      -0.01139177
C        8.26149664       5.90221731       6.99006715      -0.00113618       0.00927544      -0.00884068
H        5.42666593       4.86765193       7.69144745      -0.01175329       0.02967158      -0.01903304
H        6.35067572       5.50838516       9.07892062      -0.00945322       0.02511212      -0.01878726
H        7.64835326       3.46466734       8.84595218      -0.02510799       0.01181531      -0.00539827
H        7.15993379       3.27431983       7.14760633      -0.01894417       0.01784775      -0.01565570
