142
Lattice="11.866810229667308 0.0 0.0 0.0 11.866810229667308 0.0 0.0 0.0 11.866810229667308" Properties=species:S:1:pos:R:3:forces:R:3 energy=-168034.734375 stress="-0.0005370714352466166 -0.0003777661913773045 -0.0003150779666611925 -0.0003777661913773045 -0.0019406465580686927 0.0004847171949222684 -0.0003150779666611925 0.0004847171949222684 -0.0018964208429679275" pbc="T T T"
Co      10.98157528      10.94618091      -0.59068404       0.00690034      -0.00638691      -0.00008446
O       11.30808313       5.91398833       2.63723880       0.00672585      -0.00381303      -0.01081634
O       11.08360468       8.48521946       1.71647894       0.00182816      -0.00115765       0.00870436
O        9.03568393       6.65925549       1.48136532       0.00755787       0.00198156       0.00801193
O       11.21567079       6.28883100       0.02622666      -0.00725740       0.01081687      -0.00628972
Cr      10.64690688       6.75464239       1.44552863      -0.00665018      -0.00194156       0.00258550
Cr      10.70964863      10.14717400       1.49502290       0.00398387       0.00206327      -0.00030422
O       12.12414945      10.72788523       0.69385517       0.00700206      -0.00663924      -0.00125718
O        9.52727742      10.42290042       0.26783872       0.00882262      -0.00295469      -0.00055909
O       10.55016290      11.06011374       2.77521233       0.00660126       0.00152051      -0.00331700
O        5.38547510       0.88536520       6.54723941      -0.00102369      -0.00260377       0.00543934
C        4.88294213       2.13821878       7.06887102      -0.00143425      -0.00067508      -0.00055972
C        5.65665337       3.28567422       6.47402151      -0.00527588      -0.00317919      -0.00953969
C        3.38637350       2.22487177       6.85045119      -0.00212586      -0.00422831       0.00376412
H        5.08764513       2.07939862       8.14097499       0.00226671       0.00609229      -0.00075209
H        5.32974057       4.23031692       6.90227941      -0.00707383      -0.00086816      -0.01632783
H        6.72062461       3.18298093       6.67737062      -0.00499052       0.00131805      -0.00977032
H        5.52235493       3.34255654       5.39232717      -0.00648541      -0.01286430      -0.00999919
H        2.99450937       3.15525283       7.26270689      -0.00235806      -0.00271857      -0.00038867
H        2.86441620       1.39134254       7.32001264       0.00056433      -0.00230779       0.00965141
H        3.15468165       2.22044915       5.78175677      -0.00546761      -0.01046955       0.00447261
H        4.97361750       0.72803701       5.69088704      -0.00667197      -0.01042688       0.00920922
O        3.73748556       5.02211668       9.54012291       0.01077777      -0.00166619       0.00791764
C        4.09234659       6.40300108       9.35487285       0.00652449      -0.00206903       0.00137943
C        5.12768959       6.54194129       8.25602730       0.00343597      -0.00338483      -0.00127429
C        2.86461509       7.26355572       9.11298315       0.00505126      -0.00477773       0.00138929
H        4.55924631       6.68468284      10.30366033       0.00834772       0.00191705      -0.00014001
H        5.48222422       7.56815584       8.21045823       0.00835915      -0.00505558       0.00119141
H        5.98675672       5.89853184       8.44672770       0.00016895      -0.00918110      -0.00773352
H        4.69135701       6.30169940       7.28614295      -0.00153236       0.00296542      -0.00059116
H        3.13631480       8.32097989       9.08039987       0.00289481      -0.00441922       0.00143078
H        2.11866331       7.12109834       9.89592618       0.00450420      -0.00609272       0.00040127
H        2.42074298       7.02640720       8.14395743       0.00632590      -0.00600727       0.00092353
H        2.98040033       4.83535738       8.97724064       0.00808661      -0.00634070       0.00971359
O        3.02397328       6.93819381       5.68001233      -0.00021390      -0.00287247      -0.00203502
C        2.22793199       5.74831605       5.69219637       0.00038534      -0.00317392      -0.00049004
C        0.75073797       6.07927054       5.74986557       0.00088567      -0.00359543       0.00437243
C        2.54642700       4.87311982       4.49675268      -0.00320543      -0.00253370      -0.00160480
H        2.53424867       5.23694107       6.61127343       0.00370210      -0.00352812      -0.00162709
H        0.15492009       5.17217012       5.86584779       0.00128873      -0.00349094       0.00529836
H        0.53050535       6.75581702       6.57782629       0.00310640      -0.00421761       0.00549863
H        0.43821244       6.53779485       4.80922884      -0.00151994      -0.00258121       0.00566185
H        1.98129913       3.94071828       4.54207640      -0.00101576      -0.00345764       0.00111350
H        3.61329265       4.65178435       4.45017752      -0.00319271      -0.00046309      -0.00634687
H        2.24267344       5.38450027       3.58310840      -0.00849020      -0.00321935      -0.00026119
H        2.70112670       7.49089123       4.96002578      -0.00550668      -0.00074308       0.00183488
O        1.61137845       0.89658531       2.66227794      -0.00567070      -0.00118147       0.00070047
C        2.44246579       1.30794658       1.57379155      -0.00782323      -0.00363645      -0.00152138
C        2.38449307       2.81223449       1.36820241      -0.00743012      -0.00427568      -0.00387113
C        3.86652418       0.81189934       1.76784168      -0.00817901      -0.00502893      -0.00404532
H        2.00409540       0.80159731       0.71195430      -0.01045403      -0.00486174       0.00052184
H        2.93175250       3.10987235       0.47103715      -0.00814599      -0.00582902      -0.00464141
H        1.35481335       3.15882005       1.28092885      -0.00746861      -0.00415266      -0.00338505
H        2.84478521       3.32517641       2.21666632      -0.00694588      -0.00293193      -0.00507388
H        4.49530875       1.06153060       0.91147555      -0.01025790      -0.00817290      -0.00632164
H        3.88474645      -0.26947666       1.90282086      -0.00944809      -0.00469291      -0.00158251
H        4.31341048       1.28334224       2.65017370      -0.00523665      -0.00388306      -0.00643548
H        1.90256902       1.34960695       3.46025084      -0.00406089       0.00168677      -0.00060248
O        0.68694214      11.25675734       5.18644836       0.00487041      -0.00459409       0.00004417
C        1.56713705      10.13519971       5.08842376       0.00645888      -0.00154790      -0.00126562
C        1.34788866       9.38283404       3.79227198       0.01364473       0.00064084      -0.00347495
C        3.00274857      10.60468451       5.24870357       0.00476384       0.00039345       0.00619207
H        1.33878825       9.47247612       5.93614251       0.00471346      -0.00461307      -0.00335830
H        2.09655197       8.60118007       3.63350725       0.01802801       0.00531869      -0.00372576
H        0.36506466       8.91676215       3.76122975       0.01610357      -0.00349101      -0.00795166
H        1.43745872      10.06871174       2.94758907       0.01259064       0.00363569      -0.00154288
H        3.67720664       9.74881202       5.32043079       0.00615356       0.00181977       0.00569774
H        3.10760606      11.19242960       6.15995273       0.00000582      -0.00237766       0.00823635
H        3.29123658      11.21105954       4.38619072       0.00655378       0.00395627       0.00891265
H        0.19207015      11.33638490       4.35883961       0.00559702      -0.00320685      -0.00329946
O        5.15633080      11.36134569       8.85129355       0.00375116      -0.00450397       0.00444277
C        6.30171104      10.52625290       8.88705481       0.00506842      -0.00188619       0.00443575
C        6.10738740       9.57397627      10.04883915       0.00765847      -0.00093821       0.00503200
C        6.49841558       9.84469952       7.53646903       0.00618375      -0.00254741       0.00511146
H        7.19769473      11.13917796       9.09526444       0.00414091      -0.00004029       0.00345209
H        6.94631580       8.88677491      10.16742849       0.01065893       0.00282817       0.00699186
H        5.99241975      10.13527628      10.97517051       0.00395037      -0.00077020       0.00400129
H        5.19583567       8.99841262       9.88754307       0.01070283      -0.00566995       0.00459725
H        7.28569686       9.08877620       7.57024139       0.00732522      -0.00141215       0.00612252
H        6.76474690      10.57861835       6.77468806       0.00510440      -0.00331405       0.00433679
H        5.56905142       9.36489361       7.22594613       0.00711238      -0.00455281       0.00582620
H        5.14501949      11.77934394       7.97149529       0.00438081      -0.00141445       0.00543756
O        7.34354406       4.12839504       9.77812024      -0.02288496      -0.00298417       0.00186664
C        7.72324634       3.28925341      10.88013009      -0.01078856       0.00136757       0.00360055
C        6.81339761       2.07582381      10.93400936       0.00297266      -0.00626725       0.01062990
C        9.18264561       2.93335999      10.68602265      -0.00804460       0.01254204      -0.00617122
H        7.63170412       3.86053114      11.81328568      -0.01464899       0.00591961       0.00041783
H        7.08324790       1.41089076      11.75599201       0.00525733       0.00154808       0.01431008
H        5.77367719       2.38326545      11.07459526       0.00077842      -0.01369018       0.00230663
H        6.86824848       1.51464025       9.99888288       0.00990217      -0.01073314       0.01378773
H        9.51370209       2.25309780      11.47294564       0.00097802       0.01665492      -0.00462478
H        9.80745270       3.82614280      10.71779488      -0.01540728       0.01727426      -0.01115372
H        9.31956765       2.44443444       9.71720357      -0.01070331       0.00927504      -0.00501338
H        6.38183879       4.18794545       9.77772048      -0.01967035       0.01877994       0.03733363
O       10.49743547      10.97502191       9.46676245       0.00785661       0.00121403      -0.00103247
C       10.07418203       9.72020984       8.78854636       0.00512689       0.00499222      -0.00504876
C       10.25082817       9.93204892       7.30729853      -0.00265834       0.01303300      -0.00470656
C       10.90536758       8.59661633       9.35581982       0.00900614       0.00303707      -0.01475269
H        9.02421316       9.57471876       9.05281185       0.00710976       0.00298890      -0.00030346
H       10.01111607       9.01403513       6.77372193      -0.01057642       0.01758902      -0.00868057
H        9.59375904      10.71532447       6.92425777      -0.00198695       0.01814425       0.00470391
H       11.27755857      10.20855496       7.07111072      -0.00364673       0.01014750      -0.01010649
H       10.64494236       7.67213464       8.83811473       0.00697092       0.00589216      -0.01855528
H       10.71659566       8.42951727      10.41564557       0.01432376      -0.00266786      -0.01498982
H       11.96943554       8.78329385       9.20555388       0.00811072       0.00482605      -0.01940194
H        9.96522934      11.71217442       9.13940280       0.00541186       0.00304925       0.00397855
O        7.25421724       5.64997219       5.52267975      -0.00282562       0.00223586      -0.00670524
C        8.66696922       5.77683371       5.73595730      -0.00292534       0.00047678      -0.00378537
C        9.18001607       7.03572902       5.06899531       0.00047834      -0.00197196      -0.00515464
C        8.99252325       5.71510660       7.21843359      -0.00660448       0.00308471      -0.00303662
H        9.09318633       4.90707412       5.22942465      -0.00335684      -0.00138909      -0.00071585
H       10.24901454       7.16608429       5.22901411      -0.00000966      -0.00288401      -0.00215625
H        9.00653189       7.00172805       3.99663009       0.00344597      -0.00451696      -0.00548559
H        8.66391343       7.91056658       5.47494039       0.00052849      -0.00030707      -0.00878935
H       10.07194459       5.74145960       7.37952619      -0.00682607      -0.00146005      -0.00118570
H        8.59221867       4.81662058       7.68580713      -0.01160961       0.00667965      -0.00141163
H        8.55908887       6.57427460       7.74161803      -0.00316549       0.00704291      -0.00672802
H        6.82735289       6.37080000       5.99737019      -0.00273599       0.00257781      -0.00903874
O        4.45631637       8.15261689       0.92510513      -0.00191579      -0.00249916      -0.00235808
C        4.03411712       6.90823338       1.50734559      -0.00491109       0.00009727       0.00131957
C        2.64584826       6.54096532       1.01887500      -0.00387305       0.00046623      -0.00126791
C        5.06715793       5.81700272       1.26233407      -0.00601214      -0.00186992       0.00713894
H        4.00468949       7.11845590       2.58199181      -0.00698982       0.00350586       0.00022024
H        2.24716247       5.66591371       1.52929388      -0.00691505       0.00314976       0.00073215
H        1.94684531       7.36398943       1.16890104      -0.00287932       0.00211154      -0.00626113
H        2.66932935       6.29373926      -0.04362104      -0.00077885      -0.00331901      -0.00014456
H        4.81614925       4.92028507       1.83263919      -0.00749690       0.00105724       0.01099651
H        6.06466113       6.14614218       1.55540275      -0.00622322      -0.00173396       0.00710604
H        5.09053621       5.53850443       0.20598718      -0.00528105      -0.00621858       0.00842041
H        4.27726294       8.11238805      -0.01895621      -0.00682389      -0.00220877      -0.00071111
O        8.59173117       9.15157272       2.53025956      -0.00152579       0.00658780      -0.00164056
C        7.52159766       9.80249069       3.20471415      -0.00043207       0.00403440       0.00172932
C        7.01231595      10.96959842       2.37313122       0.00289121       0.00914884       0.00795722
C        6.40846936       8.82548714       3.53513163      -0.00194848       0.00435042      -0.00353374
H        7.95565309      10.20216809       4.13058616      -0.00049272      -0.00142050       0.00427443
H        6.28440328      11.55256731       2.94116850       0.00328585       0.00757042       0.00967645
H        7.83952791      11.61802902       2.08745490       0.00430560       0.00907354       0.01211797
H        6.52522714      10.59807392       1.47007546       0.00365177       0.01467446       0.00476012
H        5.62526715       9.32446813       4.10901141      -0.00032265       0.00198644      -0.00023603
H        6.77372009       7.97377606       4.10844973      -0.00303254       0.00033502      -0.00946473
H        5.95996117       8.46076717       2.61108073      -0.00309316       0.01062742      -0.00589579
H        8.33979912       8.29392840       2.14666569       0.00062379       0.00167033       0.00497280
