145
Lattice="13.113933724237175 0.0 0.0 0.0 13.113933724237175 0.0 0.0 0.0 13.113933724237175" Properties=species:S:1:pos:R:3:forces:R:3 energy=-121152.8828125 stress="-0.0006787458551116288 0.0005321846983861178 -0.0004907146794721484 0.0005321846983861178 -0.001988248899579048 -9.677959678811021e-05 -0.0004907146794721484 -9.677959678811021e-05 -0.0022425143979489803" pbc="T T T"
Cr      13.25127192      12.24769971      -0.39586556       0.00287759      -0.00726942      -0.00548220
O        1.82720091      13.06194340       5.67734119       0.01560020       0.02912472      -0.00748587
O        3.84541809      12.84660610       4.89478195       0.01691008      -0.00034872      -0.00037318
O        2.17461486      13.18707571       3.54898505       0.01393867      -0.00253177      -0.00830626
N        2.62400315      13.03438306       4.72013733       0.01101604       0.01035574      -0.00864443
O        3.22840326      12.48422672       1.47596835      -0.02135986      -0.02559882       0.00434142
O        0.80782395      13.65991412      -0.26397873       0.01263592      -0.00955701      -0.00619510
O        0.91616642      11.03502784       0.23317255      -0.00088322      -0.01478112      -0.00832525
N        3.66443601      13.10294509       0.67943123       0.01886934       0.00868255      -0.02098739
O        7.57927503      12.28863792      12.79758507      -0.02248907       0.00854295       0.00212440
O        5.84242786      12.89043874      11.64148554      -0.03856623       0.00802171       0.02902412
O        5.68396686      12.53891642      13.79088312      -0.00737822      -0.01468053       0.02728856
N        6.38657234      12.57908610      12.69579650      -0.02255899       0.00152262       0.02064073
C       12.25456517      10.67005744      10.56285250      -0.00617278       0.00944053      -0.00023815
C       11.65553036       9.59879219      11.19739243      -0.00138757       0.01007795       0.00520242
C       12.03833976      11.99883223      11.01256009      -0.00303846       0.00954885       0.00018474
C       10.78810004       9.80615625      12.27241504       0.00590365       0.01130384       0.01025230
C       11.17171103      12.20472607      12.14746238       0.00315030       0.01109273       0.00371527
C       10.53644684      11.08362723      12.73742578       0.00688809       0.01196864       0.00906414
H       12.91652690      10.49885255       9.72608013      -0.01166009       0.00876585      -0.00416312
H       11.84546633       8.59190632      10.84690420      -0.00235037       0.00990307       0.00597191
H       12.27722779      12.82892767      10.35758573      -0.00190070       0.00929141       0.00106502
H       10.29800198       8.95726964      12.73417191       0.01173380       0.01156733       0.01615443
H       10.78797230      13.19357214      12.36998670       0.00662335       0.01148437       0.00617659
H        9.83424978      11.24441823      13.54392913       0.01306687       0.01306996       0.01405737
C        8.86273459       8.73622319       7.21367894      -0.00109692       0.00980233       0.01273332
C        9.99199941       8.12981547       7.75023409      -0.00272749       0.00025046       0.00439192
C        8.97691982       9.95612362       6.55561723       0.00398494       0.00911723       0.01294694
C       11.23334452       8.74309304       7.62643073       0.00099719      -0.00978700      -0.00397313
C       10.22047771      10.56451437       6.43026993       0.00753806      -0.00072588       0.00463697
C       11.35113501       9.95900527       6.96355153       0.00598679      -0.01051585      -0.00393866
H        7.89562721       8.25690166       7.30553139      -0.00404021       0.01792254       0.01938438
H        9.90347978       7.17762350       8.25867183      -0.00652763       0.00077267       0.00423988
H        8.09609872      10.42782914       6.13607148       0.00502767       0.01654671       0.01996715
H       12.11197389       8.27201089       8.04776859      -0.00016471      -0.01717214      -0.01069995
H       10.31913353      11.50985841       5.91470298       0.01123126      -0.00102758       0.00519536
H       12.31687351      10.43591548       6.85384844       0.00892097      -0.01885717      -0.01059181
C        1.89788120       9.90908544       3.61094663      -0.01172434       0.00881508       0.00408615
C        1.13614641       8.74909618       3.68603588      -0.01150909       0.00902702       0.00859213
C        3.26581656       9.82238637       3.37248272      -0.01345576       0.00781751      -0.00227812
C        1.73784937       7.50538309       3.53091439      -0.01259211       0.00916442       0.00686969
C        3.86500650       8.58072701       3.20207182      -0.01390906       0.00803359      -0.00308109
C        3.10154158       7.42254425       3.28905237      -0.01375704       0.00845100       0.00119470
H        1.43860498      10.88093842       3.73934482      -0.01020379       0.00922480       0.00475723
H        0.06963145       8.81408404       3.86604856      -0.01051551       0.00935403       0.01308141
H        3.86060663      10.72738199       3.36043485      -0.01325354       0.00811747      -0.00622143
H        1.14470556       6.60061312       3.58437958      -0.01263122       0.00948939       0.01011538
H        4.93014277       8.50770476       3.01585204      -0.01513430       0.00776873      -0.00774127
H        3.56992651       6.45745852       3.15476643      -0.01488783       0.00825831      -0.00048534
C        9.29327933       2.05911914       1.99599890       0.01228190      -0.00788210       0.00185692
C       10.32840163       1.86116794       2.90251869       0.01081198      -0.01685360      -0.00032249
C        8.14281733       1.28315584       2.07215112       0.00854450      -0.00080657       0.00236997
C       10.20891078       0.89232099       3.89099475       0.00739571      -0.01873162      -0.00386102
C        8.02034823       0.31022172       3.05541807       0.00456314      -0.00304841      -0.00095817
C        9.05297819       0.12227150       3.96483502       0.00398353      -0.01299937      -0.00318499
H        9.36912451       2.83057294       1.24038891       0.01810035      -0.01039292       0.00035687
H       11.21813598       2.47659124       2.85127478       0.01225305      -0.02091713      -0.00172781
H        7.33467511       1.43784553       1.37248169       0.00917946       0.00622413       0.00362532
H       11.00228898       0.76053654       4.61612291       0.01320174      -0.02230323      -0.01270641
H        7.11597740      -0.28179306       3.11148582       0.00324753      -0.00082141      -0.00493216
H        8.94067431      -0.61193673       4.75142255      -0.00276066      -0.01700108      -0.00850803
C        7.45011999       7.57904407       4.04193970       0.00219703       0.00363041       0.00244722
C        7.90612609       7.58670309       2.72845657       0.00135999       0.00580260       0.00234923
C        6.55286098       6.60397718       4.45733078       0.00307226       0.00254857       0.00140050
C        7.46913195       6.61384985       1.83781841       0.00121470       0.00730663       0.00105955
C        6.09339313       5.65098840       3.55902090       0.00327148       0.00361410       0.00024856
C        6.55749321       5.64843717       2.25084208       0.00217880       0.00626453       0.00004092
H        7.81177169       8.32071954       4.74038795       0.00189459       0.00276847       0.00333467
H        8.61075676       8.34372473       2.40613049       0.00042412       0.00681045       0.00322826
H        6.22615193       6.56427206       5.48816286       0.00317042       0.00150091       0.00116305
H        7.83827287       6.59430324       0.82207209      -0.00011971       0.00961113       0.00071451
H        5.39683861       4.89157772       3.89016273       0.00341000       0.00333118      -0.00077701
H        6.23104662       4.88706964       1.55435714       0.00146824       0.00803626      -0.00135998
C        6.02830239       4.00056983      12.11690630       0.00655834       0.01265433      -0.01050842
C        6.51119989       2.70336187      12.16275505       0.00617631       0.01286811      -0.00713006
C        6.89400463       5.06442874      11.90540651       0.00635044       0.01153754      -0.01436624
C        7.86425269       2.45523546      11.96541558       0.00592083       0.01170737      -0.00668267
C        8.25162715       4.82194317      11.72621412       0.00576734       0.01049291      -0.01511315
C        8.73496681       3.51627711      11.74562949       0.00582626       0.01088967      -0.01034196
H        4.96451094       4.17340377      12.19837164       0.00714508       0.01411958      -0.00845584
H        5.82094938       1.88337670      12.29123279       0.00687821       0.01316297      -0.00255525
H        6.50654821       6.07408449      11.86692018       0.00700085       0.01146685      -0.01571494
H        8.22670336       1.43437490      11.97740121       0.00489410       0.01161686      -0.00312168
H        8.93356846       5.64861775      11.56256340       0.00543601       0.00960749      -0.01952345
H        9.79027746       3.32599521      11.58994164       0.00615929       0.01187051      -0.00870778
C        7.78954645       2.51796807       5.87223940       0.01670873      -0.00516456       0.01864666
C        7.98959131       3.42228213       4.84072692       0.01056926      -0.00698699       0.01605953
C        8.55898353       2.61015699       7.02569909       0.02304447      -0.00326550       0.01398447
C        8.93796440       4.42992407       4.96498788       0.01178508      -0.00762101       0.00833446
C        9.49623187       3.62553033       7.16119612       0.02555733      -0.00478911       0.00547925
C        9.68202042       4.54275549       6.13154725       0.02016641      -0.00732656       0.00269310
H        7.03854295       1.74430079       5.77408201       0.01602428      -0.00491880       0.02473521
H        7.41753165       3.33329756       3.92923745       0.00439537      -0.00787983       0.02016643
H        8.41458797       1.89591293       7.82406185       0.02656307      -0.00046323       0.01706673
H        9.08587402       5.13136734       4.15394847       0.00654333      -0.00871526       0.00671022
H       10.07294276       3.70620199       8.07464837       0.03214108      -0.00392769       0.00095993
H       10.40302562       5.34398653       6.23740435       0.02201770      -0.00853128      -0.00343349
C        3.34382375       7.24224795      -0.00122057      -0.01279162      -0.01598758      -0.00288201
C        3.12882906       5.89912167       0.27714422      -0.01666865      -0.01452850      -0.00002150
C        2.26444508       8.10936747      -0.10223944      -0.01014281      -0.01335701      -0.00310617
C        1.83727020       5.40847988       0.42119940      -0.01777039      -0.00980547       0.00242659
C        0.97262692       7.62797382       0.06617063      -0.01140675      -0.00824839      -0.00043115
C        0.75683036       6.27657852       0.31264309      -0.01520514      -0.00706900       0.00216799
H        4.35182407       7.62253433      -0.10495974      -0.01201734      -0.01971294      -0.00608808
H        3.97456469       5.24074901       0.41592928      -0.01954666      -0.01800138      -0.00104317
H        2.41983573       9.16574890      -0.27015289      -0.00729937      -0.01451111      -0.00614541
H        1.67737898       4.35901618       0.63473339      -0.02088658      -0.00884253       0.00443107
H        0.14381734       8.32291633       0.03076756      -0.00824222      -0.00474848      -0.00000150
H       -0.25052347       5.90120169       0.44765560      -0.01556914      -0.00532372       0.00338763
C        5.56498377       8.82128541       9.80909418       0.01097208      -0.00807091       0.00185095
C        6.67218827       8.35809743      10.50932911       0.01561631      -0.00039878      -0.00104798
C        4.67107794       9.69254815      10.41969610       0.00472082      -0.01699378       0.00534061
C        6.87733185       8.75728563      11.82484176       0.01429941      -0.00253323      -0.00044881
C        4.87800405      10.08665563      11.73473072       0.00421356      -0.01988871       0.00573638
C        5.97614569       9.61457123      12.44332396       0.00818385      -0.01224306       0.00322250
H        5.39277529       8.51579487       8.78626265       0.01183821      -0.00718963       0.00150077
H        7.37200158       7.68378982      10.02985049       0.01923753       0.00550237      -0.00366494
H        3.82124299      10.06562040       9.86345253       0.00104898      -0.02347738       0.00765269
H        7.74121937       8.40238176      12.37312873       0.01729859       0.00255872      -0.00256311
H        4.18726939      10.77518073      12.20179534      -0.00190586      -0.02827965       0.00985080
H        6.13638646       9.92827881      13.46610812       0.00621159      -0.01510251       0.00405240
C        4.20068048       8.70633522       6.49122602       0.00348720       0.01062629       0.00349046
C        3.10128356       7.97310648       6.91898784       0.00944453       0.00607039       0.01035281
C        4.22656330      10.08703050       6.64144655      -0.00573123       0.01133068      -0.00489466
C        2.02454509       8.62902896       7.50391214       0.00668000       0.00187636       0.00919882
C        3.14689521      10.74521798       7.21293940      -0.00864601       0.00726250      -0.00613696
C        2.04832247      10.01152302       7.64454855      -0.00208446       0.00256377       0.00148620
H        5.02365493       8.20468119       6.00124427       0.00589857       0.01332384       0.00508171
H        3.07045285       6.90041054       6.77193658       0.01658100       0.00525457       0.01713173
H        5.06337501      10.66607612       6.27376047      -0.01138157       0.01507138      -0.01103928
H        1.16166896       8.05903551       7.82412184       0.01169302      -0.00177704       0.01530060
H        3.13829606      11.82391438       7.26412835      -0.01615098       0.00730169      -0.01377915
H        1.20058162      10.53354537       8.06941448      -0.00395460      -0.00088527       0.00151806
C        5.93162627       1.87502877       9.05865461      -0.02231222      -0.00410144      -0.01164508
C        4.70481536       1.28833551       8.78344730      -0.02262016      -0.00240937      -0.01379589
C        6.07057226       3.25679857       9.02057057      -0.01990202      -0.00459215      -0.01449716
C        3.60824854       2.08571254       8.47575810      -0.02010414      -0.00165658      -0.01970940
C        4.97342189       4.05690620       8.73372799      -0.01760067      -0.00381497      -0.02055208
C        3.74164638       3.46956434       8.46453749      -0.01753244      -0.00229773      -0.02291292
H        6.77136986       1.25047911       9.33507813      -0.02351604      -0.00456425      -0.00934120
H        4.60629041       0.21145187       8.82086567      -0.02509454      -0.00216366      -0.01350462
H        7.02655886       3.71044073       9.24658806      -0.01962389      -0.00575138      -0.01390535
H        2.65783050       1.62867802       8.23533329      -0.01952919      -0.00109649      -0.02182656
H        5.07359943       5.13631017       8.74327700      -0.01555094      -0.00418261      -0.02464676
H        2.88120676       4.09208044       8.25265726      -0.01563571      -0.00207677      -0.02883311
