136
Lattice="12.763380856065485 0.0 0.0 0.0 12.763380856065485 0.0 0.0 0.0 12.763380856065485" Properties=species:S:1:pos:R:3:forces:R:3 energy=-318399.65625 stress="0.00021583790658041835 -2.1052645024610683e-05 0.00046575716987717897 -2.1052645024610683e-05 0.00022268826432991773 0.0006607683026231825 0.00046575716987717897 0.0006607683026231825 -0.0011645624181255698" pbc="T T T"
Cr      13.18731388      11.41483287      -0.25723861       0.00457740      -0.03927246       0.00577062
Br       3.54396780       9.32692936       1.11875473       0.02108437       0.00780094       0.00011623
O        1.84760083      11.71549794       0.31430184      -0.02585053      -0.02633408      -0.02330287
O        4.58372993       8.04028629       1.09725488       0.03916609       0.02167833       0.02182893
O        2.34472937       9.01093206       2.21329956       0.02134359       0.00509295      -0.00121361
O       -0.12562446       9.98763495       0.07426206      -0.01901069       0.00998494       0.00111705
Br       0.89557865      11.36323824       6.69397478      -0.01323472       0.00676777       0.01354271
O        0.05328228       9.97473305       6.51802142      -0.00869691      -0.00515270      -0.00605950
O        0.43293318      12.11111772       8.06105144       0.01100188      -0.01391149      -0.02673578
O        2.47409010      10.99417574       6.77641967      -0.00167489       0.00114286      -0.02649051
O        0.58830720      12.34093730       5.43221610      -0.01799554      -0.00355756      -0.01347518
Br       5.57873320      11.16233427      10.70424121       0.00486159       0.00011294      -0.00182008
O        6.62406572      12.28917256      11.25109625       0.00150621       0.00312924      -0.00143886
O        6.29546702      10.25337866       9.57524394       0.00088191       0.01439106      -0.01598883
O        5.16742839      10.19976885      11.95951972       0.02394733      -0.01432633      -0.00635922
O        4.25789395      11.89630850      10.12814980      -0.00582218      -0.00534624       0.01676488
O        9.60887897      10.44392543       9.42344380      -0.00304794       0.00623914      -0.00351247
C       10.57594975      11.00051947       8.54877302      -0.00172116       0.00848134      -0.00134349
C       10.14367783      10.13288278      10.67919422      -0.00262268       0.00487570      -0.00476700
C        9.91708287      11.26313036       7.22087398       0.00051948       0.00775745      -0.00248212
C        9.01911717       9.67097177      11.56452644       0.00093561       0.00122468      -0.00158888
H       10.97163877      11.92794585       8.97792867      -0.00438994       0.00924301      -0.00034130
H       11.42754848      10.32234197       8.43654336      -0.00012445       0.01047468       0.00078425
H       10.94114232       9.37759596      10.58648763      -0.00054944       0.00790495      -0.00572844
H       10.63566783      11.03124035      11.11713364      -0.00647151       0.00662982      -0.00347963
H       10.62284007      11.74519640       6.54576071      -0.00028434       0.01205657      -0.00024264
H        9.58640248      10.32982718       6.76330450       0.00639395       0.00667343      -0.00448357
H        9.04483782      11.90004804       7.36754806      -0.00251304       0.00351244      -0.00312750
H        9.39213711       9.42233226      12.55504683       0.00479931      -0.00004569      -0.00342160
H        8.27001344      10.45549914      11.64904550       0.00008374      -0.00024226       0.00314805
H        8.53321543       8.79353469      11.13745518       0.00137860       0.00037447      -0.00024863
O        8.21176948       6.32237243       7.86616979      -0.00066335       0.00511801       0.00268298
C        9.09875850       7.42852164       7.84942242      -0.00057310       0.00492202      -0.00337312
C        6.90845320       6.68331582       7.44005317      -0.00087905       0.00336418       0.00205582
C       10.41914479       6.99728577       8.43845123       0.00000602       0.00778396      -0.00250998
C        6.03619692       5.45319721       7.45481075      -0.00079682       0.00335318       0.00574522
H        9.23451037       7.77187057       6.81245240      -0.00141141      -0.00029281      -0.00517118
H        8.67431652       8.26671361       8.41487122       0.00007978       0.00768477      -0.00712413
H        6.50699158       7.46640317       8.09850066      -0.00086918       0.00527376      -0.00024909
H        6.95938971       7.11308546       6.42641498      -0.00132356       0.00015348       0.00066972
H       11.13938422       7.81431622       8.38219489       0.00055695       0.00684752      -0.00924955
H       10.29489139       6.70345500       9.48163364       0.00165970       0.01483952      -0.00030430
H       10.82253474       6.14432250       7.89134459      -0.00163189       0.00386691       0.00242279
H        5.02480317       5.71103145       7.13304267      -0.00137964       0.00313086       0.00745349
H        6.43635892       4.69278607       6.78094854      -0.00247084       0.00236985       0.00584549
H        5.99758581       5.01987995       8.45545939       0.00112618       0.00468689       0.00631374
O        5.45365507      11.19059062       2.96460923      -0.00914937       0.00143439      -0.00377142
C        6.86248147      11.13472576       2.98956812      -0.00925916      -0.00671478       0.00315690
C        4.90699513      11.70279462       4.17629020      -0.01380700       0.00182621      -0.00618231
C        7.36314380      10.81083697       1.60713524      -0.00349230      -0.00404727       0.00453562
C        3.43881756      11.96186248       3.97941607      -0.01124620       0.01040947      -0.01654270
H        7.25478613      12.10697747       3.32268468      -0.00594190      -0.01034975       0.00947282
H        7.20004296      10.38659160       3.72595732      -0.01769957      -0.01172519       0.00169092
H        5.07392746      10.98616442       4.99446918      -0.02307864       0.00089395      -0.00505334
H        5.43823910      12.62849830       4.44002010      -0.01042128      -0.00165582      -0.00151821
H        8.45223671      10.74010250       1.61239017      -0.00370358      -0.00667627       0.00978813
H        6.94830936       9.86690516       1.25596202      -0.00395291      -0.00204000      -0.00029796
H        7.06183886      11.57536578       0.89113662       0.00196671      -0.00112209       0.00536363
H        3.01687921      12.40278195       4.87807895      -0.01425762       0.01457596      -0.02009183
H        3.28048972      12.63277516       3.13339996      -0.00139333       0.00984317      -0.01868673
H        2.89212069      11.03701609       3.79628059      -0.01569413       0.01345778      -0.01820697
O        2.91130575       6.94859382       6.33744131       0.00223666      -0.00030637       0.00336914
C        3.48653352       7.92752847       5.48205029       0.00528038      -0.00070352       0.00532800
C        2.28304595       7.54997386       7.46102396      -0.00102276      -0.00104955       0.00169200
C        4.17177971       7.22661589       4.33744177       0.00797376      -0.00127277       0.00739169
C        1.65683488       6.45673073       8.29297007       0.00035393      -0.00254273       0.00069237
H        2.70812174       8.60985032       5.11832291       0.00677127       0.00013757       0.00299752
H        4.19684479       8.53957295       6.05649443       0.00394267      -0.00125936       0.00780231
H        3.03057859       8.10687311       8.04409160      -0.00353903       0.00117216       0.00274611
H        1.53413921       8.27836076       7.12955268      -0.00215608      -0.00295681      -0.00018153
H        4.66300722       7.95074508       3.68815510       0.00946511      -0.00202374       0.00793995
H        4.92097266       6.52269295       4.70636991       0.00659166      -0.00166842       0.00944668
H        3.45053406       6.68644721       3.72528482       0.00919341      -0.00133225       0.00598789
H        1.17203778       6.88674388       9.17050422      -0.00167275      -0.00432153       0.00027239
H        0.90409550       5.92033327       7.71386932       0.00361790      -0.00499005      -0.00123852
H        2.40755513       5.73828432       8.62608636       0.00160722      -0.00103475       0.00093225
O        6.27687864       2.89789978       9.91110059       0.00152816      -0.00162196       0.00006074
C        4.96053487       2.39084694       9.76760933       0.00144023      -0.00171277       0.00148287
C        7.19695097       2.18274242       9.10280190       0.00085890      -0.00067870      -0.00141214
C        4.05962320       3.11074359      10.74160453       0.00259128      -0.00072196       0.00172865
C        8.56867597       2.78073581       9.30406767       0.00060481       0.00042710      -0.00306791
H        4.61805917       2.54728392       8.73162764       0.00067562      -0.00241099       0.00167590
H        4.94566683       1.31202231       9.95229640       0.00150122      -0.00146067       0.00253548
H        7.18236549       1.12224720       9.38449486       0.00212356      -0.00075620      -0.00174281
H        6.89071732       2.25540921       8.04810924      -0.00069416      -0.00058441      -0.00090796
H        3.04200465       2.72828022      10.65432480       0.00230631      -0.00007650       0.00290016
H        4.40476585       2.94825737      11.76286429       0.00342768      -0.00025502       0.00152238
H        4.04840787       4.18454791      10.54891241       0.00319936      -0.00087190       0.00104039
H        9.30801601       2.23398591       8.71631153       0.00049794       0.00070488      -0.00342030
H        8.58462895       3.82983327       9.00509675      -0.00041189       0.00028643      -0.00357240
H        8.85375414       2.71387463      10.35440076       0.00157783       0.00130956      -0.00327271
O        9.70310970       6.71637018       1.67524757       0.00612803      -0.00066787       0.00507392
C        8.39348535       7.24757577       1.79963592       0.00580168      -0.00211325       0.00465174
C       10.70670427       7.71232005       1.78623999       0.00467128       0.00121035       0.00545405
C        7.38392365       6.12614541       1.77147906       0.00738227      -0.00337285       0.00157880
C       12.06806036       7.06977277       1.70802943       0.00556540       0.00367913       0.00152026
H        8.31342246       7.81078265       2.74381189       0.00412994      -0.00391841       0.00565267
H        8.19751108       7.95532571       0.98560379       0.00585278      -0.00058374       0.00592643
H       10.60079992       8.45306301       0.98553050       0.00146362       0.00256091       0.00750655
H       10.58637147       8.25097882       2.73997269       0.00521318      -0.00137597       0.00694758
H        6.37980513       6.53493082       1.88847432       0.00706843      -0.00547169       0.00493053
H        7.42252654       5.59591333       0.81993239       0.00672184       0.00071380      -0.00070818
H        7.58612226       5.40985933       2.56767261       0.01009707      -0.00623865      -0.00174356
H       12.84387778       7.83548207       1.72271862       0.00425856       0.00463331       0.00250863
H       12.22856010       6.39318970       2.54787823       0.00792002       0.00144263      -0.00069447
H       12.16184550       6.50065171       0.78230281       0.00510740       0.00696157      -0.00056775
O        9.75555282       3.74203133       2.79327254       0.00570148      -0.01089621       0.00409824
C       10.10541652       2.74474383       1.85848544       0.00624791      -0.00721908       0.00035709
C       10.74526720       3.95429963       3.78014543       0.00917617      -0.00725520      -0.00017190
C        9.07574122       2.72714888       0.75432621       0.00341246      -0.00558312       0.00304514
C       10.30118133       5.09410431       4.66736534       0.00812361      -0.01039827       0.00313032
H       11.10399785       2.95910108       1.44993851       0.00466722      -0.00352696      -0.00126988
H       10.16224733       1.76467897       2.35777054       0.00988352      -0.00872982      -0.00291431
H       10.90825946       3.03336354       4.36326270       0.01528680      -0.00663555      -0.00189126
H       11.69866238       4.19881797       3.29074113       0.00580436      -0.00266716      -0.00417352
H        9.28677193       1.92214890       0.05088258       0.00179067      -0.00321037      -0.00006564
H        8.07598455       2.56761278       1.15760781       0.00484331      -0.00744425       0.00586934
H        9.07632010       3.67429691       0.21674648       0.00090769      -0.00397030       0.00596738
H       11.07574603       5.32877796       5.39727799       0.01065592      -0.00771264      -0.00030176
H       10.11193799       5.97630261       4.05647028       0.00143600      -0.01076356       0.00480956
H        9.38792997       4.84849377       5.21139826       0.01193085      -0.01497187       0.00730965
O        6.37344461       2.17253792       5.16782960      -0.00880414       0.00060719       0.00140405
C        7.62341832       2.04186071       4.51804568      -0.00912756       0.00162911       0.00043862
C        5.50912337       3.04449909       4.46161303      -0.01049244      -0.00148827       0.00113095
C        8.49646474       1.10338466       5.31131659      -0.00669309       0.00512859       0.00178179
C        4.17618228       3.09485485       5.16314403      -0.00958896      -0.00080744       0.00303856
H        7.46507117       1.65630857       3.49817501      -0.00925654      -0.00107872       0.00157702
H        8.09424630       3.02496247       4.40807293      -0.01102540       0.00221318      -0.00206648
H        5.96417016       4.04516622       4.40570600      -0.01135725      -0.00127310      -0.00168562
H        5.39511822       2.68624047       3.42680989      -0.01174721      -0.00361940       0.00198489
H        9.44591300       0.93704672       4.80054478      -0.00685367       0.00585461       0.00128033
H        8.70699345       1.50735624       6.30136528      -0.00668354       0.00752410       0.00073187
H        8.00616052       0.13889911       5.43819208      -0.00479545       0.00448933       0.00418414
H        3.52695517       3.82088650       4.67421820      -0.01162754      -0.00465578       0.00021215
H        3.69228873       2.11931641       5.14872655      -0.00737268      -0.00199646       0.00765747
H        4.30560519       3.40296051       6.19953968      -0.01046530       0.00500222       0.00147942
