148
Lattice="11.200514484550244 0.0 0.0 0.0 11.200514484550244 0.0 0.0 0.0 11.200514484550244" Properties=species:S:1:pos:R:3:forces:R:3 energy=-193134.484375 stress="9.866860636975616e-05 -0.0008517727255821228 0.00022188918956089765 -0.0008517727255821228 0.0017882371321320534 0.0002839086519088596 0.00022188918956089765 0.0002839086519088596 0.0016140438383445144" pbc="T T T"
Cr      10.87897125      10.23501272       0.20277454       0.00953473       0.00838776      -0.00398737
P        4.54661681       8.70473471       2.25299703       0.00366280      -0.00391442      -0.00684720
F        4.30376922       7.67324091       3.43675502       0.00821836      -0.00774240      -0.00814000
F        1.57101828       6.59788876       0.69235707      -0.00580334       0.00258268       0.00777134
F        2.96187003       8.89714250       2.02011638       0.00255477      -0.00711700      -0.00186189
F        6.14956803       8.56093014       2.37063600       0.00414580      -0.00353742      -0.00986559
F        4.53729590       7.45811542       1.16848468       0.00249135      -0.00448892      -0.00855571
F        4.56021405       9.94525324       3.28525050       0.00447351      -0.00692189      -0.00300181
P        2.24930850       7.91983237       7.27066625       0.00677226      -0.00243374      -0.00273363
F        0.90973476       7.22978344       6.96124300       0.00572819      -0.00365379       0.00672385
F        2.37003065       8.46037758       5.79285013       0.00226346      -0.00810656      -0.00481474
F        2.21294394       9.38736724       7.78029205       0.00485662      -0.00018358      -0.00865462
F        2.14129542       7.45116364       8.80745613       0.01552335       0.00466719       0.00046697
F        3.52383007       7.08523617       7.12266150       0.00494733      -0.00599438      -0.00587819
F       -1.27256475      10.11315401       9.75072402       0.01239307       0.01237852      -0.00743248
P        6.27626284       8.97739966       7.57510670       0.00210638       0.00072508       0.01002345
F        7.51152908       8.71941335       8.64394649       0.00172889      -0.00095719       0.01030216
F        5.23950504       8.94155811       8.81687203       0.00050464      -0.00930446       0.00875944
F        6.49537638      10.58691957       7.81820284      -0.00426984       0.00062090       0.01953353
F        6.14180632       7.38782977       7.38356361       0.00810306       0.00083104       0.00187473
F        5.07402830       9.28621714       6.56252881       0.00200307       0.00137801       0.01055765
F        7.33929717       9.02323307       6.36970224       0.00311017       0.01156659       0.01222429
O        4.90560357       4.96535385       4.42413785      -0.00922257      -0.00814530       0.01303656
H        4.01295386       5.40837816       4.50338719      -0.00997017      -0.00908379       0.00693035
H        4.70014662       4.00176785       4.33789833      -0.00706085      -0.00834806       0.00984050
O        1.60919356       1.84665946       2.39367275       0.01552106       0.00146329      -0.00860831
H        1.13808241       2.61468207       2.00228481       0.00971966       0.00061959      -0.00353497
H        2.38567916       1.77109392       1.80721329       0.01355813       0.00733297      -0.01218973
O       10.06887937       1.52645692       8.81983319      -0.00243548       0.01362738       0.01599395
H        9.85595022       0.68041438       8.40657530      -0.00599626       0.00555414       0.03493699
H       10.53509628       2.09089666       8.14888883      -0.00394966       0.00063765       0.00419497
O        9.27820711      10.17144224       1.11412940       0.00805366       0.01050810      -0.00561696
H        8.39139349      10.20037298       0.61153732       0.00771978       0.01064485      -0.00528101
H        9.20492015       9.86718977       2.10237299       0.00444325       0.00631397      -0.00678298
O        3.20051211       2.84194954       7.82629243      -0.00170290      -0.00543845       0.00615972
H        3.93542876       3.45747946       7.55041804      -0.00027117      -0.00560640       0.00936585
H        2.68313528       3.33791447       8.47032652      -0.00317530      -0.00617822       0.00557937
O        7.10045627      10.24801931      10.98178526       0.00405042       0.00580609      -0.00006682
H        7.32116668       9.95470747      10.08374347       0.00041927       0.00229006       0.00130200
H        6.69307412      11.16918708      10.89799001       0.00087888       0.00374193      -0.00245249
O        9.45062928       7.25691152       6.83558557       0.00026923      -0.00023544       0.01704231
H        9.75193442       6.46769181       6.30642815      -0.00261449      -0.00124431       0.01374219
H        8.49269294       7.30114102       6.74703007       0.00048508      -0.00504532       0.03086322
O       11.65358981       4.06225949       1.08456589      -0.00143985      -0.00178218       0.00115418
H       10.74518763       4.04745770       1.46891499      -0.00279452      -0.00171442      -0.00214688
H       12.00288355       4.94849981       1.27199501      -0.00203320      -0.00211731       0.00262131
O        7.19845869       2.43586462       8.73118128      -0.00261152       0.01054025       0.00276236
H        8.14149280       2.26765972       8.88810969      -0.00211297       0.01327895       0.00650141
H        6.99249930       3.33947659       9.05993948      -0.00591463       0.00981215       0.00181381
O       10.43828848       6.78675036       9.38823160       0.00662175       0.00784902       0.00657308
H        9.61702328       6.63991248       9.89831108       0.00792360       0.00575843       0.00796971
H       10.11017458       6.97017269       8.47912914       0.00487620       0.00763958       0.00642540
O       10.17193749       1.88483608       4.10964513       0.00673725      -0.00454465      -0.00911815
H        9.47037206       1.37994218       4.58110661       0.00735183       0.00027974      -0.00207824
H       10.88240277       1.21776970       4.10873285      -0.00119592      -0.01339551      -0.02141454
O        9.30114878       3.80080038       2.42108194      -0.00888462      -0.00128424      -0.00545304
H        9.65065795       3.07156565       2.98785973      -0.00522854      -0.00123751      -0.00847590
H        8.55467484       3.39572923       1.92407229      -0.01034295      -0.00165744      -0.00371348
O        1.09962393       4.62093401       9.61420863      -0.01656267       0.00563313      -0.00258341
H        0.76738421       4.28108095      10.47187045      -0.01031566       0.00384085      -0.00104958
H        0.60502371       5.46075273       9.50339785      -0.02017814       0.00477970       0.00054882
O        5.23063577       4.38762151       7.16000012      -0.00143555      -0.00589198       0.00754544
H        5.58373221       4.94825642       7.86741237      -0.00258253       0.00390665      -0.00265383
H        5.13473549       4.91641881       6.35151745      -0.00420613      -0.01532927      -0.00143249
O        0.40504815       0.66302606      10.72137182       0.01348418       0.00894898       0.00001834
H        1.28784695       1.06710215      10.88520623       0.01346296       0.00923470      -0.00006539
H       -0.09275804       1.05015484       9.92151669       0.01031083       0.01503551       0.00538379
O        2.93109319       0.59841387       5.62305808      -0.00551432      -0.00353093       0.00241113
H        2.83029375       1.21790508       6.36149957      -0.01247625       0.00293484      -0.00551295
H        3.49796358      -0.10465150       5.96777828      -0.00751106      -0.00095940       0.01527910
O        9.25846996       9.21553105       3.43671041      -0.00740826       0.00181423      -0.00798011
H        8.88361039       8.32697237       3.24464017      -0.00753693       0.00015515      -0.01119523
H        8.69729732       9.65953600       4.09067701      -0.00813922      -0.00195402      -0.01058502
O        0.76834035       7.46795593       3.36578770      -0.00136882       0.00202730      -0.00223608
H        0.35216600       8.10748739       3.95407495       0.00139160       0.01304626       0.00527416
H        1.47284941       7.96111918       2.92479011       0.00102723      -0.00410696      -0.00245868
O        5.83046870       1.30896693      10.79443563      -0.00529840       0.00448650      -0.00619446
H        6.22493396       1.68125619       9.97323232      -0.00293751       0.00610260      -0.00451732
H        6.19399711       1.89893006      11.50104493      -0.00663979       0.00323583      -0.00399101
O        8.56270259       6.81611416       2.33248280      -0.00618649      -0.00879437      -0.00413027
H        9.23920223       6.14694932       2.49970780      -0.01281261      -0.00941667      -0.00798900
H        7.70884432       6.34140671       2.44723308      -0.01225536      -0.00454356      -0.00606299
O        2.42569095       5.71313142       4.82591792      -0.01318038      -0.00761311      -0.00686969
H        1.95210929       4.86091245       4.83708328      -0.01683087      -0.00550768      -0.00512196
H        1.86175479       6.32719297       4.31934872      -0.01186725      -0.00387689      -0.00298268
O        3.61036414       4.66446049      -0.21410967      -0.01011574       0.01975238      -0.01394920
H        3.59118936       5.30395858       0.50968425      -0.01660096       0.02375883      -0.01859754
H        2.85211771       4.92875576      -0.76884752      -0.01219246       0.01153664      -0.01635802
O       10.19525159       9.86892785       7.03136865       0.00655705      -0.00216480      -0.01461461
H        9.92837967       8.94462788       6.82717304       0.00159715      -0.00353605      -0.00316449
H       10.16309897       9.88738736       8.00844208       0.01273173       0.00836642      -0.01510474
O        0.58600346      10.62333290       1.95761729       0.01266301       0.00326906      -0.00601467
H        0.95310712      11.54081948       2.09565686       0.01636749       0.00215766      -0.00674492
H        0.30678662      10.33255375       2.84872508       0.01558778       0.00173524      -0.00515234
O        1.33073126       3.18470319       4.92494230       0.00089616      -0.01458296      -0.00022537
H        0.37802422       3.18175210       4.73472371       0.00098531      -0.04179828      -0.00281035
H        1.70081767       2.63049948       4.21830015       0.01523609      -0.00376353      -0.00110550
O        6.80120815       1.98796744       6.01964748       0.00223536       0.00015566       0.00384811
H        7.17729938       2.79054097       5.60288969       0.00140119      -0.00035249       0.00163473
H        6.77518783       2.19811624       6.97545918       0.00084450       0.00329437       0.00303783
O        7.64854068       4.26080715       4.70596456      -0.00049832      -0.00122958       0.00016448
H        6.80947549       4.74928834       4.65338359       0.00066927      -0.00036263       0.00078352
H        8.02417783       4.21232276       3.80752661      -0.00058324      -0.00073081      -0.00052626
O        0.17200953       3.32256130       7.41174751       0.00027025      -0.00148292      -0.00325591
H        0.90343754       3.13429263       6.79627960       0.00398776       0.00076207       0.00076902
H        0.54976434       3.80152392       8.18396016      -0.00573193       0.00239779      -0.00225598
O        8.48930717      11.33322931       5.26947985       0.00483420       0.00450391      -0.00302505
H        8.91428180      10.81813649       5.98212850       0.00736776       0.00152388      -0.00660568
H        7.79352103      11.89718471       5.69668650       0.00529170       0.00199964       0.00121123
O        0.50556154      10.77253068       4.69778665       0.00226760      -0.01001650      -0.01123601
H        1.39230384      11.05379292       5.00198616       0.00014718      -0.00707074      -0.00787216
H        0.04766885      10.48150730       5.50566286      -0.00095442      -0.00870793      -0.01208390
O        3.95854803      11.57294108       8.50934978      -0.00917050      -0.00859073       0.00196902
H        3.77398774      12.53360502       8.39635715      -0.00922655      -0.00732908       0.00414141
H        4.88826403      11.41848759       8.29757714      -0.00878920      -0.00754203       0.00723811
O       10.14680382       5.03867224       5.60050202      -0.00439660       0.00815597       0.00606865
H       10.49081940       4.45777781       6.30619493       0.00229619       0.00123217      -0.00324832
H        9.25392929       4.70744547       5.39677363      -0.00271089       0.00446454       0.00343942
O        2.96870952       1.90310954       0.00936552       0.01137328       0.01156652      -0.00913356
H        3.83626603       1.51655525      -0.21274202       0.01452965       0.01591934      -0.00768776
H        3.14044813       2.86586890      -0.00080939       0.00587952       0.01258937      -0.00756187
O        6.19196035       5.41888540       2.16803047      -0.01213908      -0.00483391       0.00883427
H        5.62814892       5.35919987       2.98787929      -0.00886658      -0.00606621       0.01049485
H        5.75020311       6.08738247       1.62585352      -0.01761042      -0.00778790       0.00979139
O        4.78785683       9.80726484       0.94485778      -0.00210080      -0.00324258      -0.00431364
H        5.68965690       9.76494069       0.52551706      -0.00103861       0.00116600      -0.00143594
H        3.97043911       9.94593285       0.15995712      -0.00907498      -0.00235667      -0.01013343
O        6.93299954       2.79904152       1.54094924      -0.00957793      -0.00188778      -0.00067610
H        6.79148138       2.11040066       2.23003204      -0.00676759      -0.00383548      -0.00227532
H        6.45505084       3.61554213       1.77989297      -0.01106219      -0.00292807       0.00304052
O        6.92570957      11.65142108       2.84408870       0.00099385      -0.00138709      -0.00117779
H        7.44485963      11.46113534       3.63873006       0.00148858       0.00369883      -0.00000889
H        6.05371438      11.27873884       3.03154218       0.00302283      -0.00604706      -0.00122385
O        4.71043889       2.28716404       4.19791861      -0.00008896      -0.00744905       0.00545842
H        5.39263798       2.09020741       4.87041760       0.00085285      -0.00449833       0.00544412
H        3.96893162       1.72679628       4.48173123       0.00204372      -0.01072519       0.00506894
O        6.22919649       4.78032077       9.72553768       0.00346217       0.01142614       0.00329977
H        6.77752170       5.44646278      10.17837964       0.00740758       0.00549299       0.00468016
H        5.38320126       4.73296893      10.20371647       0.00007294       0.01867799       0.00013094
O        0.34673548       8.63110267      -0.12074884       0.00508961       0.00571442      -0.00108943
H       -0.08457641       8.17755640      -0.89718118       0.00444809       0.00428115      -0.00019270
H        1.12447549       7.43538310       0.47890813      -0.00192948       0.00401866       0.00388025
O        7.97348502       6.74544523      10.74078233       0.01675963      -0.00674653       0.00222510
H        8.15984206       6.94265038      11.67978881       0.01461240      -0.01958027       0.01531881
H        7.65343774       7.55495478      10.32228927       0.01244846      -0.00575724       0.02451576
O        3.07577933      10.18507853      10.48825404      -0.00283708      -0.00694591      -0.00023901
H        2.71421828       9.35593276      10.15248426      -0.00070091      -0.00795731       0.00096551
H        3.43590367      10.70735582       9.69537753      -0.00510764      -0.00340264      -0.00154266
