145
Lattice="13.10933230646065 0.0 0.0 0.0 13.10933230646065 0.0 0.0 0.0 13.10933230646065" Properties=species:S:1:pos:R:3:forces:R:3 energy=-162787.734375 stress="-0.000331507675582543 0.0004962938546668738 -0.00029193528462201357 0.0004962938546668738 -0.0010844466742128134 -7.630043910467066e-05 -0.00029193528462201357 -7.630043910467066e-05 -0.001607165322639048" pbc="T T T"
Cr      11.87086864      12.87011664       0.79935945      -0.01338944      -0.01892999      -0.00447321
S       12.31230063      10.51805741      10.14827611       0.00527494      -0.00905147      -0.01216093
N       12.15548855      12.44799878      12.13403070      -0.00568409      -0.01960129      -0.00323421
C       12.22378685      11.59961586      11.28602580      -0.00113428      -0.01541072      -0.00706828
S        5.31732622      12.54977996      12.85141132      -0.01495397       0.01424205       0.00107479
N        7.12049440      13.52149315      10.91362535      -0.00322425       0.00986409       0.01687050
C        6.35091220      13.12148749      11.71094278      -0.00665137       0.01236283       0.00909376
S        9.00522864      11.46886058       1.79361238      -0.02926803       0.01173151      -0.00220844
N       11.82457594      11.72927586       2.05069698      -0.02691234      -0.01885836      -0.00682747
C       10.54437641      11.88202929       1.63752514      -0.02584946      -0.00477576      -0.00666560
O        9.66515200       2.09193753       2.03760849       0.00848389       0.00630067      -0.00727677
O       11.13002184       1.79120332       3.56583122       0.00850868       0.00787771      -0.00667083
O       11.78490488       1.59552780       1.40443094       0.00287712      -0.01762325      -0.00509143
C        9.17179069       2.16768648       0.64522679       0.00768420      -0.01076731      -0.00856602
C        7.68375077       2.03278039       0.71195816       0.00497961       0.01982702      -0.00240026
C       10.89073292       1.80223797       2.27951771       0.00619990      -0.00154009      -0.00617337
C       12.47923795       1.60611451       4.03454617       0.00740874      -0.00647882      -0.00852367
H        9.50508311       3.12673427       0.24874573       0.02656302      -0.02625731      -0.02952288
H        9.63202379       1.36711815       0.06776973      -0.01011036      -0.03371835       0.00879802
H        7.29612284       2.13302869      -0.30036618       0.00656119       0.00968698      -0.00390562
H        7.39031189       1.04765439       1.07203966      -0.01344799       0.03164080       0.01530901
H        7.24403492       2.79848771       1.35275282       0.02162715       0.04064168      -0.01578000
H       13.04055664       0.96086624       3.36703419      -0.00722961      -0.02894180       0.00126785
H       12.38149218       1.15035611       5.01331088       0.00208157       0.01357988       0.00019366
H       12.95241945       2.58294101       4.11684632       0.02466844      -0.01350993      -0.02856757
O        7.80232043       4.68071814       4.16900804       0.00283284       0.00172286       0.00199643
O        5.80229435       3.90192807       3.87728740       0.00512657       0.00038822      -0.00616956
O        7.47386009       2.44652801       4.33918233       0.00256231       0.00272954       0.00880685
C        9.20767103       4.45730040       4.43054446       0.00125311       0.00315422       0.01057552
C        9.88839533       5.79917400       4.48746517      -0.00042042       0.00402373       0.00839856
C        7.06975285       3.56310108       4.14696804       0.00331956       0.00121844       0.00223048
C        4.90612130       2.78034670       3.83667736       0.00532905       0.00026071      -0.00819201
H        9.30904044       3.90260123       5.36419299      -0.00357197       0.00717708       0.01329133
H        9.59613152       3.83582213       3.62791764       0.00627029      -0.00028625       0.01567727
H       10.96502800       5.65217148       4.58220717      -0.00100043       0.00562924       0.01498402
H        9.70139890       6.37239032       3.57945149       0.00377246      -0.00035168       0.00488868
H        9.54634376       6.37947209       5.34208748      -0.00608449       0.00738873       0.00374855
H        5.16280549       2.11319526       3.01471143       0.01038419      -0.00198822      -0.00445446
H        3.91835229       3.20694349       3.69101618       0.00644243      -0.00000504      -0.01558258
H        4.94996806       2.22811673       4.77444395      -0.00041865       0.00349195      -0.00616169
O        4.69532592       7.52042283       5.80634069      -0.00840455       0.00551062       0.00363810
O        2.63804432       7.08259492       6.29008058      -0.00821590       0.00547902       0.00254732
O        3.38199431       9.20121122       6.57551464      -0.00669998       0.00423014       0.00946227
C        5.76262061       8.46633909       5.53060278      -0.00731546       0.00487900       0.00714904
C        6.98970598       7.65089438       5.23439555      -0.00909171       0.00423935       0.00235131
C        3.56515938       8.05448165       6.24868203      -0.00751089       0.00453424       0.00554392
C        1.35755010       7.51529512       6.76425814      -0.00747391       0.00437725       0.00486920
H        5.45383822       9.06747059       4.67610543      -0.00702579       0.00931275       0.01029223
H        5.89588625       9.11407133       6.39512913      -0.00544389       0.00065666       0.01005518
H        7.83691892       8.31603970       5.06182486      -0.00862990       0.00359513       0.00308689
H        7.22973827       6.98911132       6.06632064      -0.00853805       0.00132610      -0.00020038
H        6.85027997       7.02789528       4.35395621      -0.01144303       0.00733110       0.00057882
H        1.45882521       8.03234411       7.71738857      -0.00707070      -0.00281075       0.00858507
H        0.77439281       6.60643766       6.88629098      -0.00891031       0.00451106      -0.00200333
H        0.89337944       8.17823054       6.03469244      -0.00608324       0.01023057       0.00943255
O       10.34655760       4.03522618      10.99694149       0.01531835       0.00458497       0.00935641
O       10.13669266       1.95253497      10.48658829       0.01202931       0.00422648       0.01403884
O       11.10557659       3.33532693       8.97577267      -0.01140797       0.00455028      -0.00040424
C       10.77048952       5.37789121      10.68785274       0.00479689       0.00608474       0.00167099
C        9.89927707       6.32467869      11.47240455       0.00535920       0.00352934       0.00538144
C       10.58220377       3.12474702      10.04200128       0.00363746       0.00439575       0.00722194
C       10.26989294       0.86294727       9.55869874      -0.00004652       0.00368094       0.01300774
H       11.82475368       5.46878477      10.96398279       0.00638449       0.01322537      -0.00696684
H       10.67845605       5.53465542       9.61548415      -0.00495571       0.00152724       0.00206053
H       10.25275825       7.34801024      11.33796455      -0.00284994       0.00534235      -0.00215991
H        8.87024141       6.26268161      11.12143551       0.00284082      -0.00507820       0.01459046
H        9.92735869       6.09103547      12.53767019       0.01632777       0.00814693       0.00593831
H       10.03023057       1.19450680       8.55213534      -0.01067562       0.00399336       0.01582038
H        9.56095935       0.11449043       9.89967443       0.00216648       0.00521287       0.02036595
H       11.29187671       0.48657870       9.57886272      -0.00070363       0.00185960       0.00227679
O        7.03372296       3.00724276       9.06967250       0.00320441      -0.01357955       0.00960967
O        7.04584804       4.20580964      10.87250574       0.00758949      -0.01491414       0.01064087
O        5.09052079       3.29054678      10.19692838       0.00398254      -0.00426170       0.00815725
C        6.33382243       2.15776788       8.12844608      -0.00069040      -0.01189825       0.01096535
C        7.36970997       1.36648181       7.37952942      -0.00484729      -0.01633540       0.01008999
C        6.27420382       3.46706939      10.05489183       0.00519073      -0.01047873       0.00934203
C        6.31504597       4.85619497      11.91637559       0.00820649      -0.01203941       0.00953523
H        5.65475051       1.51460735       8.68512669      -0.00207534      -0.00860059       0.01254350
H        5.75125562       2.80946398       7.46859085       0.00054386      -0.01027149       0.01181993
H        6.90160056       0.82662644       6.55653819      -0.00906071      -0.01363119       0.01081786
H        8.12823311       2.01974806       6.94844126      -0.00321846      -0.01917630       0.00828759
H        7.83785588       0.65182888       8.05270747      -0.00762336      -0.01929261       0.00889075
H        5.67770908       5.64133843      11.50751169       0.01144144      -0.01049200       0.00784962
H        7.06796352       5.29007817      12.56914437       0.00850663      -0.01456273       0.01065741
H        5.69619079       4.14624366      12.46151554       0.00516444      -0.00991297       0.00854066
O        6.71705360       6.81247805       8.83439701       0.00317711      -0.00759212       0.00674598
O        8.82753573       7.13050874       8.45542785       0.00196795      -0.01114927      -0.00111635
O        7.42954672       8.89613744       8.27863184       0.00454719      -0.00839698       0.00561701
C        5.35720130       7.31239532       9.00764616       0.00406444      -0.00627035       0.00887936
C        4.39572620       6.17953660       8.78266333       0.00299296      -0.00435784       0.00398714
C        7.62239304       7.72988934       8.50773881       0.00335625      -0.00944388       0.00408921
C        9.89889286       8.03497171       8.15397108       0.00213321      -0.01336503      -0.00653951
H        5.27000396       7.70103240      10.02117985       0.00498957      -0.00917771       0.01013380
H        5.20919795       8.14224891       8.31965386       0.00500568      -0.00403526       0.01153028
H        3.38106614       6.56546185       8.89232009       0.00335775      -0.00423668       0.00602638
H        4.49864753       5.76289297       7.78253487       0.00259436       0.00097644       0.00177443
H        4.52520828       5.38108145       9.50888948       0.00303283      -0.00821240      -0.00030738
H        9.71331176       8.55369698       7.21478786      -0.00024445      -0.01510538      -0.00699210
H       10.79133134       7.41930559       8.08339813       0.00079332      -0.01490918      -0.00862611
H       10.00956159       8.77320025       8.94780036       0.00584245      -0.01218735      -0.00854322
O        5.09432199       8.99570794       1.17148746      -0.00350693      -0.00338751      -0.00435047
O        3.26216011      10.05047125       0.75386348      -0.00466544      -0.00492811      -0.00435072
O        3.30705398       7.80681510       0.44251217       0.00063694      -0.00262630      -0.01273400
C        5.81881424       7.76671057       1.34497640      -0.00244695      -0.00283468      -0.00763430
C        7.24866440       8.13042333       1.65447141      -0.00327450      -0.00201058      -0.00566180
C        3.83619214       8.84635453       0.74455548      -0.00278217      -0.00459480      -0.00783619
C        1.92576307      10.07842563       0.24482155      -0.00158221      -0.00519302      -0.01161067
H        5.35550741       7.20623764       2.15977780      -0.00232759      -0.00578058      -0.00968117
H        5.72991885       7.17696496       0.43200555      -0.00114662      -0.00013477      -0.00932813
H        7.81848127       7.22600990       1.87323363      -0.00240625      -0.00140893      -0.00681807
H        7.72108934       8.64779956       0.82072472      -0.00325935      -0.00019939      -0.00431563
H        7.30525657       8.78617526       2.52268913      -0.00466733      -0.00374115      -0.00459845
H        1.87693822       9.55220667      -0.70525379       0.00531334       0.00108662      -0.01533344
H        1.69788561      11.13336694       0.10970205      -0.00360682      -0.00493515      -0.00620555
H        1.23660654       9.63631025       0.96511025      -0.00457215      -0.01178473      -0.01860058
O        6.08960858      10.41031776      10.39914008       0.00947499       0.01601359      -0.00515595
O        4.21058032      11.14990765       9.63590190       0.00971656       0.00748572      -0.01268321
O        4.17364841       9.46867180      11.14804734       0.01027101       0.01182723      -0.00625563
C        6.83296391       9.66361258      11.38030295       0.00994307       0.02078274      -0.00177158
C        8.25828685      10.14702988      11.32103679       0.00980210       0.02028942      -0.00481740
C        4.77569965      10.27553570      10.47362433       0.01032907       0.01224047      -0.00857091
C        2.78320091      11.14976936       9.68734307       0.00970285       0.00535120      -0.01460376
H        6.37683499       9.84328419      12.35381857       0.01010221       0.02542607      -0.00260943
H        6.75742054       8.59699358      11.14369934       0.00943091       0.01961231       0.00372919
H        8.89123834       9.51263592      11.94404090       0.00865328       0.02824435       0.00425810
H        8.61897872      10.10895030      10.29382031       0.01167916       0.00748579      -0.00372311
H        8.33054421      11.17189977      11.68031527       0.00828839       0.02475858      -0.01771573
H        2.38354832      10.19072869       9.36056240       0.01207836       0.00133306      -0.00543299
H        2.46401013      11.93906532       9.01304816       0.00985641      -0.00223544      -0.02348354
H        2.44732022      11.35911194      10.70256913       0.00841290       0.01568875      -0.01716608
O        3.43410415       9.74440385       3.65507153      -0.00663184       0.00150651       0.00063607
O        3.08715143       7.65278489       3.35715286      -0.00654003       0.00231141      -0.00557972
O        1.28693999       9.01500291       3.58294306      -0.00612640       0.00172855      -0.00306781
C        2.99367869      11.10232980       3.84962923      -0.00786823       0.00134835      -0.00076982
C        4.21158429      11.97670646       3.70716229      -0.00919363       0.00272772      -0.00080657
C        2.47803137       8.82986026       3.53551118      -0.00648654       0.00179134      -0.00276106
C        2.21860312       6.54307032       3.11385015      -0.00747067       0.00301778      -0.00547548
H        2.23749339      11.32760010       3.09715863      -0.00793773      -0.00041720      -0.00116262
H        2.54178818      11.17214579       4.84089913      -0.00862889       0.00177074      -0.00116295
H        3.91930188      13.02036851       3.82703877      -0.01157290       0.00240795      -0.00338808
H        4.95184741      11.73947699       4.47168631      -0.01029427       0.00588864       0.00103605
H        4.66454479      11.85701878       2.72274390      -0.00652343       0.00175299       0.00043195
H        1.49876895       6.44266231       3.92345831      -0.00888106       0.00507623      -0.00658038
H        2.87520099       5.67880095       3.08042464      -0.00851969       0.00230236      -0.00351274
H        1.71391351       6.67257372       2.15927661      -0.00592193       0.00233807      -0.00629777
