148
Lattice="11.474215012474792 0.0 0.0 0.0 11.474215012474792 0.0 0.0 0.0 11.474215012474792" Properties=species:S:1:pos:R:3:forces:R:3 energy=-136824.84375 stress="0.003328371560201049 0.001232735870871693 0.0005186302878428251 0.001232735870871693 0.003048740793019533 0.000747943646274507 0.0005186302878428251 0.000747943646274507 0.0036242762580513954" pbc="T T T"
Cr      11.47666833      11.44542756       0.71584514      -0.00141877      -0.01007690       0.00587186
F        0.36346298      10.79902095       2.39004070      -0.00210544      -0.00391708       0.00947662
F       10.55055252      11.28872632       8.31261080       0.00845391      -0.00396898      -0.00186908
F        5.57364784      11.32548737       1.50383171       0.00187607       0.00446391      -0.00135895
O        4.40412891       4.33150920       9.19685112      -0.00772810       0.00413801      -0.01561314
H        3.90884360       3.95037521       9.93452203      -0.01039527       0.01073559      -0.01230343
H        3.97276046       3.98616649       8.40506841      -0.00727561      -0.00268026      -0.01192979
O        8.18763384       9.01816233       8.34676951      -0.00324509       0.00891522      -0.01686348
H        8.11023202       8.64066193       9.24971504      -0.00325014       0.00719585      -0.01730861
H        7.60610485       9.80281371       8.40501225      -0.00611127       0.00755766      -0.01695030
O        8.64017107       7.25542144       6.28601221       0.00306242       0.01055685      -0.00003558
H        8.15249374       7.83545835       6.90974108       0.00644235       0.01715814      -0.00076301
H        9.51502002       7.24641710       6.71813260       0.00919236       0.02590777      -0.01060300
O       10.45625785       6.51531529       0.61069017       0.00652993       0.02647459      -0.00368117
H        9.65014277       6.33426759       1.14531138       0.00581415       0.01989506      -0.00460563
H       11.16757407       5.98521962       1.01227578       0.00705619       0.02666724      -0.00558162
O        9.82231354       3.24371137       8.91163898       0.01780489       0.00683194      -0.00455466
H        9.51159474       4.07531343       9.34462248       0.00785390       0.00226527      -0.00347874
H        9.06480246       2.69724494       8.66242176       0.02192491      -0.00103432      -0.01456314
O        9.43122895       5.74519055       9.70986320      -0.02768889      -0.01939768       0.01426230
H        8.47138770       5.80003470       9.86190474      -0.02668234      -0.02583308       0.03201427
H        9.83557096       6.03230203      10.56479930      -0.01507738      -0.00234429       0.00166410
O       11.27898360       0.43689223       5.53327885       0.01258093      -0.00244427       0.00476617
H       11.07531750       0.05058565       6.39924589       0.01399688      -0.00106835       0.00577961
H       10.74552732      -0.04944444       4.87283891       0.01080254      -0.00292963       0.00634447
O        9.22846096       2.76240957       2.46112423      -0.00575674      -0.00806238       0.00331485
H        9.41699231       2.77229979       3.41726543      -0.00881012      -0.01306611       0.00496966
H        8.26989312       2.57807775       2.35886902      -0.00608636      -0.00286856      -0.00011647
O        0.86543094       8.20118776       9.60143956       0.00893284      -0.01186162       0.00792152
H        0.90072435       7.26957212       9.84152572       0.01320428      -0.01213109       0.00407026
H        0.24967771       8.25578577       8.79615381       0.00623845      -0.01332188       0.01211129
O        2.98355273       7.45823868       6.80544944       0.00610596      -0.01481993      -0.00963819
H        3.64132978       7.11757774       6.18296035       0.00540323      -0.00677787       0.00139318
H        3.45870914       7.79314164       7.57910632       0.00970396      -0.00889848       0.00774115
O       -0.13552317       0.52711327      10.43195301      -0.00133291      -0.01176788       0.00419390
H        0.44444194       1.26617350      10.14054653      -0.00008336      -0.01119532       0.00757367
H       -0.60937211       0.08609926       9.28729303       0.00331086      -0.00770337       0.00189915
O        2.58345483       0.71063909       5.47788495       0.00420582       0.00228544      -0.00351325
H        1.66708243       0.36822661       5.52475814       0.00200745       0.00609490      -0.00536161
H        3.12657343       0.14864567       6.09680864       0.00063004      -0.00327985      -0.00485809
O        9.30118826      10.91060329       3.69971879       0.00033244       0.00511713       0.01191533
H        8.48597465      11.14171268       4.20547140       0.00148360       0.01274073       0.00961689
H        9.38525575       9.92668993       3.77840987      -0.01433207       0.00347631       0.01101805
O        0.62220516       8.21627546       3.03284677      -0.02956897       0.00063074       0.02392668
H        0.67021464       9.08239227       2.58456950      -0.02403406       0.00809246       0.02851465
H        0.93308148       7.54933339       2.40752986      -0.02230760       0.00880019       0.02482179
O        9.47004210       8.24530352       3.80464781      -0.03995043       0.00472507       0.00083110
H       10.41803322       8.07029028       3.60081833      -0.03744562       0.00766455       0.00497028
H        9.27126337       7.92317430       4.70924994      -0.03830395       0.00694605       0.00170307
O        2.24846279       4.69719041       4.30774366       0.00811479      -0.00462675      -0.00554416
H        2.96311521       5.34760166       4.44178576       0.00788270      -0.00607733      -0.00147329
H        1.38964306       5.12557548       4.52709901       0.00736450      -0.00951795       0.00069384
O        5.16564899       4.46920443       1.16350224       0.01553683       0.01221907      -0.00120350
H        5.60183764       3.67443556       1.54465030       0.02476736       0.00652111      -0.02399869
H        4.33815570       4.15751226       0.77340008       0.02638690       0.01060480      -0.02882463
O       10.79717373       8.36899251       7.56040884       0.00192443      -0.00204661       0.00692761
H       10.07670679       8.98426397       7.79531031       0.01023152       0.00807004       0.00680648
H       11.35333457       8.75097849       6.83076426       0.01059499      -0.00452644       0.01134884
O        3.88270722      10.49534494       3.37345371       0.01568694       0.00976756      -0.00547371
H        3.41480321      11.12325941       3.94357008       0.01559279       0.01284094      -0.00439103
H        4.49249318      10.99713551       2.78961541       0.01441921       0.00801381      -0.00643692
O        2.08576586       2.16892848       3.04880631       0.00018123      -0.00166661      -0.00849628
H        2.18098159       1.61686878       3.84243312       0.00333925      -0.00372538      -0.00921345
H        2.23745241       3.07651174       3.37837411       0.00247744      -0.00289948      -0.00708669
O        8.55215324       1.29790025       7.20862062       0.00734895       0.00441288       0.00771171
H        9.18627473       0.72212785       7.67627175       0.00959329       0.00115859      -0.00234330
H        9.09499981       1.84215663       6.61861126       0.00262095       0.00221728      -0.00325187
O        8.19880726       6.29230970       2.16341530       0.00739419      -0.00668365      -0.01105270
H        8.17920900       5.57930690       2.81952288       0.00572435      -0.01216450      -0.02029451
H        8.51991708       7.04574476       2.68920477      -0.01036112      -0.00588518       0.00270328
O        0.98369479       2.80610846       9.34317314       0.00805400      -0.01117830       0.00947759
H        0.03769234       3.02229745       9.19361889       0.00868771      -0.00723421       0.00754012
H        1.44174130       2.94599222       8.48717569       0.00788878      -0.01620608       0.00821124
O        7.16791870      11.40033477       5.31704848      -0.00090969       0.00898501       0.00950572
H        6.71598811      10.55400418       5.48632989       0.00043268       0.00774863       0.00848757
H        7.57989776      11.74011541       6.14480712      -0.00127945       0.00827567       0.01020859
O        1.10779021       9.11835600       5.72429864       0.00372181      -0.01038662       0.01390938
H        1.83368306       8.56821222       6.09489808       0.00525996      -0.01015779       0.00673749
H        1.00640452       8.78857476       4.81604182      -0.00726705      -0.01037268       0.01342677
O        4.20092833      10.78812074       7.07591027      -0.00674277      -0.00754927      -0.00374787
H        4.61327749      10.12961091       6.47553194      -0.00522826      -0.00626210      -0.00437148
H        3.76493548      10.24538165       7.77557408      -0.00517623      -0.00896825      -0.00257465
O       11.24900975       5.51590535       4.90113988      -0.00672051      -0.04955405       0.00278632
H       10.35411968       5.53905582       4.52764843      -0.00019510      -0.00796374      -0.00874896
H       11.13597979       5.59274076       5.88476100      -0.01044992      -0.02160652       0.00135077
O        2.03581417       0.27629529       0.63013706      -0.00237456      -0.01232497       0.00313938
H        2.29674327       0.58832674       1.51099342       0.00270095      -0.01257396       0.00192839
H        2.65498616      -0.49335070       0.44763432      -0.00236158      -0.01123062      -0.00035935
O        4.80876776       7.12508161       2.11648106       0.00927500       0.00839440      -0.00033227
H        5.03091501       6.26337961       1.71482699       0.01477040       0.01232624      -0.00427414
H        5.60262441       7.69016195       2.02991315       0.00766989       0.01297861       0.00319555
O        3.88820212       9.91105865       0.24703145       0.00480443      -0.00647333      -0.00043172
H        3.83002332       9.12878907       0.81361150       0.00829189      -0.00876704      -0.00220746
H        4.60582350      10.47248011       0.67296274       0.00172994      -0.00428756      -0.00002196
O        6.48653296       2.25718376       2.21243747      -0.00852503       0.00516009      -0.01086914
H        6.10959718       2.22963712       3.12361617      -0.01070634       0.00795984      -0.01147325
H        6.19327106       1.39562387       1.83805082      -0.00823575       0.00338709      -0.00894889
O        6.80466013       9.08832321       1.92478062       0.00438032       0.00259179      -0.00547904
H        6.41008696       9.99311288       1.82755029       0.00352837       0.00212412       0.00078847
H        7.38931131       9.11941967       2.68828605       0.02078864       0.00233299      -0.01639409
O        5.47441935       2.00601771       4.71022369      -0.00103647       0.00350568      -0.00617430
H        4.54991247       1.80915923       4.88665440      -0.00211133       0.00723886       0.00951243
H        5.98039835       1.22093799       5.00723309      -0.00029324       0.00707778      -0.00244393
O        6.68947278       5.50448427      10.40026028      -0.01734570       0.03185770      -0.00018585
H        6.42135854       5.12452295      11.25380413      -0.02285142       0.01294846      -0.01096907
H        5.98399375       5.19889215       9.80163026      -0.00209410       0.02360808      -0.01554511
O        7.76882498       8.08322775      10.91862595      -0.00455304       0.01180826      -0.01684161
H        7.26633633       7.25415109      10.84254297      -0.00551278       0.01258610      -0.01248699
H        7.49936057       8.46868102      11.76982966       0.00205010       0.01261066      -0.01433094
O        3.36843172       9.16583000       9.04344604       0.00444841      -0.00954538      -0.00103927
H        2.45170258       8.86824138       9.21391399       0.00480336      -0.01070896       0.00166230
H        3.71735041       9.40091674       9.92147993       0.00654985      -0.00889793      -0.00367507
O        2.60208384       3.40254511      -0.09752230       0.00720297       0.01662377       0.00412873
H        2.62837837       2.50429004       0.25723248       0.00956599       0.02384359       0.02363547
H        1.94916205       3.31718286      -0.83866756       0.00738674      -0.00000656       0.00559196
O       10.14909456       2.84146113       5.15009144      -0.01740205      -0.01283203      -0.00041805
H       10.75423162       3.60334103       5.12182211      -0.02689734      -0.00489166      -0.00218011
H       10.69327921       2.03153100       5.28573795      -0.00548990      -0.00532285      -0.00029550
O        8.37299544       5.06596890       4.71773487      -0.02034651       0.00312577       0.00314039
H        8.53345544       4.22017693       5.15085684      -0.02377503       0.00367563       0.00636703
H        8.30757946       5.74003744       5.42418040      -0.00593310       0.00569557       0.00186624
O        4.56258233       6.41865121       4.62432093       0.00757194      -0.00398827      -0.00053476
H        4.64185596       6.71238787       3.66198677       0.00799616      -0.00241138       0.00061491
H        5.25696685       5.76019746       4.73967738       0.01201442      -0.00074095       0.00003513
O        9.51525534      -0.24654787       1.13473676      -0.00202954      -0.00895298       0.00877128
H        8.92665148       0.45856653       0.84301478      -0.00120229      -0.00997150       0.01194458
H        9.38438349      -0.31953240       2.14210131       0.00188603      -0.00418645       0.01040599
O       11.36226306       9.53837730      11.59365220       0.00787532      -0.01102308       0.00989096
H       10.56864247       9.02711807      11.80712855       0.01685974      -0.02541052       0.01815055
H       11.78539350       9.07001370      10.81421599       0.00863351      -0.00888821       0.01062341
O        1.35534162       5.37648148       1.60485163       0.00205663       0.01190047      -0.00075193
H        1.77749128       4.72669703       1.01493833       0.00155775       0.01435981      -0.00385026
H        1.68037354       5.14872069       2.48983989       0.00150067       0.00667128      -0.00085361
O        2.48660728       3.15332155       7.02167033       0.00133145      -0.01102310       0.00175855
H        2.55408810       2.31686204       6.52379481       0.00158310      -0.00876823      -0.00142810
H        2.32553912       3.82441210       6.34311805      -0.00082060      -0.00827594       0.00279780
O        6.44344020      11.13429686       8.81901251      -0.00811183      -0.00126532      -0.01484376
H        5.65957540      11.15665789       8.23910249      -0.01259825      -0.00690129      -0.01027967
H        6.10771165      10.91307840       9.69293803       0.00050297      -0.00799422      -0.01326194
O       -0.05011815       1.79288780       1.44281438      -0.00294369      -0.00630017      -0.00077842
H        0.66011613       2.02468376       2.08896330      -0.00199301      -0.00498917      -0.00166437
H       -0.92646778       2.15380418       1.77849094      -0.00231044      -0.00538995      -0.00082631
O        5.43261563       9.24620498       5.16194858       0.00218105       0.00078726      -0.00203048
H        4.86834068       9.61626271       4.43322055       0.00796507       0.00342586      -0.00618301
H        5.31324824       8.28629563       5.12113494       0.00192768       0.00177212      -0.00355142
O       11.02070507       5.29626142       7.49279455      -0.00444718       0.01667839       0.00482339
H       10.65568589       4.40853778       7.64956951       0.00407515       0.01462162       0.01679653
H       10.53527974       5.81606416       8.15742991      -0.01602136       0.02320227      -0.00979492
