139
Lattice="12.43180724147063 0.0 0.0 0.0 12.43180724147063 0.0 0.0 0.0 12.43180724147063" Properties=species:S:1:pos:R:3:forces:R:3 energy=-93107.1640625 stress="-0.0009106475627049804 0.0006123736966401339 0.00028554578602779657 0.0006123736966401339 -0.0008977773832157254 0.00016478681936860085 0.00028554578602779657 0.00016478681936860085 -0.0003399097186047584" pbc="T T T"
Cr      12.55472206      12.25109509       1.87284104      -0.00201720      -0.00145516      -0.00169903
O        0.94535089      11.15425602       0.80844928      -0.01024887      -0.01511770       0.00674057
H        1.76322630      11.34504695       0.32812515      -0.02224022      -0.02290376      -0.01550934
O        0.39660581      12.27281060       3.58619065       0.00921014       0.01964727      -0.00951743
H        1.20334671      12.69176362       3.92412380       0.01192319       0.03230432      -0.01482392
O        9.65469099      12.10716164       9.62885708       0.01832423       0.00917737       0.00665021
H       10.54922900      12.37994211       9.40247743       0.01802623       0.01074579      -0.00691345
O        5.71978846       4.71301985       9.57560598       0.00259131       0.00411278       0.01066405
C        4.64421849       4.75255111      10.50717792      -0.00111896       0.00677153       0.00742123
C        4.60236953       6.08577723      11.23270762      -0.00113412       0.00854897       0.00380403
C        3.32640124       4.40787746       9.82920566       0.00082195       0.00787577       0.00345102
H        4.88259676       3.96618257      11.22916088      -0.00476497       0.00864798       0.00968510
H        3.83454513       6.09059258      12.00734531      -0.00322221       0.01115331       0.00242700
H        5.56585113       6.28877313      11.69956283      -0.00200507       0.00703894       0.00572030
H        4.37844192       6.89454815      10.53131197       0.00161466       0.00768316       0.00238198
H        2.51849151       4.32980187      10.55976312      -0.00122128       0.00972011       0.00104560
H        3.41490203       3.45737537       9.30294270       0.00147982       0.00708179       0.00497028
H        3.05420599       5.17842960       9.10392267       0.00398135       0.00742723       0.00194956
H        5.70796625       5.52307640       9.05671253       0.00456861      -0.00113612       0.00786818
O        9.53593116       9.67028648       9.04063873       0.01095295       0.01310579       0.00180650
C       10.51404785       9.09723908       9.84782472       0.00845063       0.00438975      -0.00170338
C       11.92693388       9.49139202       9.40432487       0.00989312      -0.00187299      -0.00193766
C       10.29979573       9.48217746      11.31180444       0.01278557      -0.00074634       0.00030577
H       10.42611601       8.00136938       9.75257881       0.00365926       0.00540030      -0.00539275
H       12.68844956       8.98457683      10.00280337       0.00713003      -0.00867968      -0.00484739
H       12.07397458       9.23502319       8.35502885       0.00725320       0.00289975      -0.00298937
H       12.06178817      10.56894662       9.51676486       0.01644753      -0.00302845       0.00431979
H       11.11997425       9.13615422      11.94581216       0.01080212      -0.00932365      -0.00247997
H        9.36170070       9.06356974      11.67909467       0.01053780       0.00253744       0.00018983
H       10.23506558      10.57105215      11.36499882       0.01942133      -0.00165501       0.00642776
H        9.55436575      10.70852426       9.23446359       0.01609962       0.01253156       0.00542588
O        8.93408824       5.60575889       7.37083023      -0.01495385      -0.00145262      -0.01349543
C       10.25076576       6.05558521       7.06566709      -0.01259094      -0.00014362       0.00000739
C       10.94139636       5.07474044       6.12872775      -0.00225708      -0.00015408       0.00857258
C       10.23866201       7.47057626       6.50602425      -0.00779805      -0.00079829      -0.00153738
H       10.77483174       6.05931372       8.02574694      -0.02254787       0.00145129       0.00527787
H       11.96444398       5.38423294       5.90536835       0.00008346      -0.00041988       0.02124307
H       10.95061727       4.07154787       6.55575865      -0.00776646       0.00002742       0.00878514
H       10.39962769       5.03115254       5.18035075       0.00908329       0.00030124       0.00255558
H       11.25615616       7.81170935       6.29952930      -0.00642738      -0.00178436       0.00432682
H        9.77450751       8.17236041       7.20157696      -0.01126902       0.00063176      -0.00557873
H        9.68711423       7.48924053       5.56021289      -0.00183039      -0.00204952      -0.00491910
H        8.43898034       5.56404572       6.54151345      -0.00557360      -0.00034799      -0.01839989
O        3.12982601       8.83571343       5.64140598      -0.00176726       0.00154102      -0.00013310
C        3.01828075       8.71227511       4.21898860      -0.00096148       0.00583582      -0.00092930
C        1.56601798       8.65128896       3.79111794      -0.00110626       0.00665151      -0.00108279
C        3.77719944       9.82140711       3.51270474      -0.00163206       0.00911850       0.00388762
H        3.49515859       7.75151746       4.00072979      -0.00059262       0.00736398      -0.00420994
H        1.48744965       8.52595293       2.70989389      -0.00073565       0.01039666      -0.00157467
H        1.05039384       7.82030757       4.27065808      -0.00041604       0.00487489      -0.00383104
H        1.05545081       9.58452705       4.04383775      -0.00158212       0.00533384       0.00165201
H        3.76540972       9.66949237       2.43155104      -0.00115919       0.01402109       0.00326069
H        4.81318813       9.87964223       3.84357773      -0.00153714       0.00766751       0.00403115
H        3.30937579      10.79019162       3.70898035      -0.00190376       0.00784072       0.00795853
H        2.68620400       9.65052783       5.89745876       0.00165563       0.00047757       0.00191554
O        8.47967364       1.35915524       8.18812438      -0.00166160      -0.00402564       0.00706768
C        7.76748622       2.21568874       9.03401640       0.00002623      -0.00310498       0.00668287
C        6.70405283       1.44315870       9.81671825       0.00256503      -0.00157893       0.01148814
C        8.69464677       2.97950658       9.98015343       0.00170594      -0.00013173       0.00236100
H        7.25640400       2.95760582       8.40404171      -0.00233400      -0.00465041       0.00676334
H        6.12615865       2.11267824      10.45704488       0.00324591      -0.00066800       0.01095269
H        6.02405343       0.93408761       9.13090549       0.00188021      -0.00470294       0.01490638
H        7.19352500       0.68720865      10.43507853       0.00530046       0.00114274       0.01278307
H        8.13045366       3.69102861      10.58557659       0.00078560      -0.00150964       0.00266805
H        9.43858010       3.52960040       9.40295956      -0.00111889      -0.00000565      -0.00018261
H        9.20247230       2.26926839      10.63699285       0.00494421       0.00200838       0.00221308
H        8.93830945       0.62768620       8.78015187       0.00646544       0.00275376       0.00706849
O       11.85611682       6.37216748       2.33220049      -0.01136655      -0.01196122       0.00672686
C       10.55397904       6.96374336       2.39357162      -0.00589320      -0.00688812      -0.00219111
C       10.64470325       8.45167027       2.68241581      -0.00576526      -0.00733262      -0.00400747
C        9.76642645       6.64629093       1.13349726      -0.00492108      -0.00806674      -0.00183088
H       10.08585676       6.46979906       3.25287942      -0.00981198      -0.00544380      -0.00127938
H        9.65023319       8.88896089       2.78376463      -0.00417846      -0.00492961      -0.00739001
H       11.19381909       8.63464547       3.60426964      -0.00666372      -0.00593424      -0.00367031
H       11.15202974       8.97282011       1.86697285      -0.00234448      -0.00956953      -0.00424124
H        8.78857105       7.13022639       1.14896846      -0.00562952      -0.00882123      -0.00299164
H        9.61937125       5.57150835       1.02318013      -0.00417376      -0.00793916      -0.00186374
H       10.29704734       7.01995641       0.25602565      -0.00352789      -0.00601716      -0.00023431
H       12.34409935       6.83718735       1.64527359      -0.00101928      -0.00419737       0.00191326
O        9.31705411       2.82056050       1.68956687       0.02383780       0.01297078      -0.03391141
C       10.74110444       2.76899746       1.60742414      -0.01028872      -0.01701707       0.01559594
C       11.38022944       3.15121933       2.92474637       0.01550141      -0.01304121      -0.00479740
C       11.18402287       1.39887945       1.08300993      -0.00216162      -0.00140810      -0.01376694
H       11.00056393       3.51298123       0.84937589       0.00120093       0.00318837      -0.00101399
H       12.46766178       3.13986910       2.85210219       0.00555751      -0.01924093      -0.00162949
H       11.08692458       4.16214084       3.19714873       0.01234929      -0.01816744       0.00732260
H       11.08360343       2.46414028       3.72047517       0.00850329      -0.02267618      -0.00266078
H       12.30758950       1.42053348       0.93710962      -0.00131184      -0.00810859      -0.01447579
H       10.72334084       1.16235662       0.12121536      -0.00264838       0.00366839      -0.00956473
H       10.83570129       0.58793874       1.77932706      -0.00364196      -0.00776266      -0.01537897
H        9.05448010       2.43299266       2.53116167      -0.00201667      -0.03575760       0.03410324
O        6.14210576       2.97829285       4.57034436       0.00737965      -0.00127494      -0.01069397
C        7.07111079       1.88979420       4.72342099       0.00479993      -0.00387403      -0.00466990
C        8.39679103       2.38854393       5.26160702       0.00332528      -0.00399217       0.00026348
C        6.43727302       0.83196236       5.59836558      -0.00179559       0.00122035      -0.00267076
H        7.23789927       1.46075841       3.72274835       0.00613662      -0.00685173      -0.00092185
H        9.09953755       1.56246606       5.37035160      -0.00025594      -0.00721937       0.00611978
H        8.82934785       3.14013383       4.59561064       0.00880481      -0.00887291       0.00045204
H        8.28037922       2.82140185       6.25388746       0.00070163      -0.00149454      -0.00192794
H        7.09142718      -0.03520186       5.66784810      -0.00608341      -0.00210844       0.00030278
H        5.48169156       0.51369697       5.18009045      -0.00226104       0.00499087      -0.00433630
H        6.29286198       1.21960201       6.60494269      -0.00093599       0.00241452      -0.00370890
H        6.63999831       3.81169975       4.65113250       0.00310631      -0.00294412       0.00942581
O        6.56754401      11.59850127       2.69601455      -0.01037440       0.00480950      -0.01646408
C        7.36710962      10.74714992       1.86825326      -0.00521445       0.00033116      -0.01070487
C        6.64391821      10.42945571       0.57131649       0.00061673      -0.00083441      -0.01368070
C        8.72638765      11.37651082       1.64327902      -0.00585639       0.00467363      -0.00626411
H        7.47541757       9.83064137       2.45489781      -0.00541859       0.00253040      -0.01039690
H        7.19433649       9.70088013      -0.02459679       0.00803602       0.00588642      -0.01412028
H        5.65187401      10.03233806       0.78763499       0.00331637      -0.00944364      -0.01801687
H        6.53489699      11.33238333      -0.03264863      -0.00464429      -0.00012976      -0.01196220
H        9.37578819      10.73253111       1.05252044      -0.00219707       0.00479241      -0.00242427
H        9.20977839      11.57997518       2.60122410      -0.01054977       0.00673191      -0.00430663
H        8.61063842      12.31509992       1.09253024      -0.00544453       0.00319892      -0.00756557
H        6.63484708      12.48403733       2.32352238      -0.02257992      -0.00684306      -0.02207325
O        4.80027824       3.62243165       2.27314385      -0.00323963       0.00775063      -0.00113115
C        3.93674736       2.68265217       1.65434372      -0.00057256       0.00340626       0.00462631
C        3.75490340       1.42568310       2.48978673      -0.00739136       0.01157868       0.01465207
C        2.60567391       3.36630511       1.39098510       0.00240993       0.00411677      -0.00725500
H        4.37517266       2.39384687       0.68610478       0.00230920      -0.00662097       0.00884080
H        3.06044722       0.73899182       1.99603842      -0.00398745       0.00739923       0.01694007
H        4.69360217       0.89252060       2.64001831      -0.00779155       0.01293625       0.02481889
H        3.35439510       1.68651810       3.47334668      -0.01139331       0.02110795       0.00965957
H        1.94102983       2.71972181       0.81394287       0.00165877      -0.00058024      -0.00125430
H        2.76035225       4.29253655       0.83770219       0.00648247      -0.00384340      -0.01813357
H        2.12995565       3.61956678       2.33979619       0.00106136       0.01692613      -0.01194428
H        5.23553478       3.23111479       3.05774485       0.00805160       0.00616469      -0.00586494
O        7.40936250       5.44502114       4.74086631      -0.00193739      -0.00028954       0.00515801
C        6.31515619       6.37308588       4.47590910       0.00195397      -0.00162688       0.00605040
C        6.20882445       7.32059443       5.64716620       0.00785801      -0.00204891       0.00727016
C        6.55034703       7.05276450       3.14633798      -0.00562134      -0.00125816       0.00551373
H        5.41268155       5.75772448       4.40882235      -0.00004876      -0.00009733       0.01177140
H        5.35429874       7.98717869       5.53610693       0.00580247      -0.00296281       0.01218576
H        6.07456091       6.75807522       6.57134743       0.01480728      -0.00079562       0.00873074
H        7.11894829       7.91359261       5.74625131       0.00653304      -0.00023551       0.00237579
H        5.73711132       7.73889654       2.90981559      -0.00590304      -0.00118873       0.00888510
H        6.61672559       6.31598560       2.34318129      -0.01003445      -0.00227825       0.00676268
H        7.47606998       7.63442471       3.18158396      -0.00448938      -0.00291238       0.00217568
H        8.06500761       5.54545856       4.04306929      -0.02293837      -0.03468394      -0.02724582
