139
Lattice="11.879594048137191 0.0 0.0 0.0 11.879594048137191 0.0 0.0 0.0 11.879594048137191" Properties=species:S:1:pos:R:3:forces:R:3 energy=-121012.109375 stress="-0.00046490129898302257 -2.191240400861716e-05 0.00012001816867268644 -2.191240400861716e-05 -0.0018181904451921582 0.00015230196731863543 0.00012001816867268644 0.00015230196731863543 -0.00030867967871017754" pbc="T T T"
Cu      10.59399608      11.42259652      -0.44542598      -0.00147724      -0.00593119      -0.00038159
P       10.71962733      10.05044777       1.62001429      -0.00573080      -0.00063068      -0.00037757
O       10.06634739       8.67883296       1.09138248      -0.00251862      -0.00006413      -0.00351018
O       11.94726767      10.26986380       0.71718917      -0.00132179      -0.00074001       0.01141948
O       10.93623402       9.97243231       3.10036348      -0.01883566      -0.00285223       0.00599217
O        9.73978567      11.20676844       1.19045144      -0.00140452       0.00136936      -0.00187795
H        9.13463026       8.56984732       1.37594977      -0.00132768      -0.00289418      -0.00127155
O        5.10540127       1.07990572       6.91251860       0.00391293       0.00209391       0.00937259
C        4.57127623       2.38259407       7.21345269      -0.00257875       0.00215125      -0.00221637
C        5.38293993       3.43533276       6.49274451      -0.00874698      -0.00022674      -0.01248685
C        3.09041463       2.42646808       6.88910857      -0.00276208      -0.00823817      -0.00197795
H        4.71317544       2.48548507       8.29219900      -0.00244092       0.01286170      -0.00344086
H        5.01141444       4.43288956       6.72079128      -0.01463655      -0.00011982      -0.02268300
H        6.43144711       3.38576537       6.78462044      -0.00849771       0.00913031      -0.01223349
H        5.33287032       3.29135992       5.41115898      -0.00811484      -0.01117594      -0.01086305
H        2.65259547       3.37463343       7.20640590      -0.00748181      -0.00809789      -0.00965634
H        2.56039877       1.61987828       7.39490579       0.00174740      -0.00675586       0.00489900
H        2.91914703       2.32727312       5.81439447      -0.00286775      -0.01773324      -0.00104326
H        4.91627538       0.88350417       5.98895141      -0.00178318      -0.01019112       0.01346353
O        3.71625941       5.31279571       9.39497841      -0.00185841      -0.00082743      -0.00702685
C        4.26463660       6.63022346       9.23913483       0.00603926      -0.00360659      -0.00105062
C        5.35448033       6.65065615       8.18341826       0.00930512      -0.00650516       0.00240624
C        3.16183674       7.63626325       8.96011913       0.01243752       0.00320822      -0.00059468
H        4.72213650       6.83791299      10.21043270       0.00452626      -0.00952119       0.00094581
H        5.87167546       7.60766719       8.19577324       0.01745381      -0.01104094       0.00945831
H        6.07940711       5.86155827       8.38338337       0.00192317      -0.01359828       0.00015251
H        4.92097442       6.52654609       7.18891473       0.01096024       0.00213471       0.00066507
H        3.54981909       8.65687643       8.92808995       0.01768248       0.00123507       0.00352989
H        2.38885149       7.58393163       9.72672112       0.01038165       0.00486647      -0.00271381
H        2.70981437       7.43509758       7.98488163       0.01392149       0.00833026      -0.00237346
H        3.13240824       5.15435035       8.64659885      -0.00206394       0.00597885      -0.00822331
O        3.21799952       7.03593599       5.48377921       0.00016245      -0.00818485       0.00217479
C        2.29711997       5.94134318       5.44807731      -0.00130802      -0.00699601      -0.00071682
C        0.86428476       6.43501825       5.42181904      -0.00056767      -0.00493687       0.00185271
C        2.59772169       5.01266552       4.28728480      -0.00367826      -0.00395533      -0.00359899
H        2.48028856       5.40997443       6.38870446      -0.00140601      -0.00986135      -0.00245759
H        0.16999211       5.59411551       5.45130087      -0.00155760      -0.00402083       0.00032511
H        0.66013943       7.09109803       6.27008813       0.00104707      -0.00661881       0.00340611
H        0.66981876       6.99448532       4.50242821      -0.00046645      -0.00277086       0.00322503
H        1.96722387       4.12235303       4.30782125      -0.00364885      -0.00391652      -0.00550783
H        3.64322622       4.70503803       4.30505116      -0.00397281      -0.00460526      -0.00614185
H        2.40698991       5.53262323       3.34804245      -0.00500727      -0.00126329      -0.00180960
H        2.95205322       7.66651933       4.80437577       0.00288549      -0.00750931       0.00208668
O        1.58698389       1.51788056       2.36952787       0.01644403       0.01691309       0.03323472
C        2.35418614       1.59799461       1.17525603      -0.01075357      -0.00045523       0.01475316
C        2.42826176       3.07625637       0.85188402      -0.00844853      -0.00545561      -0.00736929
C        3.74143210       0.99298135       1.35564239      -0.01088184      -0.00522986      -0.00935890
H        1.84248238       1.06778472       0.35920112      -0.03353551      -0.00736007       0.03551388
H        3.04398959       3.27495019      -0.02610470      -0.01976965      -0.01993126      -0.01823588
H        1.42993695       3.48166966       0.68633786      -0.00717632      -0.00112071      -0.00251964
H        2.86415841       3.59598029       1.70674944       0.00531454       0.00283557      -0.02003324
H        4.38481851       1.20699521       0.49999199      -0.03281613      -0.02106771      -0.02877545
H        3.68373456      -0.08898551       1.46646095      -0.01214404      -0.00253084       0.00975238
H        4.20710414       1.40859178       2.25304440       0.01190149       0.00512353      -0.02693571
H        1.38445540       0.60090288       2.59868448       0.00058121       0.02312170       0.04037186
O        0.74250817      11.36397103       4.51577740      -0.00863254      -0.01392543      -0.00523817
C        1.57656127      10.24391284       4.73735720      -0.00180721      -0.00870085      -0.00358997
C        2.41507787       9.96557206       3.49356202      -0.00267690      -0.00570482      -0.00411820
C        2.43491421      10.51713490       5.95772982      -0.00090000      -0.00162880      -0.00600559
H        0.94221207       9.36773139       4.93151681       0.00361317      -0.01214862      -0.00022145
H        2.98575474       9.03394617       3.56035774       0.00167190      -0.00286242      -0.00422227
H        1.77129840       9.90424782       2.61360109      -0.00310653      -0.00697618      -0.00351848
H        3.14100271      10.76885303       3.35079960      -0.00726404      -0.00169106      -0.00387541
H        3.07728318       9.66684659       6.19448766       0.00524833       0.00349690      -0.00516508
H        1.80992446      10.73092656       6.82722539       0.00025859      -0.00367691      -0.00456178
H        3.06426370      11.39122745       5.78293869      -0.00714993       0.00214103      -0.01043063
H        0.00544264      11.00440663       3.94806535      -0.01057948      -0.01865822       0.00003834
O        5.38615370      11.51158089       9.23497586      -0.00054789      -0.00357240       0.00673059
C        6.51223720      10.68845407       8.96407249       0.00297457       0.00076795       0.00917709
C        6.55533409       9.63224556      10.04927134       0.00533113       0.00175843       0.00986242
C        6.41983941      10.11046640       7.55676263       0.00751305      -0.00134099       0.00982064
H        7.43456143      11.28914479       9.03206044       0.00056022       0.00411779       0.00994651
H        7.38790670       8.94218035       9.90479535       0.00917132       0.00603244       0.01275842
H        6.65805509      10.09556117      11.03037498       0.00031814       0.00291662       0.00987019
H        5.62698931       9.05964180      10.03234352       0.00849728      -0.00308034       0.00744763
H        7.18396263       9.35347856       7.37596138       0.01231489       0.00328004       0.01148533
H        6.54925223      10.89823296       6.81407811       0.00345119      -0.00154026       0.00906350
H        5.43860596       9.65717148       7.40375895       0.01055367      -0.00768410       0.00966566
H        5.19194027      11.99674279       8.41647579       0.00219315       0.00021106       0.00826435
O        8.30383030       4.43203365      10.01810837      -0.00934993       0.00348487      -0.00019681
C        8.27335872       3.33137474      10.93712050      -0.00425940       0.00325006      -0.00046086
C        7.02478459       2.49041135      10.73801452      -0.00112879      -0.00142226       0.00043614
C        9.54173218       2.50313283      10.82301773      -0.00127137       0.00804922      -0.00147541
H        8.23867877       3.80621683      11.92052119      -0.00531914       0.00301826      -0.00055426
H        6.96397817       1.70132301      11.48953537       0.00292567      -0.00228490      -0.00024268
H        6.12961717       3.10999750      10.80200100      -0.00347242      -0.00515208       0.00229803
H        7.03761090       2.00442356       9.75842391      -0.00051809      -0.00019863      -0.00000969
H        9.54609817       1.69142603      11.56221599       0.00253989       0.00815120      -0.00164457
H       10.42846475       3.11762280      10.97887796      -0.00373146       0.01161562      -0.00225079
H        9.60306394       2.04253463       9.83242858      -0.00005654       0.00831715      -0.00129129
H        8.40264322       4.06152185       9.13556355      -0.01006935       0.00399347      -0.00063586
O       10.87192606      11.27832462       9.52231264       0.01152843      -0.00052810       0.00184873
C       10.56449003       9.87140500       9.18203103       0.00850748       0.00204925      -0.00619547
C       10.10050720       9.80628779       7.74769988       0.01556762       0.01125595      -0.00876588
C       11.75585765       8.99917234       9.49115897       0.00405657      -0.00280005      -0.00323039
H        9.74392388       9.63782969       9.86554676       0.00429249       0.00168190      -0.01164454
H        9.77449173       8.78973569       7.52192074       0.01585831       0.01311086      -0.01738724
H        9.26244473      10.47983576       7.57548581       0.01701668       0.01295990      -0.00803936
H       10.90010647      10.06386309       7.04919237       0.01864922       0.01578410      -0.00338025
H       11.49229615       7.95224501       9.33220327       0.00230817      -0.00127751      -0.00985206
H       12.06361993       9.12654830      10.53120346      -0.00177440      -0.00861144      -0.00075608
H       12.58678245       9.24003690       8.82175536       0.00878921      -0.00191722       0.00330755
H       11.75012068      11.48190612       9.17988985       0.01651686      -0.00415496       0.01316059
O        7.71107502       5.25668353       5.05618071      -0.00365239       0.00026343      -0.00121728
C        9.01343546       5.73297981       5.41457723      -0.00346696       0.00084504      -0.00319806
C        9.17387127       7.20134682       5.06897665      -0.00343309       0.00004137      -0.00628501
C        9.29528129       5.43577774       6.88047301      -0.00262424       0.00374225      -0.00288951
H        9.68915512       5.14016999       4.79232349      -0.00411025      -0.00045809      -0.00246996
H       10.17647316       7.56342657       5.29657799      -0.00250433      -0.00022414      -0.01081983
H        8.98936803       7.37397634       4.00992375      -0.00714423      -0.00170556      -0.00585404
H        8.46563448       7.80420372       5.64558440      -0.00093691       0.00164447      -0.00496320
H       10.29842263       5.75447482       7.16956791      -0.00233755       0.00388823      -0.00425316
H        9.20935251       4.36287214       7.06564601      -0.00285885       0.00424492      -0.00055490
H        8.58284177       5.95908123       7.52443273      -0.00190698       0.00533143      -0.00364216
H        7.06784094       5.80565877       5.51737301      -0.00338564       0.00109203      -0.00184536
O        4.84551572       8.10355927       0.91329008       0.00064203       0.00374335       0.00312924
C        4.22624281       6.89604455       1.41341914       0.00109868       0.00296277       0.00120145
C        2.83744004       6.74178069       0.82705814       0.00180954       0.00272811      -0.00018507
C        5.13675499       5.70757722       1.16077527       0.00148386       0.00313628       0.00204158
H        4.15297530       7.05102132       2.49416184       0.00016995       0.00283535       0.00104195
H        2.32028117       5.89260422       1.27100152       0.00172561       0.00237399      -0.00118299
H        2.23584191       7.63780333       0.99293267       0.00154175       0.00251967      -0.00059167
H        2.89655004       6.53809341      -0.24366716       0.00289657       0.00332195      -0.00019623
H        4.74661645       4.81878994       1.65787182       0.00118054       0.00301450       0.00148363
H        6.13561464       5.90705672       1.55031145       0.00102749       0.00322041       0.00296795
H        5.20868091       5.49047235       0.09351203       0.00267338       0.00295619       0.00222734
H        4.46058728       8.31427027       0.05758766       0.01226600      -0.00444834      -0.00401786
O        7.46576888       8.45995322       1.94069692      -0.00069785       0.00816256       0.00390375
C        7.17709643       9.46351995       2.92978880      -0.00009272       0.00718772       0.00502455
C        6.71335854      10.74840855       2.26697962       0.00098476       0.00872272       0.00752148
C        6.15482798       8.92864264       3.91892061      -0.00107509       0.00665632       0.00343025
H        8.13428438       9.63817726       3.42932355       0.00008398       0.00574185       0.00533402
H        6.51110736      11.51438722       3.01941787       0.00187724       0.00708280       0.00928283
H        7.48884671      11.12116429       1.59860729       0.00099048       0.00947007       0.00806375
H        5.78935158      10.56922517       1.71272898       0.00057468       0.01082911       0.00754913
H        6.02431529       9.61297946       4.75891252      -0.00131072       0.00526530       0.00433209
H        6.45920733       7.95564980       4.30443567      -0.00265189       0.00569054       0.00198877
H        5.18929546       8.81724672       3.42615752      -0.00067399       0.00862084       0.00212128
H        6.65820660       8.32854102       1.41569516      -0.00181373       0.00678235       0.00576067
