147
Lattice="16.939307615162544 0.0 0.0 0.0 16.939307615162544 0.0 0.0 0.0 16.939307615162544" Properties=species:S:1:pos:R:3:forces:R:3 energy=-1417148.875 stress="-0.0011451187310740352 0.00017800104978960007 6.447784107876942e-05 0.00017800104978960007 -0.0016981540247797966 0.00029948844166938215 6.447784107876942e-05 0.00029948844166938215 -0.0015352884074673057" pbc="T T T"
Cu      18.66135313      17.66278830      -0.66275558       0.01832047      -0.00728594      -0.00256628
S        7.83207184      15.91804143      10.71399605      -0.01208341       0.03012751       0.01262852
O        7.35204506      15.64999533       9.35992033      -0.03055298       0.02177525      -0.00126505
O        7.58331856      14.80404460      11.62757113      -0.02624613       0.01490831       0.01737142
O        7.34432254      17.20215398      11.24135662      -0.02242887       0.01519251       0.00950742
C        9.60870344      16.07741918      10.59689140      -0.02706587       0.01772489       0.00910327
H        9.83320843      16.95697758       9.99771750      -0.02286770       0.01601460       0.00315399
H       10.00603581      16.16498181      11.60639107      -0.02213605       0.02126634       0.00594359
H        9.98107716      15.18059511      10.10880352      -0.02731366       0.01561067       0.01053057
S        9.05109451      15.73705159      15.13637256       0.00544298      -0.00804740      -0.02797005
O        9.89268446      16.22362401      14.03842211      -0.00234890      -0.01728511       0.02409220
O        9.40421869      16.31169073      16.43301488      -0.00047803       0.01078868       0.01846552
O        8.98421381      14.26992911      15.16621085      -0.00668316       0.00978231       0.01352139
C        7.39257484      16.28525298      14.76734667       0.00523210       0.00459188      -0.00768065
H        7.11893561      15.88238037      13.79379822       0.00834201      -0.00385864      -0.00249862
H        6.74385435      15.90386867      15.55419874       0.00014257       0.02094595      -0.00675423
H        7.38802672      17.37265075      14.75984973       0.01262814       0.00672324      -0.02205651
Cl      12.37348246       3.60059859       4.24925498       0.01940016       0.02581432       0.01511081
Cl      11.98518438       5.75843140       6.14676313      -0.02237092       0.03364837      -0.00918627
Cl      10.91935033       3.12764716       6.71323808       0.00835778       0.02416781       0.00565350
Cl       9.75120991       4.74146953       4.59810068       0.00484502      -0.00232793      -0.01529267
C       11.23890307       4.31633611       5.44201396       0.00063048       0.01942116      -0.00045482
Cl       5.82783298       5.84745039      14.77607723      -0.00003065       0.00196330       0.00147188
Cl       6.60528916       4.76598609      12.20661987      -0.00347406      -0.00766540       0.00587210
Cl       5.23605661       7.32216061      12.34532683       0.02484820       0.00648910      -0.00046322
Cl       3.82092500       4.87531541      12.93387185      -0.00379616       0.02355087      -0.00451690
C        5.38327573       5.70282042      13.05456733       0.00427989       0.00548114       0.00030329
Cl      15.68451351      14.16997694       9.80156659       0.01402912       0.02232611       0.00418159
Cl      14.82276361      14.97840413      12.43697952       0.04376179       0.00576299       0.01987022
Cl      13.28395517      15.78721816      10.13346155       0.01176518      -0.00242704       0.04311241
Cl      15.89966215      16.94517288      10.60721673       0.00352016       0.02546087       0.00951048
C       14.90784876      15.47333350      10.74864331       0.02092366       0.01358370       0.02003089
Cl       9.71167002       9.74334511       6.22785290       0.00222152       0.00895473      -0.02044296
Cl       7.54548265      10.05142010       8.12044181       0.02406909       0.00554280       0.00318265
Cl       6.96357408       9.62791497       5.31306149      -0.00737053       0.00288758       0.01262018
Cl       8.08823575      12.14335681       6.19227416      -0.00022538       0.00545812      -0.00271812
C        8.07435009      10.38421391       6.46763128       0.00470390       0.00610374      -0.00201355
Cl       1.72295681       4.47964885       4.13479584      -0.00997391      -0.00169623      -0.00211057
Cl       3.74236573       4.53407851       6.21429696      -0.00738430       0.00308257      -0.00535047
Cl       4.36690500       3.39685196       3.61977204      -0.01243499      -0.00628930      -0.00035402
Cl       2.57112285       2.01527334       5.41747780      -0.01043454       0.00238764       0.00594801
C        3.10863348       3.60701110       4.84844705      -0.01041100      -0.00049464      -0.00039569
Cl       2.59496219      14.79382086       9.37588708       0.01925001      -0.00282583       0.00414941
Cl       4.28509332      15.36831180       7.09589910       0.00182182       0.01842979      -0.00042543
Cl       3.72197618      17.44556602       9.02239700      -0.00323747       0.00648886       0.01027873
Cl       1.60887550      16.49461272       7.27309936      -0.00379106       0.00356117       0.01776659
C        3.06604501      16.03118551       8.18737977       0.00499876       0.00594941       0.00807742
Cl      13.11711032      11.39435034       6.28270433       0.01004611      -0.00094706      -0.00028540
Cl      12.79944060       8.91117871       7.75037217       0.00728780       0.00231311       0.00366005
Cl      15.35648138      10.25867519       7.73496325       0.00348401       0.00830337       0.01455793
Cl      14.38002278       8.97335052       5.32205077       0.02172785       0.00087893       0.01367211
C       13.91225760       9.88625204       6.77032477       0.01028205       0.00232785       0.00814677
Cl      14.26852836       9.27481467      12.63455992       0.00400859      -0.01369135       0.01219066
Cl      16.12611605      11.38264343      11.89371635      -0.01099296      -0.01519418      -0.02639075
Cl      16.52116926       8.68368471      10.92791236      -0.00450408      -0.02588683       0.00709873
Cl      16.95812168       9.29583109      13.72356517       0.00808185       0.01457273      -0.00426531
C       15.97275950       9.66008706      12.29640838      -0.00094448      -0.00995994      -0.00359730
Cl       7.87400622       6.59554676       6.97265396      -0.00075257      -0.00544083      -0.00238103
Cl       8.66956274       5.18919501       9.37293543      -0.00543123      -0.01146050      -0.00490922
Cl       7.24761144       3.78220069       7.27869059      -0.00483033      -0.00472790      -0.00912321
Cl       5.86332991       5.76595889       8.87248324      -0.00246108      -0.00706115      -0.00579616
C        7.42189781       5.33079312       8.12080413      -0.00305298      -0.00744431      -0.00524634
Cl       3.06812808      10.50722177      11.30169817      -0.00505811      -0.01371920       0.00393981
Cl       4.45330209      11.75228245       9.07890847       0.00398317      -0.00667316       0.01434609
Cl       1.87040635      10.51728596       8.65840102       0.00169212       0.00316053       0.00231957
Cl       4.19342582       8.86979578       9.18757303      -0.00434946      -0.00512362      -0.00124881
C        3.39798621      10.41468125       9.55953294      -0.00094891      -0.00566753       0.00507311
Cl       7.38664212      -0.53258090       2.67016729       0.02468921      -0.00441599      -0.00967467
Cl       6.74497930       0.95910552       5.06983805      -0.00941056      -0.01433970      -0.01433283
Cl       7.55164734       2.35635769       2.64552039      -0.01459721      -0.00339115      -0.00879365
Cl       9.48628448       0.81732239       4.14726685      -0.00374997       0.02273554       0.00263013
C        7.78549596       0.88496049       3.62871636      -0.00105966      -0.00052943      -0.00788783
Cl      11.90286679      12.40849972      16.53226875       0.03793341      -0.00178498       0.01473016
Cl      13.59870807      12.24009868      14.20273824       0.00341183      -0.00468624      -0.00561231
Cl      14.41154776      13.86698934      16.46447283       0.02245057       0.01353976      -0.03188363
Cl      12.17588466      14.69395077      14.79984713      -0.00767118      -0.00672448      -0.00543654
C       13.00730848      13.32131345      15.49261473       0.01277937       0.00045542      -0.00794794
Cl      14.60648271       9.67941594      -0.32407162      -0.00203365      -0.00712131       0.00268108
Cl      15.66741874       8.51303621       2.10835729      -0.00009067       0.00367489       0.00699836
Cl      14.50473956      11.16170849       2.15797804       0.00406820       0.00383145      -0.00452679
Cl      17.04398050      10.72566272       0.83058788       0.00025955      -0.00576568      -0.00624710
C       15.44620514      10.03464413       1.18353647       0.00030175      -0.00153062      -0.00073491
Cl      17.23174373       1.49557068       0.57676726       0.01621412      -0.00886948      -0.00418330
Cl      14.27501593       3.66641064       1.24816589      -0.00906736      -0.02602780       0.00436699
Cl      15.73688387       2.69180249       3.50318552      -0.00007087      -0.03370348      -0.00672716
Cl      14.00304495       0.92979337       2.02645472       0.01242924      -0.03407800      -0.01612113
C       14.68707598       2.42148536       2.25402816       0.00075798      -0.03128830      -0.00689392
Cl      12.67986507       6.91134665      18.19447492       0.00118271       0.00154829       0.00430715
Cl      11.63159536       7.53228308      15.57238995      -0.01385186       0.01660258       0.01520661
Cl       9.88128381       6.43358635      17.59640752       0.00504118      -0.01372500       0.01664127
Cl      11.92090483       4.77860958      16.37610249       0.00988628       0.01222906      -0.00351115
C       11.52428905       6.41559237      16.93138396      -0.00095626       0.00608652       0.00642314
Cl      15.85277842      16.35389276       4.76471961      -0.00482018      -0.03538171       0.01246153
Cl      13.13884174      17.29281041       5.29558917       0.00734997       0.00439239      -0.00975385
Cl      15.22643989      17.75444028       7.21944595      -0.00011743      -0.02226275       0.00371683
Cl      14.23168959      15.06069507       6.75812348      -0.03783964      -0.00608751       0.00537415
C       14.60893298      16.60936625       6.01392468      -0.00830719      -0.01501635       0.00258180
Cl       3.33328109       8.45722792       5.63400425       0.00281343      -0.00587883      -0.00558591
Cl       4.50253687       6.88898935       3.49686416       0.00699824      -0.00019705      -0.00609083
Cl       4.13187556       9.72814772       3.14240681       0.00583899       0.00017941       0.00052437
Cl       1.83299098       7.98483280       3.19956266       0.00815988      -0.00217118      -0.00884052
C        3.45260758       8.26815853       3.87410189       0.00603194      -0.00183853      -0.00515245
Cl      11.18513722       4.25414094      12.33597161      -0.02725613       0.00477698      -0.01149181
Cl      11.21994862       2.15777482      14.34756930       0.00580895      -0.00432897      -0.01781934
Cl       9.11708792       2.19874849      12.36484899      -0.01658219       0.00256550       0.01004374
Cl       9.18154293       4.22088158      14.43786731      -0.00186440      -0.00518528       0.01068112
C       10.17177750       3.19453233      13.36693847      -0.00859879      -0.00039409       0.00022849
Cl       7.44911648      13.48718050       0.20994965      -0.02078116       0.00676650       0.00369692
Cl       7.25412014      12.24225186       2.82155523      -0.03520736      -0.01438425      -0.00567442
Cl       5.61915858      11.28746447       0.62144515      -0.02459905       0.00777704      -0.01738501
Cl       5.05277027      13.84994669       1.84016461      -0.02471918       0.00127187      -0.00076726
C        6.36185944      12.73018853       1.36233131      -0.02641437       0.00146147      -0.00529983
Cl       0.66756758       5.55618672      14.53098002      -0.01266940      -0.01845837       0.00691310
Cl       2.68207470       4.82365196      16.49656610      -0.00751150      -0.02570197      -0.00276933
Cl       0.04425593       5.63605989      17.35653259       0.00458932       0.00002208       0.00988364
Cl       1.85596480       7.59014154      16.23156109       0.01383784      -0.02159369      -0.00892875
C        1.31898473       5.89953377      16.14992363      -0.00060634      -0.01692998       0.00114216
Cl      10.31467204      12.49077405       8.89109405       0.01906064       0.02194038      -0.00849533
Cl      10.64326701      10.12121491      10.52344786      -0.01653409       0.01823843      -0.00947100
Cl      10.50035484      12.74683392      11.76382042       0.00025395       0.01614740      -0.00582713
Cl      12.83961288      11.98547696      10.22609595       0.00190866      -0.00403620       0.00821526
C       11.06964868      11.84965290      10.36541496       0.00029193       0.01396646      -0.00325858
Cl       1.97877529       2.15824677      13.57682669       0.03163949      -0.01134449      -0.00390416
Cl       2.01573312      -0.47962270      12.42132639       0.01316938      -0.02487576       0.03111824
Cl       3.26435217      -0.03648936      15.06777318       0.03551832       0.00547320       0.01303115
Cl       4.48872590       1.00520851      12.60602240       0.00907111      -0.03429179      -0.00989917
C        2.93416104       0.70783070      13.30070637       0.02296811      -0.01793367       0.00855696
Cl       0.53480752      11.09196462       4.57265816       0.03032708      -0.01383007       0.00064921
Cl       1.25786309      13.79984915       3.81561103       0.00558840      -0.01489189      -0.01975596
Cl       3.00873872      12.25808346       5.52458166       0.00664431       0.01651818       0.00876044
Cl       0.46713989      13.20569997       6.54149551      -0.00905716       0.00622481      -0.02056330
C        1.31863537      12.58205899       5.11612429       0.00857672      -0.00095920      -0.00662571
Cl       9.04880407      10.17911898      16.61106469       0.00161799       0.01770713       0.00083178
Cl       7.74163289      11.26554403      14.25894607       0.00372797       0.00516927      -0.00441706
Cl       8.09105561       8.40088891      14.54299442       0.01310220       0.00773174       0.00513810
Cl      10.37253724      10.12250307      14.03407600       0.00755817       0.01422378       0.00449693
C        8.80369821       9.99965694      14.85812220       0.00631401       0.01109795       0.00141947
Cl      -0.47750416       5.08272512      10.55821652      -0.00892580      -0.02292249      -0.02076718
Cl       0.39316773       3.80470260       8.10297633       0.01544246      -0.01407894      -0.01899043
Cl       2.28972669       5.27420213       9.73561306      -0.00572509      -0.00525177      -0.00149652
Cl       0.24544483       6.69741209       8.24918339      -0.00302065      -0.01164740      -0.00892979
C        0.61350198       5.21388109       9.15936222      -0.00089840      -0.01288295      -0.01266044
Cl      10.86249344      14.45406538       4.79441754      -0.01040109       0.01165549      -0.00626379
Cl      11.13454855      12.25775240       2.95276518      -0.02568139       0.00096518       0.00649104
Cl      13.27327240      14.20786560       3.20095445      -0.01481521      -0.01050162      -0.00959122
Cl      10.78265704      14.95704530       1.92509137      -0.01005408      -0.00338626      -0.00743532
C       11.49591727      13.98238684       3.19525531      -0.01571065      -0.00067398      -0.00421749
