139
Lattice="12.134100398401067 0.0 0.0 0.0 12.134100398401067 0.0 0.0 0.0 12.134100398401067" Properties=species:S:1:pos:R:3:forces:R:3 energy=-130292.0703125 stress="0.0009073446854017675 0.0004752423701575026 5.623382094199769e-05 0.0004752423701575026 -0.0002773239102680236 -0.00023992493515834212 5.623382094199769e-05 -0.00023992493515834212 0.0005591415101662278" pbc="T T T"
Cu      12.07990091      12.19483300       1.14330804       0.00570384       0.00724895       0.00464508
S        6.61601576      10.43339385      10.72157204      -0.00170175       0.00210941      -0.01077211
N        6.46962872      11.38778192       8.07009570       0.00432245       0.01043165      -0.04127038
C        6.52943391      10.98285825       9.17020709       0.00535517      -0.01736189       0.03876227
S        4.27077513      11.71202922       2.34309343       0.00681520      -0.00303711       0.00120524
N        1.67754000      11.80430390       1.33344495       0.00964296       0.00960092       0.00197393
C        2.77198179      11.77610519       1.77420667       0.00357598       0.00425982      -0.00029074
O        2.37595258       8.72114812       8.16367966      -0.00139797      -0.00142610      -0.00272503
C        3.52541712       9.54821326       7.89514961      -0.00009823      -0.00282380      -0.00096416
C        4.56255665       8.76773795       7.10863366      -0.00119293      -0.00278661      -0.00270018
C        3.11418945      10.82690255       7.18724141       0.00206903      -0.00063211       0.00139204
H        3.92483170       9.78899037       8.88304187       0.00045964      -0.00562088      -0.00056511
H        5.44956073       9.38402441       6.96189123      -0.00046620      -0.00372264      -0.00227147
H        4.84508474       7.86281945       7.64843659      -0.00224513      -0.00413822      -0.00436489
H        4.15752300       8.49282410       6.13072784      -0.00204335      -0.00052783      -0.00309247
H        3.98457719      11.46922339       7.05085510       0.00302340      -0.00114761       0.00394910
H        2.36739337      11.36495268       7.77327354       0.00259951      -0.00093046       0.00234470
H        2.69345360      10.59491315       6.20545696       0.00261220       0.00228180       0.00043918
H        1.99688945       8.49164628       7.30890162      -0.00136422       0.00032768      -0.00326006
O        7.15693615       1.57166399      11.12533868      -0.00169116      -0.00280717       0.00751644
C        6.19960428       2.17329409      10.24748787       0.00326782      -0.00238830       0.00380205
C        4.78506532       1.73410392      10.59180865       0.00056368       0.00279626      -0.00019839
C        6.37046262       3.67326633      10.36596459       0.00754733      -0.00251198       0.00052850
H        6.41334433       1.86198998       9.21668604       0.00546132      -0.00520647       0.00465995
H        4.07138212       2.19715236       9.90754411       0.00396747       0.00354984      -0.00312676
H        4.68704263       0.65124437      10.51098311      -0.00228950       0.00285304       0.00196237
H        4.53639808       2.02995235      11.61253797      -0.00162367       0.00563243      -0.00150734
H        5.69150388       4.19209243       9.68862272       0.01024871      -0.00174567      -0.00139673
H        7.39480578       3.97452766      10.14189829       0.00878996      -0.00599950       0.00172904
H        6.12973078       3.99293602      11.38045999       0.00710549       0.00017852      -0.00022256
H        7.00197947       0.60812756      11.10310180      -0.00059572      -0.00449191       0.00405402
O        9.79593959      10.62697618      11.45358755      -0.00140971       0.00244975       0.00244290
C       10.62772006      10.99166131      10.35119431       0.00086743      -0.00143470       0.00391400
C       11.76588058       9.99776295      10.25992652      -0.00071001      -0.00403833       0.00733556
C        9.83409181      11.08889630       9.06613115       0.00425613      -0.00141602       0.00140595
H       11.05595728      11.98588027      10.56263078       0.00292233      -0.00202668       0.00340277
H       12.47982160      10.27593331       9.48318382       0.00094530      -0.00694385       0.00786617
H       12.30168333       9.93469224      11.20881690      -0.00211476      -0.00323473       0.00829525
H       11.37098913       9.00873077      10.02817953      -0.00228028      -0.00379589       0.00870652
H       10.49007073      11.32258449       8.22653055       0.00687560      -0.00413247       0.00274950
H        9.06563060      11.85773963       9.13374112       0.00569209       0.00033109      -0.00142094
H        9.33158362      10.14392143       8.85838733       0.00268042      -0.00064105       0.00138966
H        8.86143775      10.60745730      11.16166588      -0.00211023       0.00072843      -0.00050159
O        9.97402476       5.88996624       8.58641690       0.00106364       0.00112152       0.00466847
C        9.23576927       7.01310812       8.11357950       0.00511435       0.00286371       0.00261444
C       10.08864189       7.86404929       7.18297578       0.00744343      -0.00276914      -0.00055939
C        7.93559684       6.59313803       7.44454311       0.00251108       0.00626183       0.00546947
H        8.99960201       7.59752762       9.00839082       0.00839835       0.00619861       0.00138462
H        9.55798345       8.77293033       6.89644708       0.01042260      -0.00165860      -0.00308513
H       11.02206328       8.14512733       7.67100307       0.00868197      -0.00444999      -0.00180277
H       10.32493176       7.30687240       6.27305448       0.00509754      -0.00635952       0.00106715
H        7.34663481       7.46976611       7.17068444       0.00575311       0.00795603       0.00366337
H        7.34068437       5.97022221       8.11252288       0.00093037       0.01062649       0.00807910
H        8.14204843       6.01499833       6.54075052      -0.00100058       0.00289237       0.00672312
H        9.95761985       5.20743543       7.89736263      -0.00661907      -0.00307916       0.00903775
O        2.73965597       9.15912940       3.97027239      -0.00530475      -0.00072211      -0.00524324
C        2.72219903       7.95973339       3.19504703      -0.00145718      -0.00085455      -0.00533360
C        1.32798261       7.37281267       3.30737930       0.00244790      -0.00857818       0.00114918
C        3.12386103       8.21373838       1.75492307      -0.00947969       0.00184217      -0.00707853
H        3.43316006       7.24483699       3.63748002       0.00464958       0.00307089      -0.00868008
H        1.29387848       6.37800785       2.86107952       0.00582012      -0.00868256       0.00118846
H        1.03195159       7.29507695       4.35482175       0.00779804      -0.01033497       0.00251856
H        0.61230359       8.02206248       2.79890665      -0.00339276      -0.01240815       0.00454092
H        3.10490490       7.28731898       1.18001236      -0.00834695       0.00239240      -0.00800571
H        4.13058824       8.63115512       1.69500637      -0.01151998       0.00611986      -0.01188307
H        2.43861152       8.92766293       1.29475533      -0.01470941      -0.00044219      -0.00301678
H        3.32835214       9.80479030       3.54985085      -0.00174789      -0.00164661      -0.00155685
O        9.34776288       3.57278836       7.18457498      -0.00434408      -0.00418696       0.01139563
C        9.48028830       2.44955301       6.28923553       0.00168569       0.00501025       0.00096829
C       10.83127504       1.78396862       6.48557457       0.00176585       0.00489891      -0.00025614
C        8.31907669       1.50084028       6.48223377       0.00248963       0.00078148      -0.01438837
H        9.43802920       2.87671279       5.28774927       0.00508973       0.01521975       0.00525653
H       10.94438457       0.94204245       5.80054135       0.00518303       0.01214227      -0.00839345
H       11.64183547       2.49077317       6.30426305       0.00172043       0.00753230       0.01022177
H       10.92465523       1.40782221       7.50658267      -0.00199333      -0.00543364      -0.00381379
H        8.39616366       0.64337789       5.81396096       0.00876736       0.00862868      -0.02340209
H        7.36972743       2.00032892       6.28846645       0.00245923       0.00085802      -0.01404544
H        8.29015665       1.11162811       7.50190323      -0.00190194      -0.01027217      -0.01880543
H        9.09455133       3.22785916       8.04816112      -0.00331086      -0.01372175       0.00770271
O        9.19560073       1.82666495       3.02922502       0.00740242      -0.01411557       0.01323643
C       10.11578163       2.20712419       2.01753753      -0.00501031      -0.00331317       0.00877678
C       11.42513247       2.60998950       2.67768248      -0.00768882       0.00605600       0.00731760
C       10.27890018       1.12957428       0.95428945       0.00186679      -0.00064364       0.00682014
H        9.71243903       3.08768447       1.49868262      -0.01533872      -0.00659341       0.01103696
H       12.14057952       2.99673834       1.94905535      -0.01133969       0.01326839       0.00744988
H       11.24233172       3.38633199       3.42083832      -0.01325437       0.00267629       0.00948948
H       11.88152301       1.75867191       3.19023169      -0.00175259       0.00729752       0.00516141
H       11.01574065       1.43375354       0.18885235      -0.00091597       0.00493181       0.00614913
H        9.35804987       0.93270729       0.39820501       0.00250995      -0.00679384       0.00776552
H       10.44293296       0.09859485       1.41552334       0.00712779      -0.00009146       0.00748990
H        8.78544630       0.96274898       2.86664469      -0.01366174       0.00031662      -0.00615546
O        5.83473484       3.41878429       2.92857097      -0.01309937       0.00686932       0.01861545
C        6.24932753       4.79214475       2.99533048      -0.00884530       0.00650084       0.00777391
C        7.76057693       4.92054820       2.94709584      -0.00841260      -0.00164001       0.00561029
C        5.56965009       5.62047846       1.92080272      -0.00698975       0.00036794       0.00204694
H        5.89259042       5.12075896       3.97494128      -0.00686084       0.01458320       0.00568217
H        8.05722333       5.95111749       3.15308270      -0.00226441      -0.00165699      -0.00413949
H        8.23442081       4.25820525       3.67017477      -0.01173250       0.00222795       0.01155627
H        8.12969929       4.66159656       1.95117970      -0.01094012      -0.01341303       0.00792137
H        5.74913573       6.68327965       2.08965489       0.00116369       0.00082052      -0.00988116
H        4.49530331       5.44411506       1.92233397      -0.00818378       0.00807549       0.00769752
H        5.95979381       5.37062297       0.93258555      -0.01251423      -0.01274344       0.00334792
H        6.29770938       2.98115026       2.20493537      -0.03179583       0.00619016       0.00741272
O        7.93978096      11.36543720       3.27430188       0.02342331       0.01435903      -0.02797049
C        8.46763106      10.09559634       2.85432576       0.00795970       0.00351185      -0.01482154
C        9.02255482       9.32112866       4.03734802       0.00184731       0.01163515      -0.00656551
C        7.44075599       9.29660141       2.07600784      -0.00740719       0.00994223       0.00007406
H        9.28693262      10.36090042       2.18144752       0.00828299      -0.01468794      -0.02083951
H        9.57902440       8.44616776       3.69500509      -0.01710265      -0.00350639       0.00324926
H        9.69236404       9.94324153       4.63011222       0.01786661       0.00740544      -0.02062961
H        8.21445146       8.97039138       4.68439456      -0.00016667       0.03706317       0.00376821
H        7.91768308       8.43968665       1.59613633      -0.02483356      -0.00496399       0.01099518
H        6.97523180       9.90711363       1.30369835       0.00083186       0.00772724      -0.00695695
H        6.65861361       8.92342986       2.74362116      -0.01125683       0.03435570       0.00842561
H        7.12240664      11.21825385       3.76462920       0.02354519       0.02927175      -0.02458994
O        3.24202177       5.89855169      10.92320185      -0.00118011      -0.00176886      -0.00839040
C        1.89757512       5.69997931      10.46960145      -0.00213337      -0.00797325      -0.00247982
C        1.39500414       4.43390495      11.13008811       0.00473537      -0.00702739       0.00452712
C        1.03020285       6.90103389      10.78575936      -0.00487155      -0.00934583      -0.00436595
H        1.90809414       5.55708449       9.38018056      -0.00576080      -0.01252402      -0.00203627
H        0.37822679       4.22446954      10.79473031       0.00374502      -0.01105843       0.01043460
H        2.03332227       3.58521574      10.88510594       0.00568826      -0.00623710       0.00429276
H        1.39128219       4.55788679      12.21458372       0.00927656      -0.00333743       0.00412183
H        0.02425803       6.75233998      10.38978902      -0.00546607      -0.01312683      -0.00153917
H        1.44221874       7.79772066      10.32182893      -0.00810196      -0.00967944      -0.00804059
H        0.96741619       7.05204442      11.86521844      -0.00261772      -0.00590128      -0.00469029
H        3.54364279       6.73762527      10.56099919      -0.00533130      -0.00213197      -0.01304879
O        2.94845807       3.74270745       3.35157003       0.00648698      -0.00160287      -0.00242019
C        2.60073491       3.50304570       4.71195322       0.00354813      -0.00154853      -0.00364280
C        3.01996458       2.11091595       5.15478822      -0.00154671      -0.00332600      -0.00341728
C        3.16959934       4.58232566       5.62527865       0.00555030      -0.00448859      -0.00113273
H        1.50777477       3.57358326       4.73688963       0.00371975       0.00175425      -0.00575544
H        2.72123791       1.92573715       6.18844452      -0.00732498      -0.00406861      -0.00516942
H        2.57674950       1.34630123       4.51728773       0.00001365      -0.00143471      -0.00688468
H        4.10580571       2.00815086       5.09156250      -0.00148821      -0.00560443       0.00223270
H        2.83033902       4.44017701       6.65377443      -0.00154651      -0.00107127      -0.00305074
H        2.85810873       5.57222181       5.29151164       0.01444424      -0.00277244      -0.00409405
H        4.26105483       4.54416461       5.62284703       0.00527908      -0.01212576       0.00582064
H        3.86622471       3.45612258       3.21072448       0.01022127       0.00648290       0.00228883
