144
Lattice="12.943853518437145 0.0 0.0 0.0 12.943853518437145 0.0 0.0 0.0 12.943853518437145" Properties=species:S:1:pos:R:3:forces:R:3 energy=-127060.1640625 stress="-0.0018125703791156411 0.00031460775062441826 -1.7884306544146966e-05 0.00031460775062441826 -0.0007029857952147722 0.00032119033858180046 -1.7884306544146966e-05 0.00032119033858180046 -0.0031821629963815212" pbc="T T T"
Cu      13.87748127      13.75389577       0.88785971       0.02498135       0.00771871       0.02026962
O       11.94205513      13.06594667       5.76601713       0.01352954       0.01318884      -0.00595725
O       11.17659258      11.04166513       5.52852147       0.00806490       0.01384163       0.00884461
O        9.80958659      12.73086771       5.55759027       0.00985479       0.01471114       0.03353801
N       10.98311079      12.27583562       5.61691386       0.01015793       0.01463171       0.01200868
O        1.25458115      11.88389292       1.12007974       0.01200569       0.00054438       0.00524795
O        2.67479197      13.20694854       2.09407211       0.01412022      -0.01707494       0.00470659
O        2.77306242      11.05532848       2.45291994       0.01667851      -0.02137315       0.00504160
N        2.27793760      12.01464663       1.93011558      -0.00099128       0.03037032      -0.01272099
C        4.97621420       2.49998261      11.54729203      -0.02587869      -0.00607218       0.00496234
C        6.28353072       2.96843822      11.46928425      -0.02520306      -0.00474266       0.00295740
C        3.93899056       3.43396817      11.48343884      -0.02956942      -0.00813962       0.00389868
C        4.69455393       1.03693788      11.71329396      -0.02012126      -0.00696221       0.00474858
C        6.55589538       4.32847377      11.37515326      -0.02562024      -0.00502672      -0.00079811
C        4.20792941       4.79185278      11.37682922      -0.02651745      -0.00874685       0.00636375
C        5.52070002       5.24744741      11.34089351      -0.02732283      -0.00690693       0.00179570
H        7.10131679       2.25707419      11.47903637      -0.02317226      -0.00374942       0.00084711
H        2.91141391       3.08671454      11.50390443      -0.03088253      -0.00092822      -0.01522795
H        3.87917152       0.70862090      11.06722809      -0.02194737      -0.00707722       0.00772884
H        5.57564508       0.43878872      11.47915486      -0.02008516      -0.00589833       0.00203533
H        4.40593178       0.81460980      12.74434147      -0.01706045      -0.00789797       0.00511357
H        7.58250258       4.66715731      11.30984959      -0.02640674      -0.00345034      -0.00568200
H        3.39792751       5.50450337      11.29749726      -0.02633668      -0.00846797       0.00836200
H        5.72923206       6.30426067      11.24700136      -0.02891351      -0.00675717      -0.00165503
C        8.90532731      10.34635705       8.36290085      -0.00601669      -0.00103999       0.00511936
C        8.57333266      10.71970264       9.66511189      -0.00877860      -0.00827008       0.00611520
C       10.06942135       9.59522412       8.17048039      -0.00117067       0.00789895       0.00239834
C        8.04727378      10.71652782       7.19517162      -0.00739723      -0.00292949       0.00581586
C        9.36298446      10.34370609      10.74659881      -0.00632527      -0.00652817       0.00452344
C       10.85317720       9.20837236       9.24727903       0.00127854       0.00958627       0.00084819
C       10.50259798       9.57706712      10.54310981      -0.00106883       0.00253920       0.00190385
H        7.68053638      11.31211035       9.83234788      -0.01268473      -0.01514388       0.00812090
H       10.36011613       9.32864850       7.16362460       0.00089731       0.01456943       0.00149059
H        7.79111356       9.82675723       6.61595681      -0.02353827      -0.00631750       0.01830212
H        7.12128909      11.19313496       7.51667766       0.00086351       0.01312255       0.00503872
H        8.58462397      11.39770875       6.52554607      -0.00179258      -0.01691157      -0.00311410
H        9.08748843      10.65027117      11.74850558      -0.00805870      -0.01203698       0.00550333
H       11.74510523       8.61845256       9.07360714       0.00552988       0.01690301      -0.00096587
H       11.11700632       9.27768317      11.38327432       0.00116902       0.00451592       0.00063006
C        2.46251731      10.12132702       5.34636401       0.00430037      -0.00343446       0.00543053
C        1.89409782       8.84684935       5.37805316       0.00066936      -0.00217155      -0.00388461
C        3.82573778      10.22240445       5.06120451       0.00536335      -0.00629762       0.01122582
C        1.62288170      11.33706379       5.57806238       0.00781560      -0.00237900       0.01149204
C        2.65790181       7.71393785       5.12210719      -0.00142435      -0.00246444      -0.00725862
C        4.59162760       9.09660222       4.79609861       0.00324990      -0.00701402       0.00810977
C        4.00937827       7.83506533       4.82281222      -0.00012185      -0.00522967      -0.00117215
H        0.83369343       8.75609069       5.58675540       0.00022507      -0.00064019      -0.00812716
H        4.27774736      11.20568368       5.00100434       0.00895827      -0.00755826       0.01952467
H        1.98283506      12.18285245       4.99151670       0.00828161      -0.00033775       0.01476876
H        0.57576385      11.16908592       5.33319377       0.00678471       0.00332786       0.01271783
H        1.64053476      11.64629422       6.62626011       0.01142503      -0.00675770       0.01246983
H        2.19653062       6.73349993       5.15311895      -0.00455788      -0.00098656      -0.01559840
H        5.64040534       9.20721995       4.54845247       0.00415462      -0.00851229       0.01334545
H        4.60511111       6.95358592       4.62114350      -0.00181304      -0.00550368      -0.00352471
C       11.45379562       2.86904884       0.79512696       0.01811889       0.00781436      -0.00353540
C       10.57804192       1.80142325       0.60260543       0.01877500       0.00733678      -0.00473582
C       10.95489203       4.16802089       0.80541346       0.01684488       0.00686368      -0.00273911
C       12.91402450       2.62282860       1.02588482       0.01805394       0.00900196      -0.00521103
C        9.21963755       2.02718941       0.46018711       0.01939462       0.00685826      -0.00659288
C        9.59382904       4.39431387       0.66051838       0.01729292       0.00623074      -0.00492460
C        8.72693537       3.32368736       0.51122487       0.01795101       0.00621869      -0.00857039
H       10.96293740       0.78684113       0.59908598       0.01990290       0.00812174      -0.00615275
H       11.63402908       5.00040969       0.94799271       0.01597685       0.00753815      -0.00240296
H       13.48902978       3.53684092       1.16571937       0.01825288       0.00960425      -0.01266291
H       13.04085865       2.02046615       1.95807386       0.02106395       0.01540898      -0.00067268
H       13.34217783       2.15520599       0.06883042       0.01571325      -0.00003368      -0.00158903
H        8.53469893       1.19309130       0.36662075       0.02076960       0.00615342      -0.00810519
H        9.20024651       5.40282704       0.70700210       0.01717846       0.00588758      -0.00554347
H        7.66398567       3.49335322       0.49155330       0.01808830       0.00557646      -0.01401221
C        6.10155629       2.97990589       3.24544317      -0.01997283      -0.01306100      -0.00667102
C        7.30194573       3.68450033       3.26872450      -0.01916219      -0.01494503      -0.00468827
C        6.14630568       1.59070331       3.38882971      -0.02276179      -0.01262054      -0.00184292
C        4.80151861       3.70964463       3.06640313      -0.01842043      -0.01322384      -0.01563541
C        8.51224477       3.03003138       3.44097638      -0.02093297      -0.01627298       0.00007554
C        7.36075315       0.93561140       3.56454501      -0.02457738      -0.01344644       0.00365434
C        8.54923212       1.65411763       3.59268555      -0.02354762      -0.01605520       0.00445958
H        7.29074841       4.76333016       3.15948391      -0.01735284      -0.01536499      -0.00804660
H        5.22168994       1.02465297       3.36989057      -0.02337585      -0.01099368      -0.00337601
H        3.97688277       3.16633744       3.52747329      -0.02045141      -0.01119524      -0.01765721
H        4.85101101       4.70562979       3.51026940      -0.02030947      -0.01158905      -0.01947026
H        4.55934078       3.83920688       2.00712547      -0.01269474      -0.01746247      -0.01728380
H        9.42934615       3.60358134       3.46661332      -0.01996528      -0.01825352       0.00039089
H        7.39040525      -0.13785210       3.70327774      -0.02779643      -0.01321569       0.00716889
H        9.48310549       1.14170674       3.77431546      -0.02470140      -0.01614077       0.00870550
C        6.02748176       5.30677626       8.27109542      -0.01427426       0.00088362      -0.00592635
C        7.10333220       6.10865023       8.64877393      -0.01040652      -0.00760868      -0.00093350
C        4.80601489       5.92316976       8.00469513      -0.01056197       0.00929215      -0.00310240
C        6.16064367       3.81708091       8.17706143      -0.02237918       0.00107858      -0.01384356
C        6.96053581       7.48347300       8.77496345      -0.00289483      -0.00795186       0.00774068
C        4.65544113       7.29800756       8.12482139      -0.00265090       0.00899315       0.00426317
C        5.73457100       8.08296905       8.51415296       0.00085583       0.00037605       0.01054628
H        8.06912506       5.65177191       8.83439884      -0.01365320      -0.01437646      -0.00234591
H        3.96207269       5.31135907       7.70372649      -0.01376364       0.01650397      -0.00754325
H        5.82182557       3.43981326       7.20987322      -0.00919609       0.00958562      -0.02157509
H        7.19327806       3.50397823       8.31913425      -0.02691817      -0.00694853      -0.00018225
H        5.55679989       3.32991542       8.94422234      -0.03764859       0.00026548      -0.02657565
H        7.81000358       8.08960000       9.06110640      -0.00030400      -0.01454110       0.01290926
H        3.70345408       7.75842110       7.89521345       0.00048359       0.01578867       0.00525538
H        5.62496440       9.15700862       8.59278819       0.00653427       0.00001270       0.01846692
C       10.79349362       2.20059370       9.24349036       0.01228504      -0.00295489      -0.00259297
C       11.90505205       2.52645001       8.46327008       0.01421122      -0.00563568      -0.00053294
C       10.27679942       3.17243610      10.10091122       0.01214437      -0.00141313      -0.00472689
C       10.13720509       0.85987346       9.10858624       0.01345743      -0.00356466       0.00134715
C       12.47283391       3.79143972       8.53856185       0.01841789      -0.00782752       0.00397796
C       10.83673626       4.44285285      10.16833731       0.01207180      -0.00174242      -0.00616868
C       11.93725115       4.75827724       9.38327530       0.01493801      -0.00473413      -0.00244086
H       12.28168593       1.79447813       7.75665140       0.01530857      -0.00736769       0.00181699
H        9.41211213       2.93719998      10.71009230       0.01103599       0.00043964      -0.00594901
H        9.07802262       0.91585218       9.36528559       0.01608460      -0.00600524       0.01135112
H       10.22197153       0.48616022       8.08677688       0.00447876      -0.00123160       0.00001618
H       10.59117428       0.11755837       9.76940763       0.02087235      -0.00400856      -0.00434685
H       13.32404972       4.03553468       7.91431357       0.03798388      -0.01590982       0.02750161
H       10.40628017       5.18743996      10.82681680       0.01220620      -0.00055872      -0.00808276
H       12.36178526       5.75367948       9.41861135       0.01783271      -0.00609865      -0.00153648
C        9.21059051       4.62732838       6.02245694       0.01075625       0.01942224      -0.00568864
C       10.40258512       5.33952427       5.87451959       0.01333225       0.01537762      -0.00280172
C        8.01752320       5.30252342       5.77455152       0.01373434       0.02254960      -0.01054979
C        9.20920078       3.19158878       6.44738166       0.00544073       0.02181995       0.00138134
C       10.39548271       6.67697641       5.49918969       0.01881547       0.01490217      -0.00341615
C        8.00136442       6.64127440       5.41070168       0.01967990       0.02182053      -0.01281577
C        9.19298300       7.33817786       5.26856093       0.02211489       0.01827729      -0.00867075
H       11.34207032       4.83051267       6.05431782       0.01082818       0.01304613       0.00233237
H        7.08466279       4.76341519       5.85806053       0.01147984       0.02653051      -0.01086856
H        8.29225831       2.68686086       6.14905301       0.00328422       0.02414431       0.00519876
H       10.04394805       2.62717209       6.03094167       0.00264090       0.01636204       0.00364156
H        9.29609244       3.12141086       7.53188193       0.00648747       0.02729342       0.00165373
H       11.32902337       7.21302233       5.38592833       0.02075714       0.01244854       0.00146518
H        7.05079182       7.13878695       5.25629865       0.02205680       0.02439791      -0.01742290
H        9.19325122       8.38381356       4.98892725       0.02649181       0.01822621      -0.00820704
C        3.48606367       8.16063192       0.40054693       0.00190996      -0.00154185       0.00641238
C        4.78562022       7.73266226       0.67471817       0.00095467       0.00018933       0.01204146
C        3.29475219       9.47969383      -0.00210022       0.00348145      -0.00657175      -0.00967943
C        2.31200574       7.24630768       0.59398582       0.00121680       0.00238574       0.01599506
C        5.86037402       8.60607203       0.57098214       0.00192840      -0.00267734       0.00230563
C        4.36564181      10.35816524      -0.10024325       0.00469056      -0.00924218      -0.02021331
C        5.65250200       9.92781167       0.19203925       0.00438944      -0.00780424      -0.01414684
H        4.95455399       6.70360287       0.97194272      -0.00059070       0.00387990       0.02391313
H        2.29057497       9.83638284      -0.19411730       0.00445996      -0.00762256      -0.01481300
H        1.45439666       7.58037660       0.00990114       0.00350860      -0.00826493       0.00701817
H        2.55127171       6.22133204       0.31017265       0.00354883      -0.00148548       0.03387561
H        2.01085997       7.23393178       1.64472049      -0.00338858       0.01971053       0.01470003
H        6.86264560       8.25677444       0.78857250       0.00116339      -0.00105360       0.00744098
H        4.18669329      11.38953515      -0.37666435       0.00645573      -0.01372871      -0.03402768
H        6.48614026      10.61711605       0.13625393       0.00488412      -0.01000565      -0.02285222
