146
Lattice="12.706869424281232 0.0 0.0 0.0 12.706869424281232 0.0 0.0 0.0 12.706869424281232" Properties=species:S:1:pos:R:3:forces:R:3 energy=-548709.25 stress="0.0004867234092671424 -0.0009114917193073779 0.00024063434830168262 -0.0009114917193073779 -0.0005599688156507909 -4.018028448626865e-05 0.00024063434830168262 -4.018028448626865e-05 0.0004001664638053626" pbc="T T T"
Cu      12.27039271      13.06921696      -0.43701307      -0.01937592      -0.02152035      -0.01169619
I        1.47861563      11.26603283       0.57986829      -0.01197955      -0.00993979      -0.00345078
O       -0.10068520      11.08196409      -0.32528807      -0.01307058      -0.00954649      -0.00109437
O        1.44985823      10.47082435       2.15912516      -0.00033806      -0.00819868      -0.00390261
O        2.86398941      10.73539247      -0.39613482      -0.02044889      -0.01446559      -0.01173030
O        1.33217217      13.08683700       0.65229714      -0.01168516      -0.01146048      -0.01109295
I        0.91342088       9.41172706       6.01756291      -0.00627772       0.00006317      -0.00389319
O        0.68395087       8.77184892       7.68449997      -0.00124444      -0.00757667      -0.00727820
O        0.87501906       8.06582660       4.84554693      -0.00608306       0.00661886      -0.00908041
O       -0.40233402      10.59333760       5.70726655      -0.01305938      -0.00258279       0.00148165
O        2.51454077      10.21165968       5.94297937      -0.01046300       0.01053208      -0.00223972
O        8.45567855       9.76339983       9.87321731       0.01222879       0.00762570       0.01758237
O        6.59266924       8.74984168      10.24053270       0.01125827       0.00834507       0.01906494
O        6.74839159      10.94567033      10.78727656       0.00750548       0.00966275      -0.00674087
C        9.27885814      10.95034773       9.91255092       0.00858915       0.01104717       0.00636345
C       10.58623866      10.62250407       9.24047472       0.00795990       0.00820893       0.00614479
C        7.21351887       9.92244681      10.34588065       0.00539595       0.01877147       0.01294446
C        5.21976918       8.72978343      10.67418629       0.00946975       0.01135504       0.01536907
H        8.74203229      11.75651273       9.40698284       0.00554323       0.00503808       0.00083280
H        9.40753632      11.23285655      10.96209721       0.00997573       0.01967267       0.00376731
H       11.25918349      11.48021253       9.27844099       0.00587440       0.01055558      -0.00234727
H       11.09201708       9.79553617       9.73734635       0.01100984       0.01305974       0.01100898
H       10.43569693      10.36890276       8.19282730       0.00614493       0.00043198       0.00834614
H        5.15952644       8.95837732      11.73732890       0.00659721       0.01849265       0.01354972
H        4.88379022       7.71701137      10.47426092       0.01110070       0.00937980       0.02146997
H        4.63454971       9.45046354      10.10694172       0.01098332       0.00674590       0.00852695
O        3.08468509       3.27864756      10.95239467      -0.00192208       0.00111705      -0.00320544
O        1.93814083       5.09694449      11.15677947      -0.00081491       0.00221702      -0.00275330
O        4.18825449       5.20801224      11.39864976      -0.00488186      -0.00350845       0.00560403
C        4.35758268       2.57924947      10.90842788      -0.00207542      -0.00079423      -0.00061713
C        4.06912139       1.11120895      10.75963946      -0.00514971       0.00023097      -0.00475344
C        3.17520644       4.58457763      11.18779505       0.00475442       0.00390035       0.00185521
C        1.87266982       6.51485666      11.37912004       0.00052932       0.00153856       0.00165246
H        4.93621241       2.98102760      10.07522332       0.00042552      -0.00017405       0.00181967
H        4.89866460       2.80043608      11.82773245      -0.00467728      -0.00376092       0.00123340
H        5.00332452       0.54815999      10.73888669      -0.00612961      -0.00170408      -0.00340523
H        3.47650951       0.74818537      11.59826697      -0.00845414      -0.00070934      -0.00745162
H        3.52666965       0.91177539       9.83608587      -0.00279836       0.00376948      -0.00700527
H        2.29661497       6.76964980      12.34941033      -0.00199974      -0.00171584       0.00337514
H        0.81663615       6.76207796      11.34264944       0.00052935       0.00239923      -0.00027308
H        2.40932170       7.05126092      10.59895493       0.00262454       0.00363065       0.00459677
O       10.59282682       7.53358279       6.24976521      -0.01333177      -0.00284034       0.00625465
O       10.10542089       8.67671866       4.50372712      -0.01505375      -0.00093739       0.00849432
O        9.08265632       9.21439421       6.45506842      -0.00590670       0.00654078       0.01421273
C       10.40217435       7.17171564       7.63122833      -0.00555038       0.00348529       0.00888740
C       11.47081392       6.16266161       7.95582921      -0.00946575      -0.00116250       0.00701910
C        9.85441064       8.55142798       5.80647509      -0.00695115      -0.00227463       0.00645810
C        9.30222779       9.64140411       3.82973985      -0.00701680       0.00978453       0.01556209
H       10.49407319       8.06551076       8.24340620       0.00385422       0.00588393       0.00454122
H        9.38916828       6.77445375       7.74369999      -0.00724727       0.01004922       0.01747636
H       11.37968389       5.83999363       8.99399328      -0.00472789       0.00506706       0.00932333
H       11.39733797       5.28809057       7.30781864      -0.01947410      -0.00425391       0.01223131
H       12.44195211       6.63187553       7.81328420      -0.00735798      -0.00804865      -0.00172455
H        8.26581806       9.30579779       3.79793229      -0.00978607       0.02102065       0.01362894
H        9.70286464       9.70144170       2.82262648      -0.01358989       0.00675777       0.01878479
H        9.36895198      10.60552356       4.33014083       0.00548628       0.00712997       0.01775610
O        5.92646391       9.08833704       2.02422353      -0.01675256      -0.00189584      -0.00377832
O        7.36244694      10.62842190       1.56758072      -0.01351479      -0.00803407      -0.01186405
O        5.38190598      11.24079380       2.47996256      -0.01091349       0.00221741      -0.00985956
C        4.62747651       8.65966679       2.51724153      -0.01567061       0.00331497       0.00172094
C        4.69391054       7.16641493       2.66817119      -0.01994842       0.00342286       0.00506330
C        6.13804526      10.39870093       2.06108990      -0.01164109      -0.00355917      -0.00956553
C        7.75883239      12.00403043       1.62320559      -0.00870666      -0.00883227      -0.01575317
H        4.41872674       9.16601293       3.45812366      -0.01089317       0.00635806       0.00137138
H        3.87517159       8.97427217       1.79269893      -0.01803356       0.00381453       0.00410357
H        3.72990776       6.80183563       3.02167291      -0.01930341       0.00758964       0.01077453
H        4.92930152       6.69307280       1.71250125      -0.02603634       0.00035722       0.00523366
H        5.44947552       6.88674501       3.40315514      -0.01704514       0.00275508       0.00216191
H        7.14599253      12.60692573       0.95665480      -0.01105258      -0.00787205      -0.01242661
H        8.79842156      12.02236710       1.30862685      -0.01058859      -0.01266671      -0.02236385
H        7.67379053      12.39126780       2.63587248      -0.00122342      -0.00819978      -0.01539913
O        9.25598906       1.74147782       2.49025546       0.00325698      -0.00477201      -0.00389521
O        7.59145150       2.63538329       1.45097381       0.00668988      -0.00655233      -0.00059651
O        9.63395055       3.58835019       1.23506824       0.00627267      -0.00881797      -0.01459736
C       10.60803083       1.78365860       3.00710476      -0.00142370      -0.00923449      -0.00867093
C       10.67762336       0.74326629       4.09354365      -0.01235280       0.00757769      -0.02186710
C        8.89960802       2.74190157       1.68352193      -0.00198370      -0.02744120       0.00526738
C        6.99822494       3.79727259       0.84853476       0.00064392      -0.00722716      -0.00370330
H       11.30709625       1.58008726       2.19119010      -0.00327352      -0.01561187      -0.00328803
H       10.80623210       2.79266936       3.37361210       0.00575804      -0.01408529      -0.01193643
H       11.67669341       0.68355914       4.51857605      -0.01679339      -0.02641111      -0.00258240
H        9.97564427       0.97993573       4.89404300       0.00820483      -0.00197463       0.00643696
H       10.43117543      -0.23959489       3.69817715       0.00329935      -0.01011045       0.00767063
H        7.28716499       4.68773178       1.40558470       0.00534672      -0.00656652      -0.00646572
H        5.92773281       3.64337388       0.92565230      -0.00085133      -0.00542285       0.00108026
H        7.28890700       3.89476611      -0.19480081      -0.00078717      -0.01268851      -0.00503927
O        7.81263266       3.82712951       4.25710627       0.00300656       0.00223848      -0.00258049
O        6.70141208       1.97910954       4.32921222       0.00155726       0.00422725       0.00178054
O        7.71357623       2.70405887       6.22287614       0.01627851      -0.00087689       0.00236869
C        8.64609280       4.84970527       4.87891034       0.00991344      -0.00132579      -0.00783104
C        9.25140434       5.66347373       3.77263884       0.00218052       0.00190881      -0.01004320
C        7.43781062       2.82812437       5.05482791       0.00485560       0.00229900      -0.01112473
C        6.17895182       0.85672155       5.05880950       0.00500946       0.00290833       0.00185168
H        8.00794305       5.45656832       5.52087995       0.01726109      -0.00217012       0.00084156
H        9.39541206       4.34881464       5.49299267       0.01513746      -0.00474507      -0.01614890
H        9.92348783       6.40431448       4.19678273       0.00962533      -0.00300235      -0.01337616
H        9.81608079       5.04057771       3.08254857      -0.00786749       0.00180179      -0.01882893
H        8.47717197       6.18887459       3.21137194      -0.00128163       0.00817709       0.00031845
H        6.98220102       0.32884398       5.57132795       0.00808358       0.00080350      -0.00399154
H        5.71344202       0.21722585       4.31389381      -0.00112630       0.00406879       0.00458571
H        5.44782056       1.19723183       5.79165739       0.01033586       0.00209829       0.00790441
O        3.25913384       4.73183817       4.80884209      -0.00525783       0.00305599       0.00111943
O        2.78270769       5.91980872       6.54634519       0.00155001       0.00193298      -0.00773090
O        3.14719580       3.70193841       6.82347514       0.00631292      -0.00529718       0.01041472
C        3.65136163       3.47602335       4.22035046      -0.00072012       0.02376676      -0.01251656
C        3.59081351       3.63964359       2.72428685      -0.00026470       0.00623725      -0.01354849
C        3.06757351       4.69223457       6.13452290       0.00263797      -0.00133491      -0.00046414
C        2.47566068       6.03429216       7.94600414       0.00178006       0.00081891       0.00091309
H        4.66321127       3.24146936       4.54936376       0.00227737      -0.01290439       0.00513799
H        2.98832772       2.69198026       4.58162454       0.02313927       0.00035453       0.00939903
H        3.87219356       2.70354309       2.24061885      -0.00956801       0.00123388       0.00286771
H        2.58465340       3.90705845       2.40113214      -0.00201622      -0.00500890       0.00654794
H        4.27512498       4.42094306       2.39612298      -0.01852767      -0.01425324       0.00776657
H        1.71461979       5.30679432       8.22271185       0.00141183      -0.00159261       0.00304396
H        2.10294267       7.04965929       8.06383608       0.00015558       0.00105304       0.00125101
H        3.37633009       5.87041892       8.53483344       0.00415394       0.00152867       0.00240025
O       10.36201798       3.82350397      11.00327774       0.01775113       0.00206241      -0.00852843
O        9.74351133       5.84170483      11.46701439       0.01317188       0.00305790      -0.01315042
O        8.24798912       4.44385918      10.50033341       0.02911794      -0.00491813       0.01278234
C       10.01205964       2.48455546      10.62337166       0.01878047      -0.00287220       0.00080897
C       11.23832839       1.63179481      10.87781213       0.02780625       0.01138307       0.00235677
C        9.34172774       4.68981062      10.94929848      -0.01504362      -0.00924811      -0.01627675
C        8.72293613       6.85884750      11.49110166       0.00866507       0.00005578      -0.01472293
H        9.14812055       2.15833534      11.20594399       0.02512717      -0.00290401       0.00812835
H        9.73391457       2.46617582       9.56813959       0.01495835      -0.01048700       0.00279337
H       11.01060003       0.59556933      10.59836799       0.03412227       0.00319184       0.01722688
H       12.08875724       1.99437654      10.30492749       0.02209914       0.00798514      -0.00796948
H       11.45003716       1.78609210      11.98700459       0.04343194       0.02388686      -0.00285602
H        8.44553574       7.14383933      10.48191725       0.00487223      -0.00550029      -0.01470080
H        9.16572352       7.69990975      12.01444721       0.01191601       0.00276096      -0.02166787
H        7.84220672       6.49864585      12.02049379       0.01302314       0.00155768      -0.00862010
O        5.36130455       8.56024141       7.44194360       0.00321862      -0.00096771       0.00642997
O        5.61912765       6.47220828       7.87371993       0.00805023      -0.00081092       0.00551310
O        6.40280225       7.26605805       5.89760903      -0.00218928       0.00037403       0.00313818
C        5.57904517       9.74697043       6.63380033      -0.00940830      -0.00264198       0.00019872
C        5.09188717      10.90734903       7.45968442      -0.00915462      -0.00205252      -0.00054103
C        5.84923869       7.42970959       6.96006675       0.00348717      -0.00093580       0.00284851
C        6.06297845       5.15882168       7.51270299       0.00804210      -0.00048178       0.00333469
H        6.64314695       9.80128657       6.39763855      -0.01144308       0.00242358      -0.00807203
H        4.99393674       9.64616517       5.71979591      -0.01592302      -0.00915434       0.00516379
H        5.23032491      11.83347425       6.90426907      -0.02041841      -0.00406957      -0.00689922
H        4.02620677      10.80164011       7.65540265      -0.00685638      -0.00727612       0.00929309
H        5.64094143      10.99045374       8.39754041      -0.00124808       0.00574250      -0.00572994
H        5.85052343       4.96354371       6.46309888       0.00715031       0.00108304       0.00319749
H        5.50704270       4.47176225       8.14262208       0.00854295      -0.00122374       0.00304613
H        7.12942046       5.05041290       7.69992526       0.00818104      -0.00040825       0.00243117
