139
Lattice="12.09104000821126 0.0 0.0 0.0 12.09104000821126 0.0 0.0 0.0 12.09104000821126" Properties=species:S:1:pos:R:3:forces:R:3 energy=-123819.4921875 stress="-0.0005597993731498718 -2.499415586498799e-06 0.0005977958498988301 -2.499415586498799e-06 0.00015049046487547457 -0.00011840440856758505 0.0005977958498988301 -0.00011840440856758505 -0.0005223636399023235" pbc="T T T"
Cu      11.51081267      11.45812901       0.34906572      -0.00315452       0.00777877       0.01518314
O        8.08079919      10.03083237      11.52002723       0.00392675       0.01806521      -0.01012638
O        8.85982997      12.04310898      11.77194433       0.00033841       0.01149178       0.04804585
O       10.18136641      10.30614268      11.95680778       0.00521076       0.00881167      -0.00716886
N        8.98849811      10.81392774      11.74182779       0.00191835       0.01251913       0.01099569
O        0.83494244      12.52588401       0.83980909      -0.00704598       0.01260620       0.01122910
O        2.72496813      12.35717578       1.90003681      -0.01139879       0.01816833       0.00865161
O        1.53101421      10.57540472       1.54466371       0.00395867       0.01227212       0.01033835
N        1.74196070      11.79550824       1.45668196       0.01004237       0.02665913       0.01588553
O        2.30246549       9.79515216       6.86071849       0.00391734       0.01267110      -0.00192660
C        0.95363208      10.10394785       4.96136571      -0.00094014       0.00181602       0.00085717
C        1.41872542       8.64727441       4.96924727       0.00275286       0.00296947       0.00405914
C        2.01640650      10.74938082       5.83136951       0.00082690       0.00764385      -0.00574365
C        1.97472512       8.48345241       6.38491425       0.01181021       0.00950566       0.00160646
H        0.90642933      10.53095350       3.96115144      -0.00653880      -0.00161470      -0.00013691
H       -0.02882029      10.19430425       5.42952062       0.00099960       0.00091002       0.00514464
H        0.61858535       7.93814441       4.75613446       0.00335243       0.00042272       0.01097398
H        2.20434274       8.51549435       4.22378832      -0.00113773       0.00168842       0.00013475
H        2.92324366      10.95164575       5.24634923      -0.00120580       0.00542358      -0.00952661
H        1.69990992      11.67676134       6.31225992       0.00160478       0.00931743      -0.00930867
H        1.22362229       8.05931978       7.05852997       0.01934180       0.00480799       0.00703686
H        2.86289511       7.84989641       6.43849049       0.01681274       0.01642370      -0.00290660
O        5.95343944       9.44287310       6.56372508       0.00410585       0.00169903      -0.00118124
C        5.99365272      10.19710129       8.80580940      -0.00465050       0.00693317      -0.00276011
C        5.44318869       8.77234423       8.77590960       0.00025594       0.00495999      -0.00133693
C        5.78349050      10.62414004       7.36046735      -0.00162689       0.00317349      -0.00445545
C        5.93962799       8.29042963       7.42013701       0.00650306       0.00371507       0.00150067
H        5.48031693      10.84690620       9.51302366      -0.00913309       0.00674587      -0.00595309
H        7.05210168      10.17504690       9.06776145      -0.00551853       0.01121564       0.00061926
H        5.81094022       8.15442915       9.59399856      -0.00047348       0.00813803       0.00120299
H        4.35159270       8.77749545       8.80004038       0.00021535       0.00175177      -0.00497085
H        4.76866783      11.01053078       7.21237194      -0.00224620      -0.00031210      -0.00824516
H        6.49894442      11.37713315       7.01745917      -0.00276139       0.00442383      -0.00403577
H        6.96093387       7.89772349       7.50205382       0.00779837       0.00822748       0.00591219
H        5.29643785       7.52848439       6.97669886       0.01107669       0.00001380       0.00113627
O        3.73708180       5.80032347       8.14783987      -0.00277570      -0.00446886      -0.00436330
C        2.58227186       4.31009384       9.56720958      -0.00455022      -0.00150028      -0.00245953
C        4.01900117       3.81932674       9.40453890      -0.00539845      -0.00390846      -0.00304858
C        2.44497426       5.22562403       8.35934236      -0.00367759      -0.00179738      -0.00289106
C        4.71016594       5.08963638       8.93438708      -0.00362619      -0.00535896      -0.00426576
H        1.84017874       3.51265262       9.57895472      -0.00584117      -0.00021477      -0.00190156
H        2.48359934       4.88279792      10.49301464      -0.00327695      -0.00106429      -0.00275534
H        4.46785733       3.42129927      10.31015655      -0.00564945      -0.00403497      -0.00295880
H        4.07146060       3.04869414       8.63067990      -0.00723553      -0.00450167      -0.00253680
H        2.15567532       4.65305819       7.46769430      -0.00570621      -0.00154832      -0.00228816
H        1.72375899       6.03426804       8.49929442      -0.00207338      -0.00038168      -0.00250399
H        5.00486648       5.71174764       9.78815779      -0.00228903      -0.00520989      -0.00481445
H        5.59457527       4.91174852       8.32162195      -0.00418258      -0.00719757      -0.00435907
O        9.25989675       8.77063741       9.07576420      -0.00215977      -0.01969746      -0.01696505
C       11.32223665       9.38422905       8.21968833      -0.00241977       0.00343091       0.00013286
C       11.60435990       8.54674335       9.47088938      -0.00290072       0.00438432       0.00088677
C        9.92986273       9.90068131       8.52582491      -0.01055300      -0.01224278      -0.01104680
C       10.20685448       8.04289945       9.87300819      -0.00124103      -0.00578626      -0.00595114
H       12.06814715      10.15807971       8.04639568      -0.00984791       0.01179844       0.00703448
H       11.27447492       8.74838222       7.33161478       0.01263534       0.00450137      -0.00124115
H       12.30685705       7.73242637       9.28883976       0.00365624       0.00998485       0.00339502
H       12.02218427       9.17599400      10.25872473      -0.01117931       0.00616184       0.00353885
H        9.97762754      10.72441780       9.25280867      -0.02625746      -0.01276445      -0.00987303
H        9.36355407      10.23120404       7.65309806      -0.00742927      -0.01774154      -0.01511815
H       10.06176168       6.98270300       9.65090372       0.00955737      -0.00847587       0.00000574
H       10.00296612       8.21583919      10.92989464      -0.01016277      -0.00041246      -0.00863922
O       10.73415248       6.24054046       5.01772840       0.00390004      -0.00113845      -0.00407028
C        9.27518520       5.93227554       6.84157517      -0.00088727      -0.00139233      -0.00799954
C       10.29431470       4.79285738       6.83981044       0.00186901       0.00116748      -0.00287020
C        9.36111627       6.41213206       5.40062951       0.00226000      -0.00390597      -0.00866461
C       11.38403508       5.35044088       5.93168309       0.00316800       0.00187373      -0.00083101
H        8.27009120       5.61675174       7.12218160      -0.00101259      -0.00349288      -0.01086538
H        9.57627598       6.73062731       7.52232152      -0.00547074       0.00059217      -0.00842857
H       10.67560117       4.53773030       7.82806192      -0.00028084       0.00417770      -0.00128189
H        9.85328393       3.89193365       6.40559893       0.00551631      -0.00084981      -0.00231947
H        8.72405295       5.80283753       4.74696512       0.00594097      -0.00651324      -0.00941023
H        9.09267400       7.46014592       5.26145077       0.00032704      -0.00472128      -0.01146788
H       12.12134631       5.91974227       6.51092330       0.00039592       0.00442463       0.00013256
H       11.91332056       4.57880779       5.36572812       0.00631586       0.00206000       0.00204107
O        6.70608594       9.08251057       2.38074368      -0.01444155      -0.00451183       0.00104633
C        5.31361753      10.41088836       0.96463145      -0.00335974       0.00936180       0.00324410
C        5.69078964      11.18426246       2.22939445      -0.00473481       0.00068599       0.00896750
C        5.77181677       8.98885502       1.29496651      -0.01004040       0.00570545      -0.00369465
C        6.95803484      10.46226379       2.65640884      -0.00930363      -0.00673848       0.00894173
H        4.24823574      10.45701056       0.74859664      -0.00233698       0.01482782      -0.00031854
H        5.86775840      10.79261412       0.10868049       0.00100267       0.01237157       0.00736415
H        5.83957439      12.24776359       2.04631773       0.00042125       0.00094217       0.01538411
H        4.91369537      11.07615141       2.98765276      -0.00778782      -0.00024023       0.00546700
H        4.93923109       8.36560645       1.63170888      -0.01350945       0.00611007      -0.01135844
H        6.25440228       8.49795180       0.44471336      -0.00804001       0.00937280      -0.00467467
H        7.82445244      10.80670318       2.07737326      -0.00625861      -0.00746736       0.01292413
H        7.18657430      10.54616668       3.72052119      -0.01164751      -0.01337831       0.00988901
O        5.56303030       4.90200636       3.48862013       0.00785965      -0.00903985      -0.00326142
C        4.44413229       6.90659090       4.10959274       0.00259924      -0.01296705       0.00162658
C        3.63393288       6.16411793       3.04680428       0.00417227      -0.01426655       0.00140929
C        5.80121719       6.22042892       4.01589599       0.00408998      -0.01061735       0.00212534
C        4.16678587       4.75139691       3.22616117       0.00760818      -0.01304221       0.00029461
H        4.52793320       7.98182902       3.95627620       0.00107270      -0.01298484       0.00117905
H        4.00129012       6.73475579       5.09238747       0.00235459      -0.01350136       0.00140321
H        2.55607597       6.23542733       3.19290565       0.00406757      -0.01687127       0.00181384
H        3.86918861       6.53555365       2.04665938       0.00337049      -0.01327115       0.00157201
H        6.46527331       6.75847562       3.33540457       0.00470448      -0.00729373       0.00554156
H        6.29472463       6.13940700       4.98906893       0.00199744      -0.01312372       0.00304705
H        3.67225767       4.26774777       4.08106078       0.01099470      -0.01371741       0.00186265
H        4.05111273       4.10687042       2.35383187       0.00705492      -0.01371780       0.00114629
O        7.02989498       3.45542906      10.27545802       0.00267863      -0.00134042      -0.00075862
C        9.26912304       4.11562015      10.45324270       0.00187021      -0.00150576      -0.00196411
C        9.25059798       2.66892584       9.96507676       0.00307554      -0.00137889      -0.00234796
C        7.90395715       4.21482851      11.11175772       0.00336838      -0.00442109       0.00111806
C        7.80112606       2.50660606       9.51600092       0.00163466      -0.00470655       0.00246826
H       10.09275487       4.33802630      11.13046601       0.00326926      -0.00014430      -0.00421645
H        9.31686999       4.80901736       9.61041622      -0.00186624      -0.00111972      -0.00193053
H        9.95699660       2.46758991       9.16012956       0.00078516       0.00079535      -0.00497970
H        9.47112497       1.98591742      10.78533939       0.00757590      -0.00090173      -0.00312075
H        7.91908633       3.78361771      12.12180471       0.00586361      -0.00845543      -0.00066888
H        7.51514080       5.23332406      11.17778120       0.00265025      -0.00506264       0.00576973
H        7.68042727       2.75107385       8.45328160      -0.00211046      -0.01072803       0.00176549
H        7.41296192       1.50205867       9.69461290       0.00333570      -0.00430977       0.00893626
O       10.07921120       8.09932225       1.97239311       0.00517185       0.00534314       0.01286873
C       11.39798091       6.28697565       1.16074660       0.00407973       0.01157266      -0.00351998
C       10.05892823       5.78739295       1.70361698       0.00682404       0.00692427      -0.00114259
C       11.43100456       7.73624344       1.66713012       0.00392044       0.00990409       0.00149520
C        9.21516891       7.04312314       1.56932680       0.00474516       0.00672740       0.01023203
H       12.25183067       5.70612065       1.50996031       0.00597319       0.01170260      -0.00844546
H       11.39802867       6.25845749       0.06748627       0.00096896       0.01561934      -0.00342131
H        9.65510096       4.93305378       1.16224827       0.00551914       0.01012540      -0.00533918
H       10.16126819       5.52307884       2.75663854       0.01118679      -0.00031373      -0.00357321
H       12.01376820       7.82793377       2.58675409       0.01058149       0.00905938      -0.00290149
H       11.84452341       8.43546981       0.93356384      -0.00403908       0.01332283       0.00033188
H        8.89152928       7.18879200       0.52645036       0.00008969       0.01283734       0.01273793
H        8.33061043       7.07954941       2.20336710       0.00730178       0.00145990       0.01404652
O       11.48528170       1.48835742       3.81301347      -0.00248039      -0.00856653       0.00013603
C        9.53140546       2.72025546       3.37055009      -0.00170141      -0.00916553      -0.00287364
C        9.12782403       1.42135928       4.06403045      -0.00322884      -0.00692746      -0.00007129
C       10.89657212       2.33747333       2.81998445      -0.00250214      -0.01234192      -0.00206424
C       10.45575492       0.96351549       4.65919290      -0.00323844      -0.00421340       0.00110281
H        8.82784937       3.03825837       2.60350094      -0.00039984      -0.01131643      -0.00461145
H        9.62849582       3.53225226       4.09620272      -0.00133116      -0.00732492      -0.00521973
H        8.35066354       1.54556017       4.81746527      -0.00553703      -0.00570486      -0.00211181
H        8.77102636       0.70359932       3.32269684       0.00006633      -0.00931975       0.00106621
H       10.79771024       1.78628705       1.87463834      -0.00375417      -0.01590472       0.00035262
H       11.56771915       3.18318939       2.65596948      -0.00054148      -0.01482797      -0.00460661
H       10.59639333       1.36528709       5.67186547      -0.00513747       0.00007764      -0.00096452
H       10.55151438      -0.12330528       4.71199546      -0.00296997      -0.00337756       0.00377581
