144
Lattice="12.940901693658715 0.0 0.0 0.0 12.940901693658715 0.0 0.0 0.0 12.940901693658715" Properties=species:S:1:pos:R:3:forces:R:3 energy=-149241.453125 stress="9.31748072616756e-05 0.00021309311705408618 -0.00015292884927475825 0.00021309311705408618 -0.0003306825237814337 0.0004238446999806911 -0.00015292884927475825 0.0004238446999806911 -0.001237979857251048" pbc="T T T"
Cu      15.37643948      12.89317262       1.22222864       0.01193561      -0.00121261       0.00700197
Cl      10.30094541      11.85301077       6.72175933       0.00004147       0.00329494       0.01834130
O        9.00826696      12.57096215       6.90164651      -0.00113559       0.00407493       0.01144709
O       11.40910646      12.80596238       6.98380648      -0.00158381       0.00858688       0.00641096
O       10.39216425      11.43378298       5.28210837      -0.00079927      -0.01269671       0.02343369
Cl       5.16455279      11.44481886      12.13030518      -0.03212476       0.00136644       0.01309609
O        3.82616988      12.13108303      12.47273493      -0.03139496       0.00798321       0.00611784
O        4.84098006      10.06045318      11.74993618      -0.04144394      -0.00018167       0.02619380
O        5.72782336      12.16596149      10.97511950      -0.02712834      -0.01499438       0.00645614
C        4.67439043       9.02188883       8.80683653      -0.00310924       0.01239291       0.00132982
C        4.19296683      10.26747076       8.40734909      -0.00098988      -0.00814979       0.00383712
C        6.02822035       8.75149129       8.62615542       0.00205202      -0.00317045       0.01065858
C        3.76234247       8.02650162       9.45647732       0.00133622       0.00136885       0.00186357
C        5.03794804      11.20955621       7.84145969       0.00012510       0.01121469      -0.00643669
C        6.87856213       9.69308495       8.06127511       0.00100560       0.01759319       0.00045035
C        6.38686226      10.92878475       7.66071132       0.00137934      -0.00748199       0.00428107
H        3.14667155      10.50582465       8.56573691      -0.00119676       0.00171685      -0.00436724
H        6.42042207       7.78587443       8.92800175       0.00155989       0.01015630       0.00899495
H        4.16909691       7.01665599       9.40457442      -0.00266603       0.00227140      -0.00721228
H        3.62774195       8.28789112      10.50852453       0.00536491      -0.00393726       0.00383019
H        2.77945226       8.01821715       8.98245470      -0.00121485       0.00914310       0.00500014
H        4.64443870      12.17817697       7.55577159      -0.00098728      -0.00268182      -0.00611974
H        7.92991432       9.46433338       7.92509941       0.00207040       0.00577674       0.00729431
H        7.06849770      11.65311753       7.23196858       0.00081044       0.00473759      -0.00277650
C        3.04766101       7.78986283       5.73407024      -0.00863044      -0.01870633       0.00486689
C        3.43691961       6.46516588       5.92621811       0.00667676       0.00414166      -0.00177272
C        4.03255394       8.72703854       5.41913254       0.01228990       0.00338820       0.00092268
C        1.61631957       8.21388194       5.88704794      -0.00081035      -0.00324789      -0.00321903
C        4.77287516       6.09170262       5.81356064      -0.01545719      -0.01679815       0.00805691
C        5.36446455       8.36068910       5.30871827      -0.01141629      -0.01505496       0.01055698
C        5.74010340       7.03842029       5.50918759       0.01128495       0.00874920       0.00277521
H        2.68615994       5.72409186       6.17854593      -0.00525435      -0.00875039       0.00017994
H        3.74786805       9.76122533       5.26394550      -0.00054451      -0.00694704       0.00444756
H        1.28374475       8.81183616       5.03605662      -0.00140096      -0.01044333      -0.00583510
H        0.94749855       7.35970178       5.98458403      -0.00137065      -0.00633030       0.00078807
H        1.48795884       8.83436946       6.77774906      -0.00359398      -0.00130394      -0.00619373
H        5.06232263       5.05972539       5.96864188      -0.00196051      -0.00270076       0.00292299
H        6.10908135       9.10472238       5.06080684       0.00394742      -0.00136021       0.00797999
H        6.78103988       6.74999146       5.43350072      -0.00361364      -0.00527596       0.00945280
C        2.01660427       3.03300601       1.87128458       0.00370630      -0.00838669       0.02767038
C        2.63910225       3.34162081       3.07559650      -0.03038131      -0.02650113      -0.00936565
C        2.64410222       2.10672430       1.01298196       0.00429910      -0.00706830      -0.01135638
C        0.75218021       3.71551282       1.45413605      -0.00300503      -0.01759122      -0.00557654
C        3.83721824       2.73240958       3.44959275      -0.00929776      -0.00684956       0.04296412
C        3.86840707       1.52067101       1.37498179       0.02417608       0.00898932       0.02977494
C        4.44841179       1.81540549       2.61446791      -0.00444640      -0.00892407      -0.00897242
H        2.19933797       4.09036409       3.72421651      -0.02325103      -0.01609107       0.00830997
H        2.27425184       2.00453279      -0.00524186       0.01889004      -0.00375798       0.00616603
H       -0.07743736       3.00730959       1.39573514      -0.00859034      -0.00841045       0.00211539
H        0.47622966       4.49869637       2.15926547       0.00577489      -0.00845748      -0.00776568
H        0.86663862       4.16687393       0.46592619       0.00467926      -0.02493633      -0.00383189
H        4.30428511       3.00512237       4.38812822      -0.02988915      -0.01607391       0.01597194
H        4.40619755       0.92545548       0.64831473       0.03674913       0.02900526      -0.00008814
H        5.39009482       1.35720295       2.88760812       0.00535819       0.01005447       0.02134268
C        0.67684541      11.43188889       3.38113460       0.00626402       0.02507777      -0.00626945
C        1.81546982      11.35110656       2.55135090      -0.00154598       0.00490572       0.00028057
C       -0.52684895      10.92250684       2.89641908      -0.01206714       0.03918013      -0.00618784
C        0.74852861      12.00327834       4.76069359       0.00346507       0.01529656      -0.00317144
C        1.72761705      10.80455180       1.25602482       0.00437424      -0.01051787       0.00249912
C       -0.61420195      10.39488163       1.61077781      -0.00293759       0.03818025      -0.00771988
C        0.49227411      10.36333178       0.77652583      -0.01318574       0.00743973       0.00580069
H        2.78476297      11.56442778       3.00182777       0.00436027      -0.01403242       0.00427144
H       -1.39397645      10.94633744       3.54884362      -0.00027233       0.04392501      -0.00399652
H        0.58345845      11.23066290       5.51466079       0.01081765       0.00300801      -0.01574466
H        1.71252912      12.47431199       4.95345708       0.00470005       0.01444904       0.00014572
H       -0.04985293      12.72535156       4.93247305       0.00242141       0.00952923       0.01064084
H        2.61125693      10.66341400       0.64417038      -0.00021139      -0.03900341       0.01472801
H       -1.55999761       9.99617190       1.26338520      -0.01422942       0.04044132      -0.00191766
H        0.42304162       9.96025300      -0.22526615      -0.00519901      -0.00837434       0.00878673
C       10.15662220       7.53914267       6.24667426      -0.01506234      -0.02504588      -0.02277073
C       10.78309624       8.28841504       7.24386252       0.01313788       0.00669223       0.02545328
C        9.76154648       6.23382777       6.54648164       0.01615326       0.00863919       0.01988049
C        9.92438634       8.12862853       4.88738300       0.00089842       0.00030312      -0.00165635
C       11.00414906       7.74919517       8.50508629      -0.00988652      -0.01393092      -0.03221183
C        9.97815897       5.69163881       7.80756030      -0.01058916      -0.02100573      -0.04013859
C       10.60024038       6.45055229       8.79129795       0.02343614       0.01442638       0.02250621
H       11.08187295       9.30776693       7.03125383      -0.00515324      -0.00360875      -0.00611200
H        9.28221505       5.62962339       5.78400791      -0.00278974      -0.01095886      -0.01203097
H        9.02709807       7.71284359       4.42722084      -0.00250617      -0.00530624      -0.00396809
H        9.83433679       9.21505409       4.94427746      -0.00214410      -0.00467572      -0.00373811
H       10.76369158       7.90449324       4.22148732      -0.00105256      -0.00336057      -0.00337043
H       11.48346633       8.35028377       9.26800300       0.00800682       0.00308546       0.00069003
H        9.65202414       4.68126502       8.01989442       0.01272687      -0.00276907      -0.00536598
H       10.76625920       6.03366052       9.77663152       0.00569224      -0.00406102      -0.01308975
C        7.00653283       8.48355585       1.75797404       0.00357792      -0.00305669       0.00377570
C        6.20443048       7.35985274       1.94462855       0.01954042      -0.00432774      -0.00111521
C        6.40271925       9.73824371       1.79518946       0.01755305      -0.00336117       0.00882082
C        8.47325356       8.35845477       1.47178949       0.00833806      -0.00011754      -0.00084259
C        4.83551318       7.48164026       2.14090346      -0.00004157      -0.00382531       0.00521620
C        5.03531641       9.86108398       1.98260927      -0.00318030      -0.00665985       0.01693182
C        4.24238610       8.73391393       2.14989278       0.01905416      -0.00693293       0.00994688
H        6.66132486       6.37792782       1.94062580       0.01006963      -0.00225700      -0.00351184
H        7.00518227      10.62562497       1.63691752       0.00560785      -0.00359567       0.01401769
H        9.04387448       9.12247853       2.00092881       0.00849656      -0.00322585       0.00234175
H        8.85728834       7.38222849       1.76725056       0.00888308      -0.00154620      -0.00732661
H        8.66046037       8.48579894       0.40201711       0.00482843       0.00634164      -0.00060302
H        4.23104031       6.59736209       2.30270677       0.01288316      -0.00658566       0.00161585
H        4.59069988      10.84863870       1.96113402       0.00841049      -0.00612229       0.02403502
H        3.17411087       8.82781705       2.29138025       0.00654188      -0.00773448       0.01498181
C        7.64087773       4.07089642      10.11352312       0.01174399      -0.00595872       0.00463283
C        6.69527544       4.32036166       9.11996185      -0.00172088      -0.00542161      -0.01731982
C        8.11982272       2.76776416      10.25899360      -0.00329146      -0.00310794      -0.01203389
C        8.09171605       5.16554968      11.03745345      -0.00036804      -0.00203925      -0.00316051
C        6.23046879       3.29215494       8.31031208       0.01914132       0.00015703       0.00074383
C        7.66450726       1.73693265       9.44559552       0.02010757      -0.00002643       0.00576643
C        6.71317479       2.00002489       8.46847145       0.00165801      -0.00147447      -0.02015686
H        6.31125454       5.32585733       8.98685266       0.00778334      -0.00273880      -0.00695574
H        8.86007426       2.55828974      11.02390817       0.00477218      -0.00293926       0.00189035
H        9.10236964       4.98339306      11.40357976      -0.00083734      -0.00463728       0.00293262
H        8.07608397       6.13752964      10.54473975       0.00535635      -0.00335488      -0.00290745
H        7.43741417       5.23266561      11.91192561      -0.00332166      -0.00049339      -0.00542495
H        5.47112427       3.50082622       7.56750581       0.01085044      -0.00169902      -0.01453438
H        8.04076037       0.73018478       9.56548988       0.01226623       0.00050214      -0.01019714
H        6.35037802       1.19390817       7.84425267       0.01702553       0.00054230      -0.00917086
C        8.88016101       3.46286183       3.18647696      -0.01584521      -0.00337344       0.00132370
C       10.25459784       3.69649721       3.15147016       0.01454717       0.00579551      -0.00247593
C        8.35418426       2.78096181       4.28478457       0.01273946       0.00356854      -0.00671124
C        7.99858370       3.86967982       2.04097388       0.00188228       0.00187387      -0.00495905
C       11.08133115       3.22726580       4.16736710      -0.01508251       0.00110254      -0.00072508
C        9.17670423       2.30642488       5.29763024      -0.01821607      -0.00247399      -0.00375178
C       10.54829923       2.51801751       5.23569131       0.01768728       0.00687578      -0.00748798
H       10.67924376       4.23649537       2.31145359      -0.00286899       0.00396062      -0.00092138
H        7.28500995       2.59943145       4.33289509      -0.00452368      -0.00116185      -0.00438906
H        6.97939524       4.07081868       2.37372130      -0.00138153      -0.00027028      -0.00397669
H        8.38172221       4.75743501       1.53638745      -0.00174826       0.00123942      -0.00346439
H        7.94111293       3.07398975       1.29249193       0.00104927       0.00124478      -0.00425203
H       12.15022219       3.39862587       4.11434365       0.00357063       0.00693674      -0.00221870
H        8.77352214       1.72309920       6.11455616       0.00236212       0.00097650      -0.00708401
H       11.18094850       2.09008714       6.00231713      -0.00245243       0.00326654      -0.00468196
C        3.90646236       4.36598430      11.60017238      -0.00531205       0.00656544      -0.00556405
C        4.73377783       3.24338349      11.61610292      -0.00947890      -0.00116273      -0.01554463
C        2.67528105       4.26828678      10.95328367      -0.00967503       0.00233711      -0.01106103
C        4.35175981       5.63394418      12.26039065      -0.00815295       0.00098097      -0.00154543
C        4.35724336       2.06071755      11.00094041      -0.00269945       0.01335862      -0.01321001
C        2.28206910       3.07900917      10.34481259      -0.00439385       0.01538418      -0.01139262
C        3.12202612       1.97234983      10.36919761      -0.00723124       0.00504613      -0.02166738
H        5.68869909       3.29711606      12.12787172      -0.00512165       0.00453665      -0.01191001
H        2.01917639       5.13134303      10.93108264      -0.00698796       0.00796121      -0.00540751
H        3.51541908       6.28662544      12.50772320      -0.00784539       0.00067346       0.00024262
H        4.89762539       5.41978407      13.17846043      -0.00952536      -0.00358715      -0.00131227
H        5.02468759       6.20829483      11.61869419      -0.00648853       0.00368354       0.00253224
H        5.00386635       1.19417508      11.02317458      -0.00526357       0.00562283      -0.02028290
H        1.31430913       3.01749139       9.86111417      -0.00579272       0.01117926      -0.01621829
H        2.82316340       1.03531020       9.91631438      -0.00392745       0.01409473      -0.02290788
