146
Lattice="12.36560322761245 0.0 0.0 0.0 12.36560322761245 0.0 0.0 0.0 12.36560322761245" Properties=species:S:1:pos:R:3:forces:R:3 energy=-436737.90625 stress="0.00045535029494203627 -3.141964498354355e-06 -3.0056060040806187e-07 -3.141964498354355e-06 -0.0005057572270743549 -0.000375056843040511 -3.0056060040806187e-07 -0.000375056843040511 0.0006618244224227965" pbc="T T T"
Dy       9.80471917      11.34617706       2.03963451       0.00528087       0.00307374      -0.00383809
B        7.95791012      12.75030349      11.62826882       0.01650003       0.01416880      -0.00351238
F        8.35443497      13.94884473      11.11026750       0.04030539       0.00406289      -0.00821386
F        6.88371575      12.83643584      12.46673165       0.02318937       0.03725655       0.00276077
F        7.84831171      11.75871832      10.69486966      -0.01050990       0.01576144      -0.00289455
F        9.12022993      12.31634091      12.54806533       0.00969897      -0.00730249      -0.00851011
B        8.13857645      11.09985566       4.51952320       0.00141525      -0.00020362      -0.00638649
F        7.89034204      11.93325665       3.34406434      -0.00530712      -0.01529876      -0.01485646
F        7.39787454       9.96711101       4.42324774       0.00600719      -0.00568351       0.00942365
F        9.55154510      10.78583404       4.32450843       0.00251181       0.00241042      -0.00568078
F        7.97475969      11.81339009       5.65148984       0.00124680       0.01293589      -0.01560146
B        0.09911620      10.66768392       1.85631779       0.00373691      -0.00740358       0.00713011
F       -0.83563024       9.58364317       1.82883938      -0.00451109      -0.00185994       0.01087893
F       -0.25824629      11.38663374       3.04199366       0.00723122       0.00129995       0.00175755
F        1.38008366      10.30456099       1.78083146       0.00144726      -0.01958788       0.01223806
F       -0.33410894      11.51974168       0.79778040       0.01286251      -0.01131944       0.00100634
O        4.50390492       1.19802251       1.75711350      -0.00481883      -0.00690013       0.00422743
C        3.02810466       3.03878679       2.08462154      -0.00170603      -0.00408572       0.00670902
C        3.80680422       2.73584421       3.36547338       0.00238949      -0.00422129       0.00410753
C        3.28577117       1.77378269       1.26103101      -0.00362185      -0.00363916       0.00515971
C        5.02318096       2.03804668       2.78696825      -0.00033262      -0.00457278       0.00013685
H        1.96762014       3.22617438       2.24697639      -0.00075364      -0.00392045       0.00940003
H        3.45938386       3.91336277       1.58888208      -0.00241359      -0.00393021       0.00506817
H        4.05864886       3.61408056       3.95426592       0.00591362      -0.00300312       0.00276817
H        3.24083867       2.04666240       3.99890966       0.00376411      -0.00183213       0.00701091
H        2.48604457       1.03732629       1.39654899      -0.00536472      -0.00330821       0.00502242
H        3.38703702       1.97440345       0.18920426      -0.00388780      -0.00322928       0.00584185
H        5.72182817       2.77837275       2.36585025      -0.00149834      -0.00698093      -0.00380448
H        5.57823439       1.41860405       3.49203784       0.00266159      -0.00473958      -0.00051481
O        2.59720735       9.59379654       5.23559139      -0.00271469       0.00043368      -0.00358343
C        3.93778402      11.52793164       5.28715821       0.00309128      -0.00429186       0.00002673
C        2.52024458      11.91749819       5.70286730       0.00401257       0.00155360      -0.00240524
C        3.67351845      10.23703372       4.53242064       0.00278839      -0.00421190      -0.00022577
C        1.90666212      10.56123653       6.03670205      -0.00219455       0.00245833      -0.00565312
H        4.43049701      12.27457162       4.66659546       0.00758614      -0.00529151       0.00018463
H        4.56144243      11.33918058       6.16527444      -0.00015336      -0.00451986       0.00154471
H        2.48025123      12.61277168       6.54134923       0.00282663       0.00125410      -0.00730738
H        1.99385469      12.36820685       4.85817113       0.00601791       0.00054042      -0.00789431
H        3.36350190      10.45043491       3.50252533       0.00649360      -0.00365965      -0.00157046
H        4.52834446       9.55824523       4.51479897      -0.00037611      -0.00612357       0.00366822
H        2.04867600      10.30405230       7.09424448      -0.00124353       0.00283363      -0.00345421
H        0.83909204      10.51425013       5.81421976       0.00034618       0.00515522      -0.00445209
O        4.30015025       7.97126143      10.78413782      -0.00686166      -0.00205919       0.00406225
C        2.55232537       9.56776441      10.57769801       0.00006819       0.00571537       0.00089113
C        3.81872986      10.08968206       9.89790928       0.00552239       0.00108135       0.00626478
C        3.10390439       8.43104850      11.43462325      -0.00420108       0.00407439       0.00358753
C        4.55813632       8.78878113       9.63396489       0.00147982      -0.00172508       0.00604741
H        2.03338491      10.31426602      11.17724354       0.00149639       0.00724085      -0.00250350
H        1.85574618       9.18239934       9.82828591       0.00205559       0.00577979      -0.00063157
H        3.62415453      10.65800454       8.98860254       0.00680657      -0.00040340       0.00049368
H        4.39255560      10.71957364      10.58226860       0.00296381       0.00026304       0.00245410
H        3.36747008       8.78584649      12.43685740      -0.00210261       0.00725828       0.00297219
H        2.40980346       7.59381628      11.53967549      -0.00638625       0.00807804       0.00699080
H        4.16736943       8.29276966       8.73542944       0.00586349       0.00091365       0.00467247
H        5.63892631       8.89880669       9.52918238       0.00293964      -0.00355631       0.01289219
O        5.63042763       4.83742773       9.31115036       0.00033848       0.00583430      -0.00276041
C        5.92739682       3.93795265      11.50569115       0.00045443       0.00533634      -0.00312686
C        7.22768146       4.55098754      10.98310273       0.00204569       0.00095728      -0.00559750
C        5.05562547       3.90785806      10.24356685       0.00069693       0.00501992      -0.00330788
C        6.68768138       5.54283953       9.96980928       0.00111544       0.00447506      -0.00238526
H        6.05758965       2.95024721      11.94693239       0.00003050       0.00364891      -0.00321887
H        5.48185260       4.59560654      12.25672774       0.00227372       0.00454876      -0.00399099
H        7.82926557       5.01521974      11.76340062       0.00266810       0.00176159      -0.00346839
H        7.83304888       3.78995237      10.49011063       0.00029191       0.00310266      -0.00425230
H        5.05857157       2.91946997       9.77457147       0.00061264       0.00541317      -0.00423899
H        4.01701560       4.18799353      10.44659171       0.00060445       0.00468534      -0.00269900
H        6.28897323       6.43585015      10.46806137       0.00393179       0.00367343      -0.00263816
H        7.40819190       5.85758182       9.21308615       0.00196531       0.00349020      -0.00411335
O        9.12320305       8.68228389       9.60318770      -0.00815707      -0.00559402       0.00338770
C       10.33775643      10.66915360       9.03637012      -0.00276193      -0.01018322      -0.00127047
C       10.78614141      10.10511364      10.38918632      -0.00512451      -0.00748670       0.00149351
C        9.16118559       9.75535236       8.64475722      -0.00584802      -0.00609314       0.00225886
C       10.39432501       8.64345277      10.24885527      -0.00622705      -0.00685501      -0.00034702
H       10.03762454      11.71396554       9.09754082      -0.00059658      -0.00706169      -0.00190931
H       11.14508499      10.58938645       8.30549183      -0.00483558      -0.01257803      -0.00033486
H       11.84637556      10.25315216      10.59020602      -0.00386116      -0.00994948      -0.00010607
H       10.21100411      10.57062479      11.19097996      -0.00288275      -0.00616758      -0.00081898
H        8.20182633      10.26920773       8.69634570      -0.00551140      -0.00319180       0.00373919
H        9.29144553       9.34479105       7.63845084      -0.00971347      -0.00710854       0.00231516
H       11.12028007       8.09991555       9.63016913      -0.00971240      -0.00965920       0.00460470
H       10.26970612       8.12214056      11.20068904      -0.00888725      -0.00566854       0.00528392
O       11.08366477       7.34956228       7.14014082       0.00197700      -0.00402451       0.00111473
C       10.81032210       7.61681375       4.78772003       0.00411199      -0.00252855       0.00016940
C       10.26689011       6.25900104       5.23513257      -0.00250322      -0.00041622      -0.00078475
C       11.58292409       8.09555134       6.02020790       0.00353818      -0.00344786       0.00221479
C        9.99834051       6.52968418       6.70703427       0.00240529      -0.00651047       0.00300348
H       11.44244968       7.56679130       3.90181661      -0.00025350      -0.00075864       0.00223044
H        9.98407040       8.29727549       4.57883472       0.00169340       0.00114310       0.00391301
H        9.36809842       5.95779510       4.69534150       0.00009903       0.00086691       0.00099593
H       11.02649157       5.48190195       5.11855781      -0.00049877      -0.00282970      -0.00156544
H       12.65681175       7.90742807       5.93692658       0.00339359      -0.00815979       0.00066577
H       11.43403706       9.16493012       6.20122092       0.00753003      -0.00523973       0.00266437
H        9.04324884       7.05946976       6.83516707       0.00087780      -0.00178632       0.00213943
H        9.98581376       5.63785213       7.33545597       0.00086876      -0.00217441      -0.00185031
O        8.62594227       9.36464707       1.61599799      -0.01070473       0.02347153      -0.02445489
C        7.45184025       7.39474725       1.13722169       0.00502016       0.01596934       0.02602711
C        6.48833524       8.56783881       0.97138538       0.01712805      -0.00893952      -0.02106994
C        8.48716115       7.97995750       2.07198349      -0.02107868       0.02750264      -0.02942199
C        7.44088671       9.73019379       0.81142047      -0.03248059      -0.01999885      -0.00807694
H        6.98398094       6.50075684       1.54740992       0.02270737       0.00094637       0.01126742
H        7.90092637       7.14939991       0.17269149       0.00708714      -0.00535977      -0.01121807
H        5.82904458       8.46537699       0.11035087      -0.01276454      -0.01944781       0.00286943
H        5.88539131       8.69689718       1.87221151      -0.00720647      -0.00539349       0.00849390
H        8.12942065       7.99249982       3.10315260       0.01722436       0.02572501      -0.01046324
H        9.47297341       7.52237139       2.01893593       0.02480945       0.03185698      -0.01944682
H        7.77518561       9.84861691      -0.21874870      -0.02261624      -0.01284669      -0.03597391
H        7.04584102      10.67422776       1.18994686      -0.02962153       0.00071537      -0.03725854
O        6.12077643       6.50856778       4.83582475      -0.00225711       0.01222224      -0.00026125
C        3.76754942       6.31567923       4.60809797      -0.00071663      -0.00256124       0.00738258
C        4.18718763       5.75825010       5.96771821       0.00586742       0.00034273       0.00681832
C        5.09342988       6.31960622       3.85720522      -0.00256801      -0.00201157       0.00245054
C        5.54640052       6.41099230       6.15202308       0.00389522       0.00836864       0.00211798
H        3.00675325       5.72226354       4.10100432      -0.00032443      -0.00877976       0.01080867
H        3.38371159       7.33117859       4.72208718      -0.00339629      -0.00586069       0.00514098
H        3.49493191       6.00463469       6.77110810       0.00759555      -0.00141128       0.00848785
H        4.30379002       4.67321215       5.93159722       0.01229760       0.00183299       0.00812003
H        5.26754279       5.36392318       3.34457263       0.00178389      -0.00317991       0.00939856
H        5.15702028       7.12081464       3.11688526      -0.00892190      -0.00625062      -0.00231966
H        5.44540391       7.42049848       6.57123257      -0.00037493       0.00830108       0.00161859
H        6.21504725       5.82980152       6.78451464       0.00836682       0.01289034      -0.00088501
O        6.63081165       3.09660879       6.05271368      -0.00134388      -0.00030626      -0.00293484
C        8.52191213       2.27996859       7.17444252      -0.00195593       0.00401664       0.00326595
C        7.29371286       1.63817077       7.81995364      -0.00292313       0.00117290      -0.00043035
C        7.90031282       3.51741519       6.55048101      -0.00291657       0.00164482      -0.00058426
C        6.19858741       1.94501131       6.79969518      -0.00266722       0.00185248      -0.00021958
H        9.31091830       2.51220710       7.88960270      -0.00489439       0.00442060       0.00293453
H        8.92724597       1.62349686       6.40216771      -0.00008542       0.00250104       0.00298628
H        7.40900620       0.57070105       7.99729149      -0.00233551       0.00265476       0.00010435
H        7.08376213       2.12002893       8.77558216      -0.00444603       0.00185031       0.00068572
H        7.76485950       4.30005738       7.31001782      -0.00537798       0.00243151      -0.00159478
H        8.46190524       3.93838464       5.71471018      -0.00184089       0.00169785      -0.00005019
H        6.06964170       1.11984854       6.09607822      -0.00291941      -0.00000048       0.00018847
H        5.23368506       2.16562056       7.26701412      -0.00207746       0.00278811      -0.00159472
O       11.85784067       3.46136313       2.80921036      -0.00440265      -0.00050321       0.00636533
C       10.33862261       1.73808952       2.42524372      -0.00430322       0.00031599       0.00165458
C        9.92695459       2.90204511       1.51405112      -0.00628978       0.00425476       0.00674319
C       11.12486692       2.46812229       3.51107035      -0.00182593      -0.00441569       0.00388563
C       11.12967677       3.84445303       1.62863011      -0.00072363      -0.00118259       0.00390127
H        9.46120062       1.22260763       2.84497046      -0.00345903      -0.00170608      -0.00014328
H       11.03054353       1.07754804       1.87842014      -0.00337040       0.00323458      -0.00219434
H        9.72266544       2.59394537       0.49116900      -0.00836441       0.00739671       0.00597036
H        9.02437428       3.36944754       1.91097224      -0.00246176       0.00328802       0.01100750
H       10.42984916       2.92673931       4.22899627      -0.00337008      -0.00643349       0.00611222
H       11.83303013       1.83949784       4.05220155      -0.00326180      -0.00470625       0.00034153
H       11.80951653       3.74652133       0.77793379      -0.00456369      -0.00213873       0.00677592
H       10.82995879       4.89349941       1.70934199      -0.00028162       0.00254565       0.00535595
