150
Lattice="17.615610886943774 0.0 0.0 0.0 17.615610886943774 0.0 0.0 0.0 17.615610886943774" Properties=species:S:1:pos:R:3:forces:R:3 energy=-1853621.375 stress="1.9975166651420295e-05 -6.515577479149215e-05 7.032635767245665e-05 -6.515577479149215e-05 -0.0001460477797081694 -6.480220690718852e-05 7.032635767245665e-05 -6.480220690718852e-05 0.00014169189671520144" pbc="T T T"
Er      17.88791969      16.09351196       1.87523815      -0.01085529       0.00085640      -0.00969619
Cl       7.64517269      15.99980087       6.85685842      -0.00858438       0.00987899       0.00289573
O        7.28813420      14.58763132       7.04279601      -0.00000054       0.01812446       0.01302190
O        9.04653397      16.27040701       6.50024528      -0.00075138       0.01620185       0.00185704
Cl       6.44409095      16.04457466       4.52927748      -0.01532400       0.01776040       0.00559953
O        5.14116205      16.63530270       4.89736378       0.01366043      -0.00856084      -0.01284036
O        6.47964675      14.57975681       4.44659999       0.00353676      -0.02042341       0.01098396
Cl       1.93247406      18.12927895       7.60787459       0.01677954      -0.00937593      -0.00641966
O        2.37629482      18.69054974       6.30135669       0.02043602       0.00437105       0.00417757
O        0.54720181      18.47412707       8.02319749       0.01626348      -0.01142985      -0.00359827
Cl      12.29068598      12.27116897       6.95041784      -0.01079708       0.00702633       0.00559357
Cl      14.93957821      13.39062103       7.34574116      -0.00057909      -0.01337390      -0.00617731
Cl      13.85512739      11.49441341       9.26430969      -0.00291165      -0.01060709      -0.00535983
Cl      12.75570143      14.17824255       9.08032736       0.01460841      -0.00251028       0.00785579
C       13.45271135      12.82732799       8.16174737       0.00010218      -0.00482587       0.00045983
Cl      17.81467789      13.19339178      13.00039027      -0.00393263       0.01329504       0.00984675
Cl      14.91768610      13.06687259      13.14912495      -0.00341511       0.00478311       0.00645931
Cl      16.21148720      14.05551601      10.74886595      -0.00374470      -0.00266416       0.00313210
Cl      16.26484976      15.64041124      13.17715710      -0.01136158       0.00956300      -0.00531736
C       16.29577527      13.99880487      12.51399348      -0.00565360       0.00624041       0.00350416
Cl       9.90585408       5.29599185      10.17955729      -0.00168395       0.00633416       0.00611037
Cl       9.86744836       6.15673539       7.41275978       0.00824794      -0.01217385       0.00019991
Cl       7.64490817       6.79934556       9.16107394       0.00535968       0.00567317      -0.01028340
Cl       8.06784120       4.06317897       8.30751236       0.00009871      -0.00121623       0.00944388
C        8.86981840       5.57688610       8.76864765       0.00306039      -0.00023726       0.00125211
Cl       0.24964829      10.38997818      10.27140872      -0.00734329       0.00501259      -0.00542933
Cl       2.60005719       8.71569156       9.94941890      -0.00928622       0.00230566      -0.00526294
Cl       1.14685393       8.69873741      12.45454631      -0.00166647       0.01351577      -0.00091371
Cl       2.69194110      11.02491703      11.69222305      -0.00341484       0.00995135      -0.01499343
C        1.66757021       9.70845582      11.09143156      -0.00523473       0.00768256      -0.00663494
Cl      10.24624707       1.88826605       5.54289239      -0.00870770       0.00093724      -0.00519592
Cl       8.65306275       4.08940570       4.54032592      -0.01370144      -0.00002217       0.00052024
Cl       7.34549477       1.67993517       5.48466205      -0.00930914      -0.00029391       0.00357594
Cl       8.85372397       1.63901334       3.00680556      -0.01637615       0.00016116      -0.00062254
C        8.78725983       2.33186721       4.65066993      -0.01224416       0.00010388      -0.00024158
Cl      12.44771679      16.39227241      13.81625434       0.02126734       0.00253810       0.00255930
Cl      11.14458732      14.74135975      15.81097046       0.00755322      -0.00257838      -0.01150925
Cl      11.78166500      17.51000471      16.41050523       0.00023745      -0.00318053      -0.00067723
Cl      13.91524765      15.55604789      16.17933045       0.00358373      -0.00037925       0.01303625
C       12.31613356      16.05049884      15.55170064       0.00857812      -0.00100933       0.00069175
Cl      11.48003187       8.60230647       4.75776898      -0.01457903       0.01086968      -0.01319341
Cl      14.02856836       8.96550381       6.08291008      -0.02360541      -0.00078373       0.00772980
Cl      13.41361087      10.47594050       3.68270490       0.00047942       0.00626490       0.00608091
Cl      13.91970377       7.62373827       3.51870721      -0.00810856       0.00448093       0.00471908
C       13.21489099       8.91090667       4.51523503      -0.01178203       0.00532261       0.00133002
Cl       6.67138070       4.51185718       1.44528860      -0.00658166       0.00287294      -0.00675679
Cl       4.04356420       5.33727514       2.37353929      -0.00334734      -0.00265123       0.00718588
Cl       5.31218974       6.73216682       0.17701442      -0.01199206       0.00911263       0.00970191
Cl       6.34657880       7.01327029       2.87660535      -0.00135392      -0.00459847       0.00678977
C        5.59405669       5.90159511       1.71693436      -0.00598534       0.00103842       0.00429497
Cl      13.68986710       0.41477932       2.46037736      -0.00388852      -0.00674845       0.00441511
Cl      16.12204460       0.56227042       0.84527849       0.00231016      -0.00833585       0.00421865
Cl      15.80630017       2.23040137       3.24171399       0.00924062      -0.02240604       0.00816698
Cl      14.23540950       2.77114974       0.86609446       0.00301247      -0.01101117       0.00901479
C       14.92413690       1.51709338       1.89315931       0.00125682      -0.01134057       0.00825323
Cl      12.19292112       6.04020623      18.09843030       0.00410901      -0.00689092      -0.00468847
Cl      12.57320465       8.90649121      17.87983278      -0.00561118      -0.00529760       0.00173078
Cl      11.90233453       7.35257633      15.52572186      -0.00210464      -0.00201352      -0.00136900
Cl      14.52216923       7.09890398      16.73347488      -0.00032812       0.00383893      -0.00410914
C       12.79942087       7.34933667      17.05085120      -0.00080651      -0.00247212      -0.00220367
Cl       7.31917845       8.82413873       5.77218174      -0.00153440       0.00607166       0.01778944
Cl       5.50122732      10.96393518       6.51673917       0.00145015       0.01436451       0.00115886
Cl       6.21494813      10.58783398       3.74083634       0.01187839       0.00010861       0.00589246
Cl       8.18619722      11.58365337       5.61648218       0.00679457       0.00297609       0.01019052
C        6.80518185      10.49618917       5.41229979       0.00434341       0.00572661       0.00867959
Cl       9.06304559       2.62486536      13.28494428       0.01206654      -0.00342631      -0.00815701
Cl      11.46269100       4.25653652      13.24236279       0.00214726       0.01051462      -0.00200012
Cl      10.12934693       3.71090219      15.75924980       0.01353598      -0.01769450      -0.00240338
Cl       8.88841655       5.46818539      13.81922711      -0.00295541      -0.00910321       0.01644186
C        9.88295561       4.01352388      14.02472136       0.00621539      -0.00488263       0.00092825
Cl       7.26379395      13.39684162      -1.96817283       0.01218221       0.00212088       0.00132126
Cl       7.26194931      16.04284929      -0.79056784       0.00545774      -0.00129667       0.00881532
Cl       8.30847068      13.79494555       0.71201013       0.00428927      -0.00382358       0.00536600
Cl       5.45768505      13.99881695       0.21972534       0.00528267      -0.00644218      -0.00212684
C        7.08107222      14.30858343      -0.45603530       0.00654058      -0.00243312       0.00338162
Cl       0.85427930       6.36539812      18.29759654       0.00592989       0.01912670      -0.01226571
Cl      -0.51407175       4.38331588      16.68936581       0.00484675       0.00242236       0.00892406
Cl       2.22013993       5.12387965      16.05850940       0.00183800       0.00117840      -0.00453590
Cl       0.07194984       7.00112985      15.57499550      -0.00273697      -0.00653601      -0.01551995
C        0.66098062       5.71271050      16.65439535       0.00265534       0.00431294      -0.00573844
Cl       9.33995099       9.39304208      11.43002510       0.00443466       0.00455272       0.00308147
Cl      10.03692528      12.03433926      10.45568557       0.00941598      -0.00010669      -0.00619760
Cl       7.60627399      10.74960851       9.53624005       0.00697511       0.00112793      -0.00129710
Cl      10.18758151       9.75088664       8.68051679       0.00515842      -0.00674203       0.00184837
C        9.29382379      10.48280612      10.02508274       0.00663414      -0.00024810      -0.00069348
Cl       2.81104345       3.53706628      12.45798816       0.00367630      -0.00513034       0.00725435
Cl       0.52342942       5.19226095      11.79592633       0.01258762       0.00143939      -0.00787722
Cl       0.15973605       2.75137377      13.31992673      -0.00414148       0.00448549      -0.00718087
Cl       0.86419707       2.61727802      10.50779559       0.01246023      -0.00141957      -0.00280797
C        1.08508288       3.52282071      12.01523566       0.00599927      -0.00015198      -0.00258730
Cl       3.79411326      14.80179333       7.00016085      -0.00143282       0.00421920      -0.00421870
Cl       4.39145095      13.62744088       9.57788973       0.00755504      -0.00121846      -0.00912282
Cl       2.55398859      12.28502909       7.78562368       0.00394051       0.00057298      -0.00718433
Cl       1.76023632      14.74837921       9.07501291       0.00424606      -0.00402525       0.00147216
C        3.13048181      13.87010361       8.35274648       0.00359214      -0.00007790      -0.00489533
Cl       9.52287228      10.46272704      -1.16620631      -0.00069886       0.00288540      -0.00165018
Cl       8.89326030       7.94347969       0.12013626      -0.00258615       0.00545716       0.00266208
Cl       7.00046243      10.14015274       0.21718178      -0.00048882       0.00709934       0.00011116
Cl       9.47015058      10.27912430       1.73057766       0.00077145       0.00775433      -0.00160393
C        8.72022835       9.70565041       0.22634888      -0.00070580       0.00586319      -0.00009550
Cl      10.52696692      16.18372985       3.30567997      -0.00595289       0.00781840      -0.00579137
Cl      12.86879078      14.94494185       4.47970552      -0.00581607       0.00216428      -0.00907287
Cl      12.29963150      14.60930208       1.65526079      -0.02170242      -0.01514604      -0.00191921
Cl      10.63313528      13.30023682       3.63521484      -0.02284437       0.01140326       0.01621133
C       11.58656035      14.75981722       3.27554308      -0.01415113       0.00131327      -0.00017307
Cl       2.59116397      14.52805547       2.76131966      -0.00923504      -0.01103483       0.00506270
Cl       0.78936121      14.01090788       5.01934294      -0.00553491       0.01143405       0.00759129
Cl      -1.74532270      14.83198812       2.29705559      -0.00029507      -0.02359274      -0.02851900
Cl       1.52099288      16.77059491       4.35028846       0.00312367       0.00198478      -0.00724506
C        1.17313451      15.08898061       3.73984059      -0.01090237       0.00275159      -0.00375533
Cl       1.70530715       1.02158398       1.26851908      -0.00148933      -0.01254662      -0.02064742
Cl       4.03983076       1.66407802       2.90728880      -0.02629730      -0.00786759       0.01008916
Cl       4.02415199       2.26255666       0.06898327       0.00898051      -0.00359654       0.01177073
Cl       4.20476878      -0.48153710       0.97132626       0.00585397      -0.00478911       0.00833154
C        3.54895653       1.11295518       1.31233194      -0.00334358      -0.00760645       0.00350815
Cl      13.40977645       4.81387843       6.00529592       0.00453073      -0.01805598       0.00135463
Cl      15.72586354       5.96731745       7.32335649      -0.00213823       0.00059840      -0.00277505
Cl      15.36037668       3.09452171       7.29323435       0.01503825      -0.00186932       0.00323261
Cl      13.60102759       4.75826469       8.89348004       0.00787657      -0.00892901       0.00270134
C       14.51952972       4.65193476       7.38298437       0.00603846      -0.00657180       0.00133541
Cl       6.49317590      -0.95946121      10.30238072       0.00775802      -0.00379181       0.00594735
Cl       3.74856084      -0.25832505      10.94623432       0.00912222       0.00878303      -0.00467261
Cl       5.28273744       1.40715056       9.13866477       0.01142535      -0.01144692      -0.02002469
Cl       5.93591135       1.34659120      11.96634538       0.01207872       0.01618963      -0.02132815
C        5.36380747       0.38299958      10.59052255       0.01050396       0.00178194      -0.01012632
Cl      -0.54370379      10.84010270       5.26522840      -0.01530775      -0.00681028      -0.01029198
Cl       1.22575361       8.99613975       6.61815043      -0.00453198       0.00352304      -0.00962585
Cl       2.17353932      10.47707681       4.30928467      -0.01407748       0.00639221      -0.01147625
Cl       0.21253605       8.36388731       3.97214090      -0.00329842      -0.00379065      -0.00889798
C        0.77071891       9.67163128       5.04967254      -0.00961450      -0.00043375      -0.01001369
Cl       4.21736641       6.59143704       6.79192324       0.00593656       0.01079652       0.01162142
Cl       1.72997120       5.58238992       7.90962602       0.00483727      -0.00565597      -0.00687487
Cl       4.23278979       5.11182942       9.28551782      -0.00024316       0.00018614       0.00513756
Cl       3.65894647       3.74358461       6.79221572       0.02080013       0.00829804      -0.00365734
C        3.46171926       5.26023355       7.69490010       0.00762078       0.00327775       0.00174545
Cl      14.81059465      12.09679231       0.30843048      -0.01363444      -0.00579511       0.01058516
Cl      18.15843462      15.55505078      -0.51068246       0.00499880      -0.00029504      -0.01004881
Cl      17.18870673      12.58784854      -1.18778218      -0.01236337       0.00836965       0.01201355
Cl      17.31359102      11.08131413       1.24332689      -0.00779998       0.03770304       0.02970499
C       16.43759210      11.90994695       0.10484580      -0.01076862       0.01389223       0.01575601
Cl       4.24622291       9.19255187      14.92816298      -0.00033367      -0.00417829      -0.00253695
Cl       4.82066373       7.19475519      12.90301968       0.00008735      -0.01022074       0.00339586
Cl       6.91069233       8.07491602      14.71632310       0.00163949       0.00069046      -0.00329843
Cl       5.93402957       9.86173354      12.66291714      -0.00671914      -0.00863832      -0.00802356
C        5.47814409       8.58183870      13.79476029      -0.00126071      -0.00571018      -0.00270227
Cl      14.55529888       6.24730992      12.86103128       0.00433008      -0.00574327       0.00037888
Cl      12.62073719       8.11282029      11.75364628       0.00065327      -0.00713089       0.00434450
Cl      15.23563922       7.84200670      10.54140321      -0.00092530      -0.00354082       0.00037718
Cl      14.96672404       9.10336492      13.14197582       0.00151062      -0.00547016       0.00155813
C       14.33996122       7.82503594      12.07283397       0.00138639      -0.00542006       0.00166908
