142
Lattice="12.1618282854757 0.0 0.0 0.0 12.1618282854757 0.0 0.0 0.0 12.1618282854757" Properties=species:S:1:pos:R:3:forces:R:3 energy=-437160.15625 stress="-0.004636513069272041 -0.00012242000593687408 0.0010803573532029986 -0.00012242000593687408 9.228580165654421e-05 0.0003664824034785852 0.0010803573532029986 0.0003664824034785852 -0.004815324209630489" pbc="T T T"
Eu      13.32487844      11.70603795       0.96494636       0.00153277      -0.00707654      -0.01014427
S       11.17437556      10.87798878       6.70400499      -0.00709140       0.01755738      -0.00454080
F        8.95744426      10.22751021       7.86655807       0.01085976       0.01546735       0.02606897
F        8.78243953      11.96483249       6.58445237      -0.01077098       0.01370573       0.02791879
F        9.73281140      12.15428990       8.52349064       0.01471701       0.01671514       0.01321274
O       11.71017959      12.11630353       6.17069344      -0.01836950       0.01471293      -0.02066809
O       10.71684876       9.91098851       5.72025475      -0.01536518       0.00965822       0.00791943
O       11.94880631      10.28487149       7.78116499       0.00903815       0.02851361      -0.01074600
C        9.57423119      11.34017527       7.47420731       0.00260127       0.01589727       0.01625282
S        6.23233675       8.92708641      10.17308222       0.00262615      -0.00023854      -0.00481076
F        5.40391903      11.42927543      10.56886545      -0.00106049      -0.00693974       0.00697066
F        7.01377426      11.26551639       9.14617955      -0.01275474       0.00233912      -0.00474638
F        7.41950584      11.05155552      11.25712240       0.00475454      -0.00242701      -0.00910211
O        7.39521581       8.40983334       9.48109167       0.01299846       0.00029886       0.01278162
O        4.98334530       8.84726907       9.43679538       0.01471877      -0.00250918      -0.02308106
O        6.12919659       8.55985512      11.57287640      -0.01586996       0.00179833      -0.00567937
C        6.54261518      10.76431309      10.29580724      -0.00220039      -0.00152469      -0.00279886
S        3.98121198      10.68794857       1.20528355       0.02885222       0.02037236       0.00565600
F        3.79428002       8.07959426       0.66422837      -0.01232417       0.00164797       0.01247455
F        3.46718665       8.56807858       2.72840059       0.00454220       0.00694470       0.00558849
F        5.46292466       8.63096403       1.95660132      -0.00547695      -0.00360750      -0.00317562
O        3.12073116      11.21586401       2.28852663       0.00960952      -0.00682898       0.00704651
O        3.14200912      10.67626350      -0.02094688       0.01783949       0.01162112       0.01470102
O        5.26487047      11.28759488       1.11553055      -0.01433565      -0.01447552       0.01680108
C        4.20558308       8.86369615       1.64281708      -0.00341123      -0.00410324       0.00637149
O        3.33141007       4.70457168       7.05085078       0.00197457       0.00463623      -0.00220875
C        1.88610749       6.51396873       7.41435473       0.00110710       0.00401458      -0.00304271
C        3.28199988       7.08226878       7.17492732       0.00082903       0.00406665      -0.00296396
C        2.22235914       5.10093781       7.85950325       0.00061971       0.00374508      -0.00440038
C        4.00630787       5.88172506       6.57319257       0.00022894       0.00449860      -0.00336412
H        1.30918799       7.07461006       8.14797124       0.00174151       0.00336069      -0.00235038
H        1.31684931       6.49017249       6.48225124       0.00078183       0.00495204      -0.00271347
H        3.28413154       7.94051335       6.50365926       0.00093132       0.00412647      -0.00257044
H        3.74681479       7.39391442       8.11164533       0.00134777       0.00339318      -0.00331426
H        2.50907679       5.08782625       8.92064507      -0.00090644       0.00222209      -0.00436348
H        1.42105097       4.37430383       7.70981311       0.00072226       0.00443748      -0.00631578
H        3.94285837       5.88089767       5.47795657      -0.00043045       0.00481530      -0.00316030
H        5.06110304       5.83138441       6.85562651       0.00008798       0.00484532      -0.00428514
O        1.66974940       1.77902837       1.91037673      -0.01829701      -0.00041083      -0.01208913
C        1.18206310       4.00771282       2.25452503       0.00102416       0.00117946       0.00983652
C        2.71062644       3.92308583       2.10649802      -0.00010055      -0.01115853       0.00334240
C        0.83466841       2.62249137       2.74718314      -0.01167110      -0.00050090      -0.00576791
C        2.99008943       2.43041849       1.87567970      -0.01311594      -0.01195897      -0.00473678
H        0.85866973       4.79235519       2.93625775       0.01088163      -0.00557595       0.02187054
H        0.70761163       4.17449894       1.28475354       0.00045390       0.02078654       0.01424345
H        3.07922926       4.53545058       1.28561375       0.00095298      -0.01088350       0.00397044
H        3.20919637       4.25598253       3.01693803       0.00712751      -0.02013570       0.00227275
H        1.11495203       2.46835360       3.79444772      -0.01613396      -0.01225804      -0.00681749
H       -0.20357364       2.32026413       2.60119292      -0.01312023       0.00970837      -0.01053010
H        3.42800199       2.20393301       0.90448849      -0.01381806      -0.00914661      -0.00528705
H        3.60749763       1.98696008       2.65681586      -0.01933749      -0.02267216      -0.00635004
O        0.29644240      10.10018185       2.37796151       0.01613024      -0.01773621      -0.01056640
C        0.70145034       8.28790808       3.85204936      -0.00308923      -0.00832361       0.00879088
C        1.28506158       9.56192716       4.46707528      -0.01021737      -0.00162425       0.00223660
C        0.45286986       8.63915781       2.39589810       0.00087646      -0.01931641       0.00463432
C        0.58679800      10.67275622       3.71048482      -0.01302457      -0.01210056      -0.00887975
H        1.38048911       7.43950439       3.93907807       0.00069103      -0.00431065       0.01556422
H       -0.23660235       8.04317169       4.34702103      -0.00304875      -0.00963806       0.00780477
H        1.06691480       9.63002616       5.52837123      -0.01414073       0.00528817       0.00095025
H        2.35834785       9.64314484       4.33440153      -0.01013494       0.00213800       0.00345566
H        1.30021353       8.40239147       1.75199313      -0.00164312      -0.03447793       0.00837108
H       -0.47171892       8.23125436       1.98882757      -0.00201213      -0.01562119       0.00741746
H       -0.35711666      10.96666902       4.15192062      -0.02256513      -0.02639682      -0.02099767
H        1.23828316      11.55242222       3.59027570      -0.02549109      -0.00348359      -0.00183818
O        3.71010434      11.30687147       5.30685666      -0.00545168       0.01708972      -0.01340008
C        4.56374569      11.34702476       7.49626607      -0.00347325       0.01344350      -0.01514161
C        5.38900106      10.34432645       6.69110247      -0.00233492       0.01740587      -0.01823467
C        3.29193606      11.39734036       6.67841488      -0.00436518       0.01211819      -0.01330322
C        5.01644366      10.70440014       5.25928334      -0.00583979       0.01795959      -0.01668233
H        4.38641415      11.01101540       8.51231416      -0.00061493       0.01119791      -0.01555893
H        5.05466486      12.32293951       7.52005782      -0.00615905       0.01446056      -0.01462158
H        6.45855745      10.40262918       6.87673280      -0.00265259       0.02075288      -0.02035487
H        5.07103489       9.33515703       6.95260643       0.00126491       0.01616108      -0.01953322
H        2.64269471      10.54904244       6.93351961      -0.00161469       0.01014113      -0.01531179
H        2.70537477      12.31048485       6.79052231      -0.00680336       0.00996476      -0.01067487
H        5.71435074      11.42934943       4.82582131      -0.00750959       0.01826203      -0.01876956
H        4.98378993       9.83225680       4.59758641      -0.00685086       0.01843178      -0.01700181
O        7.60545424       2.42413554      10.39804266       0.00117826      -0.00448093      -0.00304398
C        6.08556315       3.47336691       8.92651222      -0.00032142       0.00171959       0.00388759
C        5.43690786       3.36730686      10.30638666       0.00206137      -0.00397679       0.00407499
C        7.16359674       2.40722374       9.02979398      -0.00024790       0.00181568      -0.00226384
C        6.65708843       3.14291458      11.19402790       0.00327700      -0.00667328       0.00065842
H        5.39173627       3.30243518       8.10470761      -0.00111881       0.00524279       0.00421932
H        6.53446878       4.45993935       8.79718186      -0.00086416       0.00207585       0.00743583
H        4.87192067       4.25494044      10.59175583       0.00190526      -0.00587565       0.00825880
H        4.76994975       2.50051206      10.33914884       0.00306997      -0.00436863       0.00184840
H        6.75052649       1.41953558       8.80199684      -0.00003988       0.00299919      -0.00639872
H        8.02142148       2.59015159       8.38410554      -0.00141090       0.00510933      -0.00219062
H        7.09288656       4.10270525      11.49841624       0.00394243      -0.00789005       0.00254729
H        6.44530998       2.57321326      12.10093101       0.00479512      -0.00931376      -0.00080103
O       10.04453476      10.16883680      10.78449410       0.01982272       0.00628060       0.00732760
C       12.36424590      10.35637510      10.68975621       0.01915780      -0.00334487      -0.00231984
C       12.01696485       8.86332191      10.71615976       0.01319876      -0.00139624      -0.00577359
C       11.09147599      10.96211252      11.29737727       0.02438933      -0.00156686       0.00755844
C       10.54682850       8.88930728      10.33033955       0.01277959       0.00583088       0.00086617
H       13.35442422      10.53556141      11.13484130       0.02345389      -0.01412443      -0.00822998
H       12.44217894      10.69301708       9.65440857       0.00879671       0.00234409      -0.00128859
H       12.62584644       8.29329420      10.01885953       0.00817803      -0.00212975      -0.00923350
H       12.15405192       8.44929664      11.71933972       0.01735007      -0.00164376      -0.00677213
H       11.05721037      10.88042866      12.42356180       0.02460390      -0.00777153       0.00743595
H       10.88406798      12.00179923      11.00629551       0.02847360       0.00151172       0.01496017
H       10.41510217       8.84994372       9.25104423       0.00836176       0.00922664       0.00158793
H        9.94822781       8.10324998      10.79128271       0.01071876       0.00812468       0.00089911
O        8.75505545       4.57890781       7.11937002      -0.00731653       0.00577226       0.00546642
C       10.63908952       5.76765313       6.32554160      -0.00443554       0.00143585       0.00649700
C        9.49528666       6.74227002       6.59969328      -0.00254463       0.00293839       0.00698927
C        9.90641593       4.43103811       6.28021425      -0.00584203       0.00226146       0.00848699
C        8.66844745       5.93972699       7.58270647      -0.00219043       0.00464767       0.00788456
H       11.18619288       5.97590523       5.40584823      -0.00556218      -0.00061305       0.00571671
H       11.34942446       5.78855219       7.15374829      -0.00320680       0.00157802       0.00517571
H        9.81219766       7.71315022       6.97363292      -0.00139770       0.00282750       0.00541985
H        8.91685177       6.90968206       5.68743089      -0.00373739       0.00219716       0.00796157
H        9.56840839       4.20694756       5.25979166      -0.00426987      -0.00029016       0.00899988
H       10.50369388       3.58478277       6.62856984      -0.00734317       0.00312686       0.01229635
H        9.07033462       6.01387160       8.59965241       0.00059426       0.00219458       0.00664985
H        7.61958540       6.23203650       7.62021174      -0.00094616       0.00748235       0.01094889
O        9.48870010       8.23264459       2.11176443      -0.01452035      -0.02454168       0.01156840
C        8.14227878      10.16333663       1.92332736       0.01405010      -0.00418532       0.00496794
C        8.22079689       9.77089148       3.39566313       0.00751221      -0.00509635       0.00510320
C        8.51178720       8.85959724       1.24557860       0.00408870      -0.00679952       0.00435585
C        9.46487738       8.90357068       3.38041268      -0.00021833      -0.01498622       0.00544330
H        7.17775816      10.53200042       1.60261109       0.01853234       0.00477300       0.00300862
H        8.88746666      10.93514621       1.70175739       0.02159148      -0.01111269       0.00830173
H        8.32251787      10.60719128       4.08567374       0.01376557      -0.00611612       0.00513290
H        7.33832115       9.19394660       3.68286797       0.00280842       0.00150830       0.00362964
H        7.64770742       8.20392055       1.15384652      -0.00304657       0.00554705      -0.00845946
H        8.93568971       8.99295052       0.25432407       0.01687601      -0.00827398       0.01001167
H       10.34054463       9.54227590       3.47605510       0.00437623      -0.02042353      -0.00460593
H        9.51025058       8.16222472       4.17686422      -0.00091922      -0.00856411       0.01074472
O        6.34646964       4.29837917       2.10762231      -0.01588883      -0.00431594       0.00002509
C        6.72236039       4.87632306       4.32576175      -0.00494879      -0.00639697      -0.00229758
C        6.54685662       6.18685125       3.55739573      -0.00006142      -0.00542283      -0.00159031
C        7.19229696       3.96629304       3.20817531      -0.01390941      -0.00912444      -0.00332808
C        6.05782291       5.70705570       2.18094338      -0.00237566      -0.00225779      -0.00145495
H        7.40818668       4.93741880       5.16920623      -0.00202598      -0.00977520      -0.00478524
H        5.76145121       4.51561184       4.70074820      -0.00533220      -0.00096317       0.00084962
H        5.84638569       6.87549442       4.02970992       0.00286359      -0.00369377      -0.00039932
H        7.50511341       6.70157757       3.45793440       0.00122797      -0.00911079      -0.00192605
H        8.24455512       4.17163722       2.95633081      -0.01427150      -0.01530497      -0.00735156
H        7.08267108       2.90019564       3.40855638      -0.01978417      -0.00812173      -0.00307473
H        4.97760816       5.82115629       2.06510373      -0.00099605       0.00742728      -0.00437371
H        6.54269087       6.23063083       1.35314929       0.00382626      -0.00734392      -0.00076729
