142
Lattice="13.05492456353676 0.0 0.0 0.0 13.05492456353676 0.0 0.0 0.0 13.05492456353676" Properties=species:S:1:pos:R:3:forces:R:3 energy=-402945.15625 stress="0.0004929076530970633 0.00019198997324565426 0.0005361018411349505 0.00019198997324565426 -0.0009303510887548327 0.0006310738972388208 0.0005361018411349505 0.0006310738972388208 -1.6462501662317663e-05" pbc="T T T"
Eu      13.59597507      13.31973851       0.66707257       0.02354795      -0.02855557       0.01288310
N       12.05124240      12.60772516      12.12558896       0.02841920       0.00676708      -0.00560006
C       12.38922514      13.09153482      11.10103549       0.04715102       0.01210071       0.00304639
N        3.35542671      11.39304754      -0.50754195       0.01732934      -0.02920565      -0.00006628
C        2.41307280      11.92671098      -0.07892009       0.02492011      -0.03808731       0.01813737
N       -0.53468863      12.83078797       2.66467292      -0.00115740       0.00958245       0.01215404
C        0.26110411      12.60919457       3.50859384      -0.00452726      -0.02326940       0.00626341
O        8.86493279       9.64554798       9.50275871      -0.00233555       0.00481769      -0.00503842
O       10.85686879       9.13215302      10.14590205      -0.00279662       0.00461467      -0.00371006
O       10.57723413      10.99503689       8.87967543      -0.00508887       0.01764441       0.01662171
C        7.92899313      10.55797784       8.89459747      -0.00136304       0.00312874      -0.00890556
C        6.64495629       9.80296860       8.66655676      -0.00218216       0.00288242      -0.00344206
C       10.14846477      10.02798692       9.45576255      -0.00378567       0.00977969       0.00391084
C       12.26255792       9.41878745      10.25631172      -0.00352125       0.00650698      -0.00166333
H        7.78696137      11.40014207       9.57735458       0.00055151       0.00787812      -0.01442260
H        8.35565767      10.94034744       7.96733640      -0.00165448      -0.00342973      -0.01190016
H        5.88709555      10.47574780       8.26430709       0.00002368      -0.00049660      -0.01315507
H        6.79511146       8.99046357       7.95596242      -0.00138895      -0.00532408       0.00618866
H        6.26757809       9.38329856       9.59717292      -0.00512981       0.01393288       0.00040066
H       12.63153691       9.85416012       9.33271281      -0.00096351      -0.00078195      -0.00421843
H       12.73768343       8.46177791      10.45240291      -0.00398082       0.00809768       0.00690719
H       12.43284397      10.11197674      11.07854705      -0.00548325       0.01310703      -0.00712797
O        2.13694993      10.22323325       6.02289566       0.00083391       0.00112996       0.00241865
O        3.21252467       8.56871623       5.13989721       0.00245208       0.00275674       0.00117493
O        1.21373184       8.15445853       6.12214887       0.00302529       0.00008893       0.00120634
C        0.97911863      10.74011579       6.73035237       0.00025305      -0.00079769       0.00276056
C        1.21828135      12.19921000       6.99991938       0.00103021      -0.00234902       0.01055747
C        2.09472149       8.91032097       5.79642383       0.00211525       0.00128323       0.00147781
C        3.30833483       7.17421366       4.82097477       0.00433595       0.00284729       0.00101769
H        0.09804635      10.58145721       6.10742000       0.00136930       0.00329985       0.00014612
H        0.86345264      10.16370058       7.64775706      -0.00184724      -0.00503001      -0.00024444
H        0.38227178      12.59529295       7.57694337       0.00161265      -0.00478313       0.01313949
H        2.12965609      12.34374935       7.58125017       0.00115697      -0.00614093       0.01130603
H        1.28632528      12.74932637       6.06249028       0.00158082       0.00284495       0.01372147
H        3.35419378       6.58035969       5.73353055       0.00408175       0.00283468       0.00103229
H        4.21853213       7.07063903       4.23703308       0.00510728       0.00394280       0.00209270
H        2.44197935       6.85810917       4.24269076       0.00547513       0.00184742      -0.00008941
O       10.11822104       2.96382833       2.86939092      -0.00527052      -0.01713405      -0.00028309
O        8.38828964       1.73901423       3.26438650      -0.00695144      -0.01515611      -0.00144207
O        8.08989855       3.96495092       2.96540740      -0.00540650      -0.01638645      -0.01260106
C       10.69016534       4.23702810       2.52327204      -0.00350273      -0.01837805      -0.00200747
C       12.17443258       4.02822926       2.38226244      -0.00425699      -0.02091582      -0.00624155
C        8.78971718       2.98118205       3.02800001      -0.00563657      -0.01602530      -0.00527451
C        6.98048373       1.59678959       3.49867680      -0.00692874      -0.01252285      -0.00030453
H       10.23925256       4.58496360       1.59098213      -0.00532444      -0.01751261      -0.00066245
H       10.45424849       4.96365785       3.30303391      -0.00021874      -0.01804274      -0.00121400
H       12.63937655       4.94528508       2.01995633      -0.00379975      -0.01949184      -0.00257879
H       12.63088292       3.75473482       3.33388153      -0.00254186      -0.02585647      -0.00854155
H       12.36915982       3.22289884       1.66475381      -0.00727889      -0.01725386      -0.01040882
H        6.65465052       2.28826121       4.27069872      -0.00342501      -0.01567414       0.00406685
H        6.85249968       0.57208112       3.82919716      -0.00917918      -0.01392293      -0.00566456
H        6.43084506       1.77151425       2.57495609      -0.00813827      -0.00635278       0.00162360
O        7.18419899      11.58584253       1.83661213       0.01481321       0.00349060       0.00735351
O        5.06967306      11.42396117       2.27011193       0.01531166       0.00320362       0.01146156
O        6.50273365      10.03331316       3.33644113       0.01700306      -0.00085115       0.00355589
C        8.53621466      11.05882895       1.96977773       0.01481448       0.00314060       0.00551999
C        9.47013510      11.95409730       1.21084097       0.01283398      -0.00339344      -0.00477502
C        6.27599650      10.92575207       2.55473845       0.01590551       0.00189579       0.00713277
C        3.98434348      10.77625657       2.96701280       0.01685309      -0.00185512       0.00950967
H        8.77558077      11.00834064       3.03260889       0.01903059       0.01067592       0.00495589
H        8.52013566      10.04772971       1.56227901       0.01220222       0.00048536       0.01263148
H       10.48320114      11.56248713       1.28782869       0.01228841      -0.00539170      -0.00667664
H        9.20595809      11.99957954       0.15557965       0.00762448      -0.01035608      -0.00384024
H        9.47579037      12.96520303       1.61309489       0.01710837      -0.00085232      -0.01171209
H        4.00935374       9.70596285       2.78882368       0.02780125      -0.00283810       0.01730613
H        3.07938626      11.21388990       2.55608019       0.01533625      -0.01360138       0.00063425
H        4.05490124      10.95105966       4.03886648       0.00832275       0.00714853       0.00865042
O        2.83728970       3.85384069       2.33839499      -0.02143325       0.00722963      -0.00814474
O        3.40528440       2.18904645       3.55965757      -0.02733323       0.00158349      -0.01082399
O        2.24130875       1.79104436       1.65693639      -0.00228175       0.00858282      -0.02599658
C        2.36903363       4.40695723       1.08307517      -0.01251423       0.00908655      -0.01163161
C        2.29331324       5.89312323       1.27844000      -0.00508121       0.00980392      -0.01456787
C        2.78289665       2.54438850       2.46469854      -0.01579666       0.00726897      -0.01489338
C        3.55970389       0.76831199       3.79433757      -0.02736415      -0.00060052      -0.02281627
H        3.07643770       4.11883112       0.30288337      -0.01056293       0.00408954      -0.00784829
H        1.40094771       3.97068191       0.84498701      -0.01367792       0.01390223      -0.01542119
H        2.00316867       6.37402833       0.34517150       0.00002787       0.00846490      -0.01692219
H        1.55724503       6.14350912       2.04198338      -0.00616899       0.01637483      -0.01769906
H        3.25861813       6.28546074       1.59043018      -0.00381833       0.00599541      -0.01360936
H        2.58705689       0.29225787       3.90218409      -0.02823827      -0.00019376      -0.02184388
H        4.12170188       0.70832891       4.72187204      -0.02473160      -0.00934051      -0.02612382
H        4.12242065       0.32531692       2.97714124      -0.03206243       0.00467980      -0.02904263
O        6.84777783       7.19711842       2.77310673      -0.00331130      -0.00473465      -0.01260611
O        5.08499518       7.75098154       1.63913764      -0.00311378       0.00309242      -0.00796928
O        7.12170961       8.12745065       0.72910752      -0.00349331       0.01885027      -0.00199175
C        8.28258535       7.25959952       2.95009599      -0.00380381      -0.00419866      -0.00988311
C        8.57224987       7.13242379       4.41935613      -0.00651920      -0.00881425      -0.00975466
C        6.42692107       7.72827507       1.63075569      -0.00332254       0.00687107      -0.00726014
C        4.49436474       8.37648534       0.48135468      -0.00409620       0.01709591      -0.00036973
H        8.72223577       6.44622542       2.37403397      -0.00199731      -0.00190163      -0.01192272
H        8.63413486       8.21053352       2.55762033      -0.00414212      -0.00253153      -0.00579189
H        9.64756508       7.21546870       4.58896030      -0.00744793      -0.00390714      -0.00696663
H        8.07502737       7.92949654       4.97169307      -0.01195322      -0.01319805      -0.00818609
H        8.24120296       6.16835880       4.79676844      -0.00277328      -0.01184052      -0.01434132
H        5.02989403       9.27961350       0.20474091      -0.00683627       0.02232483       0.01228566
H        3.47696703       8.62994750       0.76224825      -0.00500494       0.01033691       0.00248364
H        4.48895894       7.67522757      -0.35344988      -0.00129699       0.02852306      -0.01001431
O       10.18764789       2.55585805      12.02841853       0.00390416       0.00213902      -0.00022327
O        8.44624325       1.46041217      12.72930780       0.00774798      -0.00101876       0.00174895
O        8.12697279       3.37887047      11.58405166       0.00183177       0.00628269       0.01519269
C       10.72224626       3.61133177      11.18931941       0.00240612       0.00875743       0.00730073
C       12.21385514       3.41870421      11.10692484       0.00326219       0.01503134       0.01166683
C        8.85004145       2.54461202      12.06792922       0.00449675       0.00262833       0.00600341
C        7.01757483       1.28627452      12.75153640       0.00806761      -0.00123812       0.00932876
H       10.25668862       3.53817241      10.20624444       0.00540754       0.01237041       0.00551140
H       10.44771490       4.57545707      11.62263216      -0.00280581       0.00531930       0.01170710
H       12.64838107       4.21639879      10.50346848       0.00246925       0.01916450       0.01673181
H       12.67110582       3.45587247      12.10102940      -0.00121099       0.01237216       0.01347002
H       12.45409229       2.45772771      10.65336276       0.00959036       0.01804715       0.00903793
H        6.53784081       2.16113690      13.18916956       0.00969245       0.00107238       0.00635220
H        6.84050493       0.39668933      13.34698194       0.01133443       0.00191522       0.01476534
H        6.64008041       1.14657474      11.73823115       0.00354265      -0.00751586       0.01176286
O        5.96939250       4.01130142       9.78172633      -0.00313731       0.00514546      -0.00315151
O        5.93036496       2.09178634       8.80971273      -0.00467701       0.00394954      -0.00115196
O        4.09951019       2.74567885       9.98093241       0.00667489      -0.00528461       0.02126625
C        5.39998294       5.01968865      10.64675256       0.00063723       0.00235355       0.00300186
C        6.48304296       6.02117259      10.95022696      -0.00017452       0.00511736      -0.00348948
C        5.21820031       2.93739454       9.57210287       0.00034082       0.00070037       0.00702623
C        5.22646480       0.90921774       8.40719352      -0.00313476      -0.00070588       0.00947455
H        4.54517584       5.46630086      10.13058081      -0.00464779       0.00063595       0.01009965
H        5.03201926       4.52889919      11.54977472       0.00924839      -0.00033265       0.00489613
H        6.08019699       6.84207285      11.54086961       0.00236897       0.00021212       0.00522071
H        7.28555871       5.55134023      11.51143492       0.00713579       0.00482583      -0.01405449
H        6.90168993       6.43834906      10.03516899      -0.01138597       0.01179599      -0.00552233
H        4.87069434       0.35504956       9.27445083       0.00875677      -0.00002834       0.01470813
H        5.94960659       0.33252231       7.83728306      -0.00624011       0.00120568       0.00351453
H        4.37425962       1.17289717       7.78072724      -0.01104963      -0.00661716       0.01774232
O        8.31927234       3.91477968       7.22513510      -0.00207389       0.00085220       0.00138351
O        9.87436363       2.48022244       7.66752672      -0.00599268      -0.00050515       0.00969832
O        8.15117925       1.83432770       6.34750116      -0.00104445       0.00028980       0.00273192
C        7.10003545       4.27434793       6.53806817      -0.00034252       0.00081462      -0.00151516
C        6.68343627       5.63464164       7.03238730       0.00260409       0.00373322      -0.00699380
C        8.72297631       2.66072571       7.01792049      -0.00287223       0.00015116       0.00440568
C       10.49423209       1.19688369       7.44367661      -0.00896186      -0.00325654       0.01772694
H        7.29902311       4.27212248       5.46383396       0.00062589      -0.00407366      -0.00129908
H        6.34709029       3.51608115       6.75156922      -0.00233942       0.00350520       0.00086747
H        5.84971474       6.00098108       6.43281110       0.00613317       0.00510167      -0.01095978
H        6.37493564       5.58051548       8.07163822      -0.00097367       0.00793166      -0.00771749
H        7.50212664       6.34661057       6.94790696       0.00564633       0.00032949      -0.00653671
H        9.80870183       0.38621481       7.67482071      -0.01072443      -0.00003886       0.02369452
H       11.34479294       1.16482700       8.11729314      -0.00834084      -0.00054288       0.01710422
H       10.81614921       1.11996968       6.40500538      -0.01020212      -0.01122837       0.01799080
