148
Lattice="13.08431143606582 0.0 0.0 0.0 13.08431143606582 0.0 0.0 0.0 13.08431143606582" Properties=species:S:1:pos:R:3:forces:R:3 energy=-451545.40625 stress="0.0007578367367386818 -0.0004416835872689262 0.0002762569929473102 -0.0004416835872689262 -0.00010207120794802904 0.0002501947747077793 0.0002762569929473102 0.0002501947747077793 -0.0010310760699212551" pbc="T T T"
Eu      11.89856739      12.65717646      -2.00555655      -0.00861388      -0.00103545      -0.00473404
Cl      12.97292277      11.32962797       8.43206448       0.00924563       0.00869489       0.00156096
O       13.34214749      12.05247234       7.22492136      -0.00808883       0.00545657      -0.00553572
O       11.53531482      11.66089293       8.80969208       0.00521207      -0.01205057       0.00498886
O       13.72517754      11.92222624       9.62925291       0.00397348       0.02978837      -0.00659108
Cl       0.50217910      10.92766920       0.92252918      -0.00598377       0.00538933      -0.01213789
O       -0.42719105      14.11186354      -1.27307827      -0.03180587      -0.00204098       0.02137780
O        1.80122571      11.69286565       1.02445916       0.00425577      -0.00883454      -0.03908193
O       -0.38149340      11.26324642      -0.31509265      -0.00680405      -0.01584846      -0.01662552
Cl       8.92088436      10.34502429      11.46672318       0.01004303      -0.00286591       0.00078559
O        9.55037779       9.36828730      10.56808388       0.04305458       0.00196290       0.01947856
O        7.67341411      10.84728741      10.86535050       0.01580834      -0.02620560      -0.02944934
O        9.88218362      11.56876764      11.54408497      -0.01037955       0.01116240       0.00806246
O        7.10851856       9.90706317       3.46218287       0.00439996       0.00040358      -0.00306356
O        7.81265715       8.54064978       1.94922059       0.00748709       0.00038749      -0.00132295
O        9.33046792       9.46977777       3.35071612       0.00437009      -0.00593038       0.00710356
C        7.35290799      10.89492857       4.48590318       0.00229377      -0.00282381       0.00004482
C        6.02681990      11.24075452       5.10638977       0.00073218       0.00080813      -0.00536177
C        8.19887185       9.32959670       2.96370076       0.00398040      -0.00266254       0.00081730
C        8.89599772       8.05634485       1.14685970       0.00961728      -0.00554872       0.00519711
H        8.05600388      10.48711501       5.21152922      -0.00260320      -0.00625905       0.00288114
H        7.81086344      11.76323220       4.00664906       0.00741526      -0.00322038       0.00408298
H        6.16222537      12.04355446       5.83047962       0.00003134      -0.00010587      -0.00423652
H        5.32733296      11.59286152       4.34753266       0.00494023       0.00337623      -0.00799581
H        5.60185388      10.38106735       5.61936440      -0.00390587       0.00173575      -0.00755236
H        9.44911777       8.89647799       0.73032132       0.02200168      -0.00900766       0.01488866
H        8.43290691       7.47871183       0.35166702       0.01148993       0.00349973      -0.00214434
H        9.56900318       7.43416566       1.73426914      -0.00194415      -0.01567282       0.00734204
O       11.54920071       4.18847367       3.78579229      -0.00072541       0.00406159      -0.00177824
O       10.78599176       3.94336529       1.77839559      -0.00217638       0.00708751      -0.00117791
O       11.49790813       2.10597199       2.89903950      -0.00886700       0.00330651      -0.00283272
C       12.09572658       3.61317440       4.99341281       0.00137074       0.00241375      -0.00421911
C       12.33915531       4.75022836       5.95041496       0.00118484      -0.00142500       0.00029722
C       11.29390267       3.28785777       2.82660623      -0.00493203       0.00735795      -0.00194014
C       10.45474106       3.09179957       0.66618694      -0.00191895       0.00839850      -0.00207299
H       11.37770286       2.89212960       5.38159377       0.00284228      -0.00011334      -0.00730944
H       13.01319658       3.07837736       4.74192036       0.00152653       0.00489604      -0.00810464
H       12.73008360       4.36259638       6.89146390       0.00306160      -0.00505792      -0.00171831
H       13.06202583       5.45750504       5.54233565      -0.00035135       0.00077556       0.00138523
H       11.41313924       5.28612420       6.15848859       0.00031218      -0.00398162       0.00297836
H       11.34565853       2.59201000       0.28343247      -0.00344118       0.00397339      -0.00062064
H       10.03090143       3.75825904      -0.08122658       0.00412674       0.01065581      -0.00295845
H        9.71742291       2.35016971       0.96801616      -0.00682735       0.01164877      -0.00566506
O        8.93747197       1.93522025       5.17698643      -0.00474483       0.00215499      -0.00922102
O        8.29473845       2.93406449       3.37883129      -0.00972704      -0.00028363      -0.00603589
O        7.01933518       1.24463997       4.18319963      -0.00957775      -0.00174606      -0.00229894
C        8.74099224       0.94977000       6.22199085       0.00198954       0.00267607      -0.00921005
C       10.04336544       0.79074068       6.95305377       0.00367200       0.00654321      -0.01090649
C        7.98695912       1.96685190       4.23663830       0.00178224       0.00792319      -0.00555375
C        7.34232088       3.10614230       2.30500317      -0.01110323       0.00247462      -0.00316108
H        7.93827144       1.30407762       6.87428792       0.00120205      -0.00137967      -0.00724453
H        8.41715402       0.01804235       5.76302349       0.00494263       0.00061303      -0.00814769
H        9.93315053       0.06304497       7.75549033       0.00840811       0.00686119      -0.01014905
H       10.83111876       0.42480051       6.29544738       0.00441128       0.01028887      -0.01218526
H       10.36812539       1.73718920       7.39051372      -0.00058226       0.00780407      -0.01069064
H        7.32052960       2.20762486       1.69440987      -0.01159693       0.00411606      -0.00611979
H        7.71728850       3.95684648       1.74461323      -0.01535317       0.00480062      -0.00288889
H        6.36248102       3.34096484       2.70756264      -0.01105472      -0.00066622      -0.00031424
O        7.12793106      11.30984807       0.87236759       0.00015652      -0.00049207      -0.01191434
O        9.14652491      11.72844671       1.42100148      -0.00647566       0.00110146       0.01186220
O        7.86317383      13.44626075       0.67593003      -0.00069405      -0.00134838       0.00457630
C        5.77180605      11.70202485       0.58653523       0.00158724       0.00016427      -0.01812897
C        4.99832568      10.43386194       0.34515286       0.00038424       0.00000781      -0.01373164
C        8.02826057      12.28079516       0.96007790      -0.00237437       0.00338948       0.00051439
C       10.24044808      12.62617084       1.64458039      -0.01086646       0.00301367       0.02607500
H        5.39742364      12.24987917       1.45511998      -0.00063024       0.00537229      -0.02235675
H        5.76572184      12.36644748      -0.27773913       0.00495936      -0.00442722      -0.02149564
H        3.93430754      10.66123792       0.27008049       0.00130171       0.00141301      -0.02285840
H        5.33906650       9.95667200      -0.57294724       0.00501385      -0.00773534      -0.00783969
H        5.15739714       9.74320441       1.17338268      -0.00721725       0.00582057      -0.00764267
H       10.34102438      13.31695271       0.81335082       0.00188445      -0.00020662       0.02544942
H       11.12303785      12.00227999       1.72440937      -0.01242769       0.00236610       0.03967413
H       10.09060849      13.19030927       2.56182792      -0.02551146       0.00465599       0.02318209
O        1.65281935       4.10445389       1.95333537      -0.00765327       0.00117180       0.00019994
O        2.58603706       2.16852713       2.18676796      -0.01330143      -0.00123554       0.00184342
O        3.86499167       4.02066830       2.43092897      -0.00691688      -0.00425893       0.00040641
C        1.74562206       5.54370846       1.97076541      -0.00359708       0.00097831      -0.00182660
C        0.43664297       6.09299462       1.47130897      -0.00160617       0.00448902      -0.00285409
C        2.80775646       3.47778313       2.21409852      -0.01154280      -0.00264820       0.00026193
C        3.75039436       1.35663044       2.42727690      -0.01569471      -0.00399622       0.00229099
H        1.95494844       5.85950934       2.99533496      -0.00266003       0.00170064      -0.00222087
H        2.58910398       5.84946907       1.34941229      -0.00242287      -0.00255265      -0.00203452
H        0.47675318       7.18275577       1.46379218       0.00214802       0.00429034      -0.00515637
H        0.23866571       5.74883229       0.45652312      -0.00282242       0.00310860      -0.00215702
H       -0.38889596       5.77775655       2.10585627      -0.00268982       0.00847338      -0.00228789
H        4.50651031       1.54515045       1.66675356      -0.01448232      -0.00499845       0.00322267
H        3.39222103       0.33429754       2.36252136      -0.01751566      -0.00330952       0.00116881
H        4.17665405       1.56767220       3.40659316      -0.01600695      -0.00538388       0.00291732
O        5.68379573       7.50173865       4.50294957      -0.00047180      -0.00038421       0.00447890
O        7.79549205       7.09027981       4.65669943      -0.00157434      -0.00117416       0.00655852
O        6.46027216       5.51837896       3.73284210      -0.00143307       0.00121784       0.01516712
C        4.35274789       7.14917586       4.06981942      -0.00018951      -0.00027728       0.00509901
C        3.59495112       8.44046000       3.88588963       0.00095442       0.00007039       0.00012902
C        6.62385843       6.59571502       4.24571981      -0.00165893      -0.00484669       0.00704956
C        8.92407158       6.24448425       4.38840912      -0.00208479      -0.00301911       0.01137750
H        4.42503664       6.56280615       3.15500806      -0.00059146      -0.00296572       0.00711966
H        3.91185147       6.51459616       4.84322962      -0.00168036       0.00282881       0.00687313
H        2.56289870       8.23014295       3.60062920       0.00148824       0.00035261      -0.00282344
H        3.58476585       9.02235513       4.80646382      -0.00120706       0.00206126      -0.00137538
H        4.05113739       9.04851319       3.10646863       0.00386898      -0.00242656       0.00003892
H        8.89001615       5.35089728       5.01022391      -0.00242922       0.00073153       0.01659831
H        9.79431875       6.85197619       4.61461130      -0.00106627      -0.00234523       0.00792499
H        8.93471367       5.93693443       3.34532897      -0.00221240      -0.00914031       0.01341274
O        9.73219097       3.38734893       9.84204219       0.00261894      -0.00267880       0.00755326
O        8.14246226       1.94225075       9.84645252       0.00010633      -0.00082016       0.01081224
O       10.23667897       1.23637463      10.30934128       0.00703421      -0.01083991      -0.03750157
C       11.11729763       3.76854641      10.03703717       0.00722864      -0.01119828      -0.00910181
C       11.17713400       5.25077870       9.77067199       0.01181821      -0.00945020       0.00474856
C        9.43404658       2.11286308      10.02703718       0.00297228      -0.00461560      -0.00842075
C        7.64519616       0.60848567      10.13759440       0.00266685      -0.00438184      -0.00118332
H       11.41722137       3.50093863      11.05028849       0.02031657      -0.02411999      -0.01662093
H       11.74015194       3.19492715       9.34979231      -0.00641087      -0.00668809      -0.02470258
H       12.18775406       5.62044448       9.94365303       0.01543407      -0.01564956      -0.00525177
H       10.90356490       5.46637116       8.73858910      -0.00100105       0.00184499       0.01083556
H       10.49317393       5.79871652      10.41798751       0.02349605      -0.01291386       0.01909104
H        8.26486723      -0.14998077       9.67203201      -0.00184533       0.00098976      -0.01563740
H        6.63681887       0.59884532       9.73783609      -0.00084820       0.00082365       0.00744746
H        7.64412809       0.45631797      11.21425013       0.01176254      -0.01704314      -0.00315085
O        5.18087634       3.23141016       9.82848594       0.00977230      -0.00437281       0.00401725
O        5.73705464       3.23626532       7.74247337       0.00330265      -0.00199431       0.00283462
O        6.63915953       4.80712196       9.10205643       0.00099838      -0.00498879      -0.00011191
C        5.21080909       3.84037199      11.13399928       0.01436961      -0.00620171       0.00440532
C        4.52707419       2.90020682      12.08957315       0.00820318      -0.00235629       0.00426245
C        5.92680546       3.85815558       8.91139740       0.00741255      -0.00032866       0.00289470
C        6.39312464       3.87299669       6.63617403      -0.00346571       0.00114176       0.00110288
H        6.24865038       4.02780149      11.41042301       0.01558375      -0.01387614       0.00427490
H        4.70035485       4.80495376      11.07088606       0.02083430      -0.00283557       0.00596616
H        4.51457310       3.34662781      13.08474632       0.01020999      -0.00239326       0.00452207
H        3.50025923       2.69904775      11.78482221       0.00724036       0.00424264       0.00354088
H        5.06384989       1.95278675      12.14533439       0.00227228      -0.00552464       0.00443918
H        6.04390088       4.89968918       6.54810416      -0.00522636       0.00080857       0.00503244
H        6.11482172       3.29732796       5.75950892      -0.00682722       0.00291994       0.00047541
H        7.47393761       3.85913862       6.77971853      -0.00280640       0.00246395      -0.00489964
O        6.23976610       8.60385480       7.59047308      -0.00228700       0.00679901       0.00718596
O        4.12692802       9.00403204       7.44530247      -0.00078103       0.00836551       0.00292351
O        4.80393053       6.84451377       7.53452306      -0.00250679       0.00858819       0.00788387
C        7.36660927       7.71547799       7.84066379      -0.00417686       0.00584024       0.00976412
C        8.61968886       8.46996432       7.48969650      -0.00236887       0.00320140       0.01316771
C        5.04982243       8.02676283       7.52677650      -0.00258333       0.00628805       0.00617746
C        2.76920881       8.55085185       7.46792536      -0.00104596       0.01052485      -0.00025254
H        7.33576764       7.43132435       8.89230530      -0.00602336       0.00582300       0.00970250
H        7.23413107       6.81611927       7.24309093      -0.00101821       0.00610209       0.00899157
H        9.48513645       7.84826463       7.72631465      -0.00552386       0.00121602       0.01813039
H        8.64284523       8.70157448       6.42586263       0.00228060       0.00399967       0.01331109
H        8.70626687       9.38327618       8.07507853       0.00023565       0.00121206       0.01493570
H        2.59094044       7.82669629       6.67398479       0.00209199       0.00597307       0.00343964
H        2.16314600       9.44096335       7.32186725       0.00166003       0.01086587      -0.00830197
H        2.54160035       8.08501636       8.42691310      -0.00529093       0.01690027       0.00158542
