148
Lattice="11.597377881650836 0.0 0.0 0.0 11.597377881650836 0.0 0.0 0.0 11.597377881650836" Properties=species:S:1:pos:R:3:forces:R:3 energy=-324416.8125 stress="0.00023005933326203376 5.735672311857343e-05 -0.00010892399950535037 5.735672311857343e-05 -0.00024659320479258895 -0.000598555023316294 -0.00010892399950535037 -0.000598555023316294 0.0003382068534847349" pbc="T T T"
Fe      11.88982634      10.89591598       0.92801539       0.00339402      -0.00330056       0.00093222
Br       8.01844294      11.23129563       5.05546902      -0.00159173       0.01238023      -0.00524633
O        8.57590980      11.72530783       6.50242560       0.00339258       0.01137643       0.00004238
O        9.16294543      11.59083998       3.94018487       0.00556186       0.00269178      -0.00079733
O        7.76556000       9.63818870       5.13748037       0.00229219       0.00614548       0.00330058
O        6.65736961      12.01813683       4.68531481       0.00842547       0.00546932      -0.00392640
Br       3.50428485      11.14863917       1.34781031       0.02176028      -0.02253315      -0.00373672
O        4.76724374      10.22575120       0.99749172      -0.01612976       0.03039175       0.02608642
O        3.48115517      12.54060024       0.49743849      -0.00316658       0.01790887      -0.00036499
O        2.12283566      10.26480491       0.92646633       0.00350821       0.00685215       0.00409419
O        3.40326256      11.51367744       2.92258274      -0.01417864       0.01739417       0.01485223
Br       8.05797772       8.18015982       1.11973964       0.00396067       0.01472167       0.00171151
O        6.80482850       7.24396019       0.73722590      -0.00584817       0.00448027      -0.00297765
O        8.58018365       8.96582705      -0.23057082       0.00264943       0.00112671      -0.00607121
O        7.69087410       9.29924234       2.21800438       0.00846647       0.00105232      -0.00828728
O        9.29880270       7.27455830       1.67136896       0.00055468      -0.00016743      -0.00591299
N        3.05002376       6.08308633       2.16215870       0.01386867      -0.00513206      -0.00661325
H        2.83051568       5.69265825       3.07416290       0.03337440      -0.01216076      -0.00200392
H        3.98470025       5.74561327       1.95483422       0.01191245       0.00879305      -0.02081222
H        2.42803419       5.63020712       1.50125169       0.00889216      -0.00983307       0.00428292
N        5.27506652       4.22204953       8.13219419      -0.00419304      -0.00042218       0.00434458
H        5.13188126       4.45184195       9.10924127       0.00377987       0.00726328       0.00265536
H        5.72564337       5.03317817       7.70088878       0.00587926      -0.01157568      -0.00277291
H        5.91193708       3.42933317       8.10780128      -0.01798610      -0.01262771       0.00558541
N        3.33090006       7.51721473      -0.84669351      -0.00452866       0.01698253       0.00906143
H        3.16378981       6.61676385      -1.29793348      -0.00662282       0.00920820      -0.00091359
H        4.26673092       7.81620773      -1.09707904      -0.01336050       0.01504707       0.00783546
H        3.34372871       7.38724326       0.15915629      -0.00900855       0.00725723       0.00214979
N        6.66976382       6.64320686       6.70973941       0.00367556      -0.00644180      -0.00900475
H        7.07836399       6.46890739       5.80001912       0.00491081       0.00384504      -0.01099274
H        6.34140194       7.60172718       6.68971597      -0.01148784      -0.01423565      -0.00406685
H        7.39585342       6.58897745       7.42329600       0.00716452       0.00292149      -0.01054375
N        0.80467569       3.20709482      10.03769518       0.00028256       0.01859173      -0.00253505
H        0.60357264       2.28659498      10.40151511       0.00084691       0.00127716      -0.01578709
H        0.29670218       3.88521105      10.60941950      -0.01492703      -0.00151563       0.01131853
H        1.79619481       3.38563048      10.14003794      -0.01556268       0.01990104       0.00059549
N        1.97465131       8.62378439       3.99949700       0.00498676      -0.01193732      -0.00664566
H        2.47020378       8.01900820       3.35011723       0.00425192      -0.00737300      -0.00713618
H        1.63479468       8.04033244       4.75662947       0.01145738      -0.00848392      -0.00569318
H        2.64037319       9.27587290       4.40789866       0.00899064      -0.00720052      -0.00768208
N        9.92791109      11.37995542       0.79749310       0.00235003      -0.00461356      -0.00042673
H        9.76856627      12.17685228       0.18485800       0.00332205      -0.00008902       0.00659835
H        9.49784218      11.59006657       1.69932624       0.00056240      -0.01273663       0.00074470
H        9.37684217      10.61068021       0.40249351       0.00363988      -0.00265715      -0.00740725
N        0.01756704      10.39732367       2.86780869       0.00081682      -0.00831521      -0.00135916
H        0.05011388      11.17819409       3.51978992      -0.00018596      -0.00696027       0.00204991
H       -0.89714889       9.98251815       3.03877022       0.00364605      -0.00924514      -0.00214544
H        0.73212757       9.71323056       3.21586460       0.00334725      -0.00612587      -0.00199646
N        5.76225313       2.48780102       2.33596870       0.01339340       0.01513753       0.00315906
H        5.09469839       2.14312380       1.65638668       0.00047213       0.00624920       0.00114423
H        6.03592657       1.69786357       2.91086981       0.01079808       0.01254696       0.00069457
H        6.57937498       2.78651200       1.81781614      -0.00424901       0.01474749       0.00322080
N        8.26118694       3.51468479       6.27329328      -0.00431909       0.00716197       0.01643087
H        7.95725456       2.62565209       6.65423372      -0.00347963       0.00278413       0.00601326
H        8.86096529       3.30369899       5.47718042      -0.02235089       0.01586836       0.00102775
H        7.43265560       3.95956346       5.89183651      -0.00554433       0.02052382       0.04450355
N        3.92106940      -0.70858712       9.21977592      -0.00662985      -0.02974930       0.00778148
H        3.31549493      -1.33881905       9.73298244      -0.00186227      -0.03587347      -0.00424998
H        4.66295526      -1.28839698       8.83004380      -0.00014943      -0.00883985       0.00840538
H        3.39070519      -0.32792865       8.44322347      -0.01282752      -0.03145422      -0.00273210
N       -0.25309945       6.06818783       4.31408350      -0.01625316      -0.00120994       0.00056516
H       -0.39862783       6.84953377       4.96073254      -0.01474695       0.00010640       0.00026026
H       -1.05615096       5.45866492       4.43761471      -0.01748806       0.00076160       0.00117250
H       -0.35223822       6.46693835       3.38642054      -0.01443337      -0.00224717       0.00045049
N        1.80813695       3.59299121       4.24782530      -0.01906243       0.00044788      -0.01065740
H        1.93832211       3.45455902       3.25058707      -0.01568284       0.00415468      -0.01358217
H        2.74225250       3.89944610       4.55694622      -0.01902290      -0.00384370      -0.00764846
H        1.21314876       4.42050341       4.34329965      -0.01572837       0.00037654      -0.01014284
N       11.53444136       8.96605932       0.43367872       0.00681187      -0.00324848      -0.00352095
H       12.41672900       8.55647882       0.13342275       0.01008388      -0.00403780       0.00788076
H       10.87042510       8.85244961      -0.32810996       0.01688981      -0.00151473      -0.01065901
H       11.16944019       8.39650969       1.19349916      -0.00350992      -0.00369938      -0.00698441
N        2.43674046       5.34341860       8.59809734       0.00270176       0.01537400       0.00216322
H        3.20413783       4.83414809       8.16173102       0.00135207       0.01188406       0.00553432
H        2.30471628       6.18671264       8.04533620       0.00060943       0.01050317      -0.00112596
H        1.61111784       4.76740366       8.49406027       0.00068948       0.01327918       0.00653291
N        3.96437851      10.67176286       5.80618639       0.01390205       0.00065276       0.00841732
H        3.53626115      11.53329007       6.14788433       0.01327634      -0.00121351       0.00393554
H        4.38860485      10.90700296       4.91480362       0.00066753       0.00525651      -0.01127355
H        4.74007249      10.49284202       6.43618985       0.01949134       0.00752860      -0.01541866
N       10.60295873       5.09516025       7.67590242       0.00580177      -0.00269356       0.00783717
H        9.80936577       4.58902521       7.26838047       0.01028457      -0.00662096       0.00334180
H       10.99213699       4.50761598       8.40743043       0.01844458      -0.00967421      -0.00628605
H       11.31646818       5.14279667       6.95528501      -0.00123675       0.02240356       0.00587454
N        6.15346487       1.25804721       8.10181303      -0.01567848      -0.00751489       0.00025918
H        5.50434579       1.36543264       7.32832206      -0.00922107      -0.02677161      -0.00938395
H        5.63453488       0.74182901       8.80983120      -0.01310188      -0.00021055       0.00037481
H        6.88709108       0.65186982       7.75361509      -0.00387771      -0.00353517       0.01427947
N        4.72576863       4.53844625       4.67031162      -0.01769837       0.00384810       0.00509017
H        5.12687499       3.88645462       3.99549118      -0.01275551       0.00116804       0.00407681
H        5.02914368       4.27459270       5.60109703      -0.02208103      -0.00156456       0.00404096
H        5.11852178       5.46017746       4.47946842      -0.01301406      -0.00167307       0.00780094
N        0.73487218       1.25371557       1.48126108      -0.00869271       0.00168455      -0.00303435
H        0.98001430       1.32258976       2.46865059      -0.00093004       0.00042554       0.00193018
H       -0.00478868       1.93247027       1.32293324      -0.00891551      -0.00830969       0.00578083
H        1.56143241       1.57749356       0.97552635      -0.01130235       0.00550124      -0.00248936
N       10.15209449       1.30841288       8.81684504       0.01563178       0.00277737      -0.00394623
H       10.42924074       2.28512824       8.86006636       0.00370339       0.00560628       0.00026136
H        9.15416596       1.30481642       8.62983424       0.01863103      -0.00918892      -0.01122432
H       10.57889326       0.98878753       7.94554432       0.02605958       0.01041559      -0.00294596
N        5.43396677       7.67380216       3.86722429       0.00406598       0.00508961      -0.00559843
H        6.25702938       8.26560424       3.81036116       0.00522324       0.00185446       0.00806697
H        4.81276300       8.12668506       4.52797429      -0.00539733       0.01262457      -0.01067358
H        4.97876020       7.73931360       2.96345788       0.01689897       0.00592522      -0.00592658
N        2.84271018       1.94561139       7.06929331       0.01236172       0.00045014      -0.00274413
H        2.58732054       2.34236159       6.16833768       0.01413929       0.00245111      -0.00491765
H        3.51308705       2.59738746       7.47328580       0.00574985       0.00310418       0.00156733
H        1.99867750       2.01850197       7.62982202       0.00978100      -0.00880648      -0.00907663
N        6.77068078       9.42848892       8.66166923      -0.00415787      -0.00849614      -0.00052680
H        7.34898197      10.04926764       8.10541526       0.00273801      -0.03360249      -0.02744095
H        7.19784978       8.50910371       8.58801265      -0.01825004      -0.01201490       0.02594125
H        6.89971654       9.70200353       9.63066718       0.00571420       0.02273285      -0.01856697
N       10.40138088       8.11366886       6.45032233      -0.00683771       0.00127169       0.00637759
H        9.48980997       8.34681088       6.06926861      -0.00379328       0.00812615       0.01121503
H       10.67265109       8.89236189       7.03861222       0.00578377      -0.00055946       0.00347179
H       10.27810142       7.30865438       7.06173311      -0.01122164       0.00406985       0.01164103
N       10.32143451       4.71958389       0.19992353       0.00242260      -0.00634933       0.01200202
H       10.09914166       5.68098516       0.44376664       0.00183738      -0.00305752      -0.00575215
H       10.56538166       4.27363740       1.07672172      -0.00954052       0.00765600       0.02322494
H        9.43505122       4.31025361      -0.09763113       0.00821187      -0.00962484       0.00561471
N        7.92379635       3.21446929      10.36334891       0.00931028      -0.00044848      -0.00834711
H        8.66067078       2.51926930      10.31775994      -0.00337826      -0.01377329      -0.00740036
H        8.01382819       3.73881598       9.49599003       0.00906838      -0.01194959      -0.01335375
H        7.06515100       2.68590179      10.23748856      -0.00100836       0.01319662       0.00798684
N        8.31931201       6.54202677       9.43001806       0.00732710       0.00906610      -0.01248032
H        8.61278044       7.37984948       9.91846009       0.01661459      -0.00133443      -0.00831188
H        9.15536154       6.07001943       9.09436610       0.00559255       0.00531839      -0.02727593
H        7.86895138       5.95395679      10.12129953       0.01213777       0.00155681      -0.01936531
N       11.69294561       1.13562080       5.82776665       0.01730039      -0.01004174       0.00879809
H       12.11263691       1.92270787       5.33776369       0.00729874      -0.00468925       0.00480493
H       10.84030088       0.85868483       5.35716839       0.00294603      -0.00345395       0.00991844
H       12.35277960       0.36809487       5.78827211       0.00445393      -0.00321490      -0.00092970
N        9.97035592       3.18825063       3.54516259      -0.01817724      -0.01219244       0.01234472
H       10.97641280       3.30101777       3.52038805      -0.01329564      -0.01401544       0.02404597
H        9.54586091       3.72328760       2.79870430      -0.00664111      -0.02234864       0.00942146
H        9.73095442       2.20954146       3.43601718      -0.01232354      -0.01768502       0.01831437
N        0.96112434       8.60993206       9.08323526      -0.00985337      -0.00332387      -0.00787520
H        0.31047373       7.82895585       9.04530783      -0.00928368      -0.00247300      -0.00671786
H        1.75288906       8.27503686       9.64740438      -0.01223481      -0.00035210      -0.00228400
H        1.34336838       8.66504504       8.14125484      -0.00399265      -0.00854247      -0.00656208
N        3.38776021       7.77713051       6.95257096      -0.00001220       0.00984132       0.00134545
H        3.97718158       7.88263824       7.77243524      -0.00471166      -0.00334225       0.00164992
H        3.45716182       8.65878600       6.44604414       0.01070379       0.01624016       0.00707935
H        3.83717984       7.06049483       6.39035815      -0.00847049       0.01219577      -0.00535148
N        0.55039347      -0.31224012      10.53598263       0.00559856       0.00013009       0.00113656
H        0.63944312      -1.20291897      10.01536477       0.00158045       0.00131083      -0.00114144
H       -0.18224910       0.22393647      10.04895653       0.00848855       0.00430410       0.00097930
H        1.43549901       0.16976308      10.38671780       0.00823663      -0.00470664       0.00435398
