148
Lattice="11.290824832424226 0.0 0.0 0.0 11.290824832424226 0.0 0.0 0.0 11.290824832424226" Properties=species:S:1:pos:R:3:forces:R:3 energy=-142902.609375 stress="0.0020344757940620184 0.00035185513843316585 0.0007706974283792078 0.00035185513843316585 0.002744660945609212 0.00038078783836681396 0.0007706974283792078 0.00038078783836681396 0.002002869499847293" pbc="T T T"
Fe      10.15752563      11.10410769       0.54360571       0.00299678      -0.00467117      -0.00708686
F        1.81696269      12.32552374       2.15523083      -0.00350323       0.00348720       0.00636576
F       10.32814681      10.86619420       7.80791915       0.00213153      -0.00049244      -0.00308431
F        6.03902315      10.92090992       0.34159317      -0.00092337       0.00237108      -0.00155941
O        4.47305063       4.43884054       9.10877491       0.00514635       0.00029129      -0.01700828
H        4.24825091       4.01385722       9.94179406       0.01771623       0.00861026      -0.00792739
H        3.88978896       4.00247869       8.46244306       0.00101978      -0.00242251      -0.01059192
O        7.80758759       9.16951809       8.99717975      -0.00283906       0.00028555      -0.00196483
H        7.43814233       8.67545382       9.76304683      -0.00088451       0.00051343      -0.00037721
H        7.21858870       9.95149544       8.89465169      -0.00329153       0.00036947      -0.00082709
O        8.63478096       7.30677106       7.07440320       0.00141495      -0.00233416       0.00314669
H        8.15744392       7.98443840       7.58964952       0.00154281      -0.00156353       0.00306820
H        9.50698556       7.72296125       6.88491465       0.00140809      -0.00264362       0.00187434
O       10.03039709       6.22630123       0.37904052      -0.00109893       0.00589824       0.00401103
H        9.31781178       6.04398264       1.01147489      -0.00154364       0.00503221       0.00347346
H       10.80792720       5.75131712       0.72520836      -0.00129978       0.00452191       0.00333108
O        9.83788609       3.21082543       8.09467925       0.00818274       0.00148183       0.00870633
H        9.43149808       3.99765227       8.52227711       0.00893596       0.00209254       0.00868618
H        9.15492475       2.53795036       7.89800359       0.00680543       0.00124584       0.01077404
O        9.59921632       5.61815321       9.05601632       0.00142711       0.00010161       0.00496058
H        9.12514389       6.28295653       8.52574431       0.00132984      -0.00107791       0.00323720
H        9.58565771       5.86291547      10.00403642       0.00037981       0.00152047       0.00475049
O       11.28057487       0.72531114       5.70784152      -0.00358149      -0.00080867      -0.00494713
H       10.94524916       0.29485094       6.53680815      -0.00223250      -0.00024310      -0.00373371
H       10.93718097       0.18942005       4.98545490      -0.00838188       0.00049917      -0.00366663
O        8.69377893       2.60334359       2.63541721      -0.00441252      -0.00098738      -0.01098589
H        9.08095428       2.73359478       3.52713631      -0.01006675       0.00092245      -0.00916946
H        7.76022993       2.36142478       2.73933714      -0.00592043      -0.00119986      -0.01738695
O        0.74362497       7.66058841       9.31066547       0.00094119      -0.00033823       0.00074038
H        0.05957513       7.76665296       9.98117190       0.00157383       0.00458969      -0.00034100
H        0.34648453       7.97343835       8.46694818       0.00265868       0.00029339      -0.00058891
O        3.48181100       7.37971045       6.98213899      -0.00515592      -0.02175047       0.00917873
H        3.24275829       6.45272798       6.85680372       0.01382751       0.02546777       0.00586448
H        3.43105970       7.56377338       7.93701464       0.00340634       0.00116517      -0.00311646
O       -0.73687822       0.48673965      10.11926886       0.02070373      -0.00556454      -0.00229663
H       -0.05794126       1.19670415      10.01752228       0.01770993      -0.00267011      -0.00241403
H       -0.80451830       0.00475608       9.24644979       0.01336536      -0.00113164      -0.00431058
O        2.74570443       1.03583322       5.96256788      -0.00216351      -0.00235954      -0.00583679
H        1.80357986       0.82879670       5.79412674      -0.00246081      -0.00145637      -0.00469021
H        3.09565114       0.31875341       6.53125484      -0.00200021      -0.00174691      -0.00454189
O        9.66297001      10.50481504       2.36543151      -0.01378794      -0.01388071      -0.02222346
H        8.69334587      10.35059651       2.45013707      -0.01345675      -0.02648787      -0.02609725
H       10.04599942       9.65232656       2.71200992      -0.00261627      -0.00155617      -0.00701633
O        1.31016569       7.93193462       1.61640484       0.00518319      -0.00448591       0.00609367
H        2.00954405       8.22151618       2.21590949       0.00317952      -0.01236638       0.01249315
H        1.41210472       6.95884038       1.48595379      -0.00007703      -0.00493772       0.00362705
O       10.37810243       8.12238090       3.13899092       0.00394876       0.00052972       0.00556386
H       11.13824932       7.95269075       2.53619423       0.00380150      -0.00091479       0.00511426
H       10.66905625       7.70442065       3.97546000       0.00220260      -0.00307257       0.00443937
O        2.65915310       5.22669790       5.05425243      -0.00312998       0.00537115       0.00053135
H        3.45842776       5.72805272       4.79356829       0.00057054       0.00074966       0.00292851
H        1.89575870       5.79633073       4.86025164      -0.00044435       0.01021467       0.00146043
O        4.90907402       4.10363857       1.02276027      -0.00135493       0.00429539      -0.01001068
H        5.32830466       3.27475908       1.37029058      -0.00047643       0.00551374      -0.00843191
H        3.99969420       3.84215293       0.79008050      -0.00184798       0.00269800      -0.00885581
O       11.01734148       8.55299129       6.93512574       0.00348599      -0.00196378      -0.00170299
H       10.77104305       9.46029420       7.24116765       0.00418563      -0.00020378      -0.00397507
H       11.71175755       8.65840014       6.25064083       0.00241474      -0.00642116      -0.00330976
O        3.15156080      10.00125088       2.93696012       0.00465810       0.00848772       0.01070964
H        2.81078860      10.90017152       2.75852222       0.00535962       0.00835678       0.01076829
H        3.58875790       9.69759722       2.10746705      -0.00176885       0.00543046       0.00842897
O        1.35499768       3.35944822       3.59709676      -0.00636150       0.00646262       0.00403413
H        1.71478310       2.52252282       3.24960236      -0.00453714       0.00602101       0.00404925
H        2.03763779       3.81494498       4.13632131      -0.00756094       0.00813638       0.00307674
O        8.23362451       1.07055434       7.40490272       0.00172555       0.00626791       0.01737978
H        7.51336170       0.85288509       8.02667984       0.00123405       0.00556372       0.01694422
H        8.96064831       0.43446046       7.60445176       0.00066590       0.00327018       0.01197267
O        8.19826783       6.35667424       2.63624786      -0.00103765       0.00733580       0.00545707
H        8.20010021       5.90407635       3.51003496      -0.00592734       0.00686466       0.00511831
H        8.80741694       7.10874754       2.75697513       0.00519502       0.00282069       0.00589554
O        0.76331809       2.57966484       9.53522407       0.01123551      -0.00037000      -0.00332943
H       -0.07871754       2.90703931       9.14150981       0.00949936      -0.00146865      -0.00153775
H        1.41793460       2.69001680       8.80224231       0.01039763       0.00252525      -0.00378022
O        7.25193491      11.50686278       4.97639476      -0.01777467       0.00026719       0.02795467
H        6.84763413      10.64147194       5.12194551      -0.01817448       0.00104524       0.03264965
H        7.63007813      11.78732413       5.83727376      -0.01294421       0.00390276       0.02476126
O        1.84346930       8.66855913       5.22612385      -0.00253638      -0.03304870      -0.01327817
H        2.52901873       8.29642233       5.82284445      -0.00357205      -0.01564340      -0.00433207
H        2.28865232       9.19201256       4.54717947      -0.00468824      -0.00506534       0.00262253
O        4.11628000      10.40794223       7.40312590      -0.00308314      -0.00330797       0.00010753
H        4.48089732       9.87145287       6.67988896      -0.00196066      -0.00728765       0.00541184
H        3.70796422       9.78803096       8.05119447      -0.00175966      -0.00120831       0.00488379
O       11.26210273       6.18264523       4.80867406      -0.01108856      -0.00420527       0.00201282
H       10.66087207       5.52607443       4.44031171      -0.01076305      -0.00650610       0.00457925
H       11.34114280       5.90406225       5.75839636      -0.00473337      -0.00388326       0.00143573
O        0.67940902      -0.82536437       0.74715647       0.00191821      -0.00579019       0.00860195
H        1.22993638      -0.24276653       1.32994295      -0.00033798      -0.00335297       0.00781885
H        0.86672067      -1.77102379       0.90924257       0.00378726      -0.00534948       0.01123796
O        5.56953242       6.56863342       2.01288754       0.00005624       0.00194443      -0.00232336
H        5.28420887       5.68818190       1.67840754      -0.00033633       0.00253008      -0.00393389
H        6.54764672       6.50491222       2.14484495      -0.00018761       0.00285304      -0.00033593
O        4.34152034       8.91785452       0.70923443      -0.00294003       0.00071251       0.00644204
H        4.81621914       8.12824702       1.02834628      -0.00204943       0.00182493       0.00834930
H        5.02454119       9.58834690       0.48520993      -0.00296324       0.00007625       0.00423112
O        5.99654616       1.84161409       1.93522040       0.00052840       0.00538099      -0.00394046
H        5.48417671       1.66358569       2.77141925       0.00003716       0.00475210      -0.00406501
H        5.83964164       1.07774654       1.34972972       0.00113046       0.00470584      -0.00377259
O        7.08596419       9.52055176       2.34492973      -0.00384483       0.00824545      -0.00627910
H        6.58985052      10.11100845       1.74190298      -0.00241381       0.01244647      -0.00428410
H        6.55934022       9.46304596       3.16017185       0.00998936       0.02465699       0.00384473
O        4.95551282       1.47769602       4.26955246       0.00072142       0.00324893      -0.00515228
H        4.15057190       1.31021878       4.78874237      -0.00200665       0.00224216      -0.01004100
H        5.71870332       1.04250276       4.70370993      -0.00182396       0.00409457       0.00168213
O        6.70739667       5.38475431      10.56468241       0.00090387       0.00321159      -0.00198045
H        6.14276783       4.88167174      11.17792941      -0.00174224       0.00302961      -0.00436552
H        6.22346557       5.28389911       9.73127368       0.00698868       0.00318855      -0.00548948
O        7.47540645       7.82241505      11.28157878       0.00183608       0.00052005      -0.00304317
H        7.15109767       6.89890347      11.10545451       0.00220780       0.00012675      -0.00370071
H        7.11826382       8.11925841      12.12985579      -0.00141481       0.00008743      -0.00441114
O        3.17727046       8.74033592       9.35788782       0.00244029      -0.00193727       0.00703074
H        2.24221055       8.43690309       9.46273538      -0.00024892      -0.00056473       0.00399598
H        3.56693127       8.73852410      10.24919669      -0.00208978       0.00079428       0.00604758
O        2.36970961       3.08897094       0.35757220      -0.00129495       0.00044470       0.00330824
H        2.24125857       2.32925993       0.96017889      -0.00197659       0.00091837       0.00405962
H        1.75768816       2.93074816      -0.39900187       0.00236495      -0.00166678       0.00033016
O       10.21905773       3.17512521       4.82986998      -0.01024740       0.00212862      -0.00410773
H       11.09290518       3.26130860       4.38168681      -0.00881040       0.00260955      -0.00137977
H       10.36671284       2.39128948       5.39036927      -0.01062493       0.00371767      -0.00158956
O        8.13592410       5.32237294       5.16955250      -0.01757500       0.00227046       0.00368732
H        8.72649315       4.57443701       5.34094622      -0.01791175       0.00103480       0.00057787
H        8.31131957       5.98821561       5.86543094      -0.00836698       0.00339700       0.00068444
O        4.97952027       6.65469013       4.56532506       0.01073870      -0.01316416       0.00160941
H        5.21645216       6.57197568       3.60130830      -0.00364549      -0.00525995      -0.00333760
H        5.68300807       6.20960527       5.05238225       0.02089256      -0.00848001      -0.00922559
O        8.37349028       0.59062022       0.42995817       0.00350710       0.00329788      -0.02300081
H        7.50934441       0.10084773       0.32693369       0.00345014       0.00137664      -0.01347762
H        8.22633956       1.26896889       1.10634554       0.00654156       0.00439566      -0.02401996
O        9.69160097       9.38800588      10.92387954       0.00683710      -0.00279060      -0.01269414
H        9.19659783       8.68597233      11.38994935       0.01091474      -0.00412560      -0.01005983
H        9.14646220       9.50941422      10.10519701       0.00148258      -0.00230592      -0.00937925
O        1.15423899       5.24682205       1.48698343      -0.00546063      -0.00165828       0.00057623
H        1.61757536       4.56605702       0.94846834      -0.00410125      -0.00173592       0.00099131
H        1.10622597       4.78614337       2.34511168      -0.00586616      -0.00126295       0.00076488
O        2.48556250       3.21320133       7.57859215       0.00327431       0.00255100      -0.00728202
H        2.62775121       2.50739728       6.90822471       0.00285435       0.00244812      -0.00791382
H        1.98714610       3.93136124       7.15518861       0.00367784       0.00346099      -0.00563339
O        6.17413736      11.34199620       8.94669934      -0.00395057       0.00020732       0.00301036
H        5.38024639      11.09003104       8.42662918      -0.00188667      -0.00130734       0.00082485
H        5.94702888      11.30657954       9.89437169      -0.00602652      -0.00270127       0.00289588
O       -0.53889846       1.54734752       1.25887483      -0.00211138      -0.00739735       0.00195020
H        0.30934826       1.44974517       1.76043996      -0.00140820      -0.00398390       0.00260377
H       -1.23334529       1.94708101       1.83197164      -0.00376287      -0.00650036      -0.00038511
O        5.25438659       9.40632357       4.76407701       0.00749905      -0.00660384      -0.00031167
H        4.54110920       9.76322433       4.19918761       0.00450780      -0.00786239       0.00156716
H        5.10787488       8.43434291       4.78825315       0.00978012      -0.00647673       0.00144430
O       11.62430355       5.09812642       7.19926123       0.00339775       0.00170092       0.00233966
H       11.00345785       4.34180971       7.20962336       0.00270001       0.00204149       0.00759760
H       11.35263916       5.58715502       7.99656167       0.00811861       0.00446037       0.00247085
