144
Lattice="12.414360096378212 0.0 0.0 0.0 12.414360096378212 0.0 0.0 0.0 12.414360096378212" Properties=species:S:1:pos:R:3:forces:R:3 energy=-156217.625 stress="-0.0007696771644987166 -0.0008195660484489053 -2.8157124688732438e-05 -0.0008195660484489053 0.0002776775218080729 -0.0005616851558443159 -2.8157124688732438e-05 -0.0005616851558443159 0.0013183278497308493" pbc="T T T"
Fe      10.45952227      12.87308330       0.30309613       0.00028509      -0.00261605       0.00912926
O       10.46232628      12.14140013       3.81767805      -0.00693572       0.01014066       0.01259103
O        9.54781800      12.94713699       1.95653861       0.00139996       0.01038454       0.00859556
O       11.55000299      12.14847806       1.80140365      -0.00597468      -0.00597587       0.01309709
C       10.53732868      12.38851049       2.53270880      -0.00451899       0.00500374       0.01024771
H       11.21532644      11.64482086       4.19202536      -0.01361966       0.00489378       0.01984273
O        6.68869773      11.18506084       3.75862941       0.01442033       0.00923383       0.00840890
O        6.74544141      12.04793981       1.71392699       0.00790608      -0.00212610       0.00734067
O        8.05359401      10.30062432       2.17865156       0.01161849       0.00441784       0.00730908
C        7.14191849      11.21260331       2.49579204       0.00746433       0.01037604       0.00180411
H        7.09037022      10.45374481       4.26323310       0.01288587       0.01021297       0.00850351
O        6.43855893      11.86889948       7.23385684      -0.00111622       0.00077820       0.00042707
O        7.23187944       9.87095100       6.70480577       0.00340700       0.00373247      -0.00138372
O        4.99886048      10.18540261       6.82337200       0.00216150       0.00036305      -0.00941922
C        6.16407495      10.53197397       6.90376105       0.00050631       0.00328743      -0.00321912
H        5.58296011      12.32308663       7.32702529      -0.00106549       0.00234895      -0.00340825
O        8.19162921       5.25261796       7.59571433       0.00636727       0.01788443       0.00211674
O        8.42609901       5.51476535       5.38330682      -0.01498300      -0.00325286      -0.00199151
C        9.36916035       3.57075543       6.41766316      -0.00326675       0.00834429       0.00877444
C        8.62690880       4.86586120       6.38386959      -0.00489122       0.00710005       0.00111318
H       10.20159089       3.62469375       7.11656956       0.00299749       0.01767015       0.00039576
H        8.70802920       2.76758789       6.74279771       0.00071166       0.01191832       0.02460730
H        9.75785151       3.35010250       5.43122590      -0.01209685      -0.00376777       0.00819176
H        7.77681107       6.15193069       7.54854978       0.00382238       0.01724464      -0.00066288
O        4.89399343       4.09915051      10.67892380      -0.00021589       0.00146222       0.00314957
O        3.36937941       5.72579666      10.43162642      -0.01921070      -0.01731288      -0.00479317
C        4.10114860       4.52166654       8.49928044       0.00954203      -0.00301066      -0.00150740
C        4.07876481       4.86093380       9.95261569      -0.00361592      -0.00901449      -0.00110453
H        5.12089666       4.32113653       8.17717039       0.01352921       0.00456132       0.00698811
H        3.54121808       3.59761873       8.33853362       0.01589450      -0.00515941      -0.01093586
H        3.66375368       5.33515850       7.92949627       0.00969487      -0.00286216      -0.00144032
H        4.78589515       4.35260394      11.65781212      -0.00349180       0.00097099       0.00386908
O        0.52119590       2.41214485       4.05097859       0.00269109      -0.00953877       0.00278866
O       -0.24785325       2.09005613       6.12857292      -0.00602376       0.00999463       0.00274372
C        1.55960982       3.64748445       5.77524602       0.00064760       0.00139397      -0.00435373
C        0.51581609       2.65627051       5.38491052      -0.00111347       0.00210929       0.00016856
H        2.53953353       3.17038067       5.70581075      -0.00127184      -0.00354610       0.00378972
H        1.54582976       4.50198834       5.10167265       0.00771592      -0.00493899      -0.01225972
H        1.38860097       3.95727466       6.80097277      -0.00245320       0.01216322      -0.00824472
H       -0.17225394       1.75484130       3.90568031       0.00297928      -0.01069270       0.00610517
O       11.84338924      10.23402659       8.30714012       0.00127774       0.01982605      -0.02723822
O       11.85519615      10.70409331       6.10534630      -0.00161213       0.01663157      -0.02790189
C        9.99817471      11.40576635       7.46706473       0.00381136       0.02266052      -0.02357139
C       11.31985878      10.76273254       7.19739655       0.00089204       0.02027248      -0.02736288
H        9.26079393      10.64690931       7.73838320      -0.00309038       0.02167848      -0.04466749
H       10.09112113      12.10427397       8.29906591       0.00070408       0.00565930      -0.00955872
H        9.63675720      11.91841141       6.58347033       0.01433069       0.04294756      -0.01435728
H       12.71562249       9.80195622       8.16202509       0.00015047       0.01704374      -0.02537236
O        7.69122355       8.48842018       3.89749058       0.00124574       0.00110051       0.00496361
O        5.90567612       8.20406593       2.64481516       0.00710246       0.00962180      -0.00571823
C        5.84360266       7.36190084       4.89744474      -0.00981253       0.00824726      -0.00687730
C        6.53202579       8.04410490       3.75834609      -0.00009596       0.00567505      -0.00167489
H        6.57743367       6.76544463       5.43161289      -0.01895779      -0.00511002      -0.00972416
H        5.47133595       8.12853640       5.58422752      -0.00006332       0.00915214      -0.00281887
H        5.00692087       6.75260815       4.56060585      -0.01767232       0.02202770      -0.01096225
H        7.99755366       9.49603058       2.82681651       0.01034445       0.00604994       0.00497598
O        3.69808638       4.06655109       2.67539471       0.01780504       0.01351903       0.01080889
O        4.49229479       4.71293044       0.70326817       0.00603641       0.00241625       0.00184131
C        4.91028801       2.46428838       1.43989670      -0.00219783       0.00183916       0.00940815
C        4.34029124       3.84858613       1.56136971       0.00779420       0.00526613       0.00764197
H        5.83322888       2.39835095       2.02033766      -0.00653973      -0.00711509       0.01515752
H        4.23889466       1.70966041       1.84255353      -0.01170880       0.00826722       0.00581540
H        5.15769452       2.23980721       0.40605803       0.00095705      -0.00105461       0.01095243
H        3.38157431       5.04149486       2.76414596       0.01163120       0.01389122       0.01049356
O       10.43079358       6.68691880       3.25318641       0.00173178      -0.01691833       0.00450158
O       11.46624195       5.44038678       4.79948309      -0.00609791       0.00076663       0.02303088
C       10.68611476       7.64352318       5.38527660      -0.01182047       0.00375402      -0.00215906
C       10.90317004       6.46556392       4.49497720      -0.00408173      -0.00574946       0.01101122
H       11.35506699       8.44999959       5.08011065      -0.01066735       0.00109047      -0.00590059
H        9.66211147       8.00256685       5.29145257      -0.01154852       0.00140174      -0.01129062
H       10.91970298       7.36744128       6.40953646      -0.01753941       0.01342615       0.00177383
H       10.60444902       5.88335930       2.74478808       0.00629027      -0.02220666       0.01513899
O       11.22510759       4.12326239       9.53087436       0.00362993      -0.01050529       0.00944586
O       12.42240916       5.63132075      10.66699996       0.00225848      -0.02110034       0.02186212
C       10.13040920       6.12129908      10.18038133       0.01201779      -0.00429642       0.00085638
C       11.36984208       5.30083982      10.15191141       0.00883043      -0.01461083       0.01202284
H        9.58619643       6.04140903       9.24191111       0.01923326      -0.00231501      -0.00325254
H        9.47497307       5.72085214      10.95832110       0.00392978       0.00130774      -0.00408277
H       10.35974067       7.14965226      10.43342508       0.01854640      -0.00644675       0.00159770
H       12.12087064       3.59819754       9.52062651       0.00183019      -0.01734305       0.01410224
O        6.85476136       1.44241296       5.51034578       0.00365871       0.00525916       0.00471275
O        5.00888478       1.78532391       6.74444582      -0.00188100      -0.00462025      -0.00078273
C        5.67478387       3.44679984       5.15529572      -0.00089771       0.00315511       0.00806251
C        5.80152796       2.15579393       5.89609988       0.00004339       0.00071543       0.00329965
H        6.60536837       3.74236838       4.67943617      -0.00191116       0.00455769       0.00719639
H        4.91151447       3.32403774       4.38543663      -0.00293267       0.00668624       0.00967382
H        5.32337881       4.23107470       5.82100622       0.00115018       0.00092766       0.01178861
H        6.84641397       0.58323115       6.00685891       0.00409979       0.00357626       0.00165698
O        1.82872544       8.86845392       8.57570341      -0.00938523       0.02307719      -0.01884872
O        3.64863569       7.67174376       8.02921001      -0.01346743       0.00815952       0.00705475
C        2.35079020       8.68909980       6.27816561       0.00035121      -0.01217625      -0.01315963
C        2.71656599       8.35056680       7.68786577      -0.00726897       0.00618052      -0.00711584
H        1.88645057       7.80994218       5.82389008       0.00776361      -0.01950803      -0.00563784
H        1.64974229       9.51927845       6.23197945      -0.00211427      -0.01542736      -0.02770218
H        3.25499318       8.93128403       5.72903843       0.00353986      -0.01484612      -0.00900817
H        2.09716153       8.65273549       9.50244706      -0.01161870       0.03323684      -0.01560132
O       10.41840035      11.12223223      11.96028256       0.01156712      -0.01189587       0.01415724
O        9.83213752       8.97309170      11.84895501       0.01696799      -0.02793832       0.00914723
C        8.07078904      10.62049081      11.64205372       0.02185827      -0.02346113       0.00001256
C        9.42099493      10.08696453      11.83267111      -0.04112661       0.02141732       0.00245095
H        7.86161150      11.43218650      12.33755946      -0.01221742      -0.01691261       0.00214276
H        7.97062681      10.95386939      10.60687025       0.00730948      -0.00648034      -0.00177231
H        7.35846548       9.82019785      11.79771225       0.00050178      -0.01882282      -0.01489162
H       11.24803245      10.64752684      12.13726151      -0.00945538       0.00170916       0.01870255
O        3.52718058       8.38972435       2.76960971      -0.00188506      -0.01681519      -0.02113275
O        2.73370692       6.32218906       3.16269027      -0.01073314      -0.00742340       0.00817358
C        1.20769813       8.10779188       2.75994032      -0.00501180      -0.00789642      -0.00643063
C        2.59999581       7.53965082       2.90807300      -0.00462103      -0.00960362      -0.00634950
H        1.06689740       8.90885459       3.48787571      -0.00459105      -0.00709561      -0.00702470
H        1.12239529       8.55451668       1.76830067      -0.00586036      -0.00918649      -0.00704414
H        0.45072711       7.34197526       2.88653630      -0.00605046      -0.00684631      -0.00477399
H        4.79846772       8.11455957       2.72562044       0.01074339      -0.00083476      -0.01347867
O        8.94582104       2.79566655       9.67561667      -0.00390512       0.00722773       0.01669049
O        9.72209414       1.54572021      11.32864360       0.00969122       0.00032258       0.00464737
C        7.39068549       1.35587923      10.65360762       0.00361907       0.00410023       0.02902035
C        8.77042318       1.89320942      10.59378526       0.00297898       0.00253675       0.01735081
H        6.68079307       2.15245580      10.43169982       0.00096270       0.00353622       0.03603905
H        7.27890110       0.60455679       9.86472586      -0.00292328       0.00386596       0.03002164
H        7.18334966       0.89950416      11.61783750       0.01283416       0.00300409       0.03043893
H        9.86316191       3.18973905       9.65610709      -0.00343370       0.00196655       0.00881319
O        4.06210283       7.62961899      -0.21470520      -0.01424441       0.00062346      -0.03858186
O        2.40945020       8.76945762      -1.21218215      -0.00880075       0.02000631      -0.02583301
C        4.20904769       9.97217328      -0.17962513      -0.00498098      -0.00180727      -0.00283095
C        3.45671355       8.74590413      -0.58242017      -0.00630325       0.00866723      -0.02242866
H        4.58675605       9.89087083       0.83708962      -0.00140711      -0.02265033      -0.00628114
H        5.05888978      10.05669438      -0.86210122      -0.00667311       0.01248124      -0.00275037
H        3.57520777      10.84675968      -0.29191246      -0.00417775       0.00085657       0.01925551
H        3.63522324       6.85164391      -0.64787904      -0.01884611       0.00665436      -0.04472996
O        1.56888272       3.69561941      11.46350654       0.00036122      -0.02422088       0.01621658
O        0.87155116       2.70560622       9.57651018      -0.00143364      -0.01988528       0.01357061
C        2.37114486       1.53268748      11.01063308       0.01368478      -0.01719403      -0.00005570
C        1.54157602       2.70642385      10.61179638       0.00306517      -0.02129608       0.01145884
H        3.30571452       1.86419430      11.45428152       0.01693319      -0.01205277      -0.01074350
H        1.82252495       0.97110671      11.77070408       0.02766031      -0.02228957       0.00582127
H        2.54710545       0.89140229      10.15383884       0.00837484      -0.01489805      -0.00304155
H        1.04080391       4.48321359      11.11495480       0.00249524      -0.02106804       0.02108155
O        7.21849422       7.79292040       7.99158012      -0.00310066       0.00133049      -0.00892651
O        6.47321303       9.26765869       9.50139965      -0.00930661      -0.01156878      -0.00511101
C        6.77492622       7.02099244      10.21018756      -0.00198314      -0.00971460      -0.01274991
C        6.79672028       8.13350965       9.19977239      -0.00801994       0.00108123      -0.00663066
H        6.99768017       6.04508738       9.78722353      -0.00391310      -0.00706732      -0.01820235
H        7.50202135       7.25546936      10.99152317       0.00216078      -0.01272847      -0.01567110
H        5.80045626       7.01441702      10.69401620       0.00069053      -0.01181351      -0.00732626
H        7.19174116       8.68948320       7.34644531      -0.00024198       0.00618270      -0.00629379
