148
Lattice="11.586068246401352 0.0 0.0 0.0 11.586068246401352 0.0 0.0 0.0 11.586068246401352" Properties=species:S:1:pos:R:3:forces:R:3 energy=-348974.5 stress="0.00255725160241127 0.0007438880857080221 0.001257679716218263 0.0007438880857080221 0.002528296783566475 -0.00015797805099282414 0.001257679716218263 -0.00015797805099282414 0.0010689786868169904" pbc="T T T"
Fe      10.83747973      12.11457488       0.39147946      -0.01190864      -0.00830118      -0.00617385
Br       0.56356194      10.56755320       1.47040758      -0.01072947      -0.00501228      -0.00233070
Br       9.83752833      11.45441839       7.96524954       0.00231996      -0.01630731      -0.01557429
Br       5.60822300      12.21002754       2.27013867       0.01789145      -0.01254968      -0.01937561
O        4.53221916       4.45568796       9.44414915       0.00781799      -0.02030824      -0.00103471
H        4.08139872       3.85806400      10.07095103       0.00004988      -0.00871472       0.00398001
H        4.20456668       4.19027719       8.57680756      -0.00486558      -0.01012685       0.00147429
O        8.08440536       8.32936989       8.59597387      -0.00075463       0.00395040      -0.00992782
H        7.58916518       8.36796652       9.44280833       0.00145404       0.00838664      -0.00923998
H        8.18571711       9.23880661       8.28714736       0.01198039       0.00162920      -0.00989911
O        8.21855591       6.56072272       6.44882017       0.00986143       0.00546986      -0.01502976
H        7.98879008       7.08312397       7.24191211       0.01163980       0.00513511      -0.01390316
H        9.09436634       6.88829573       6.20911592       0.00803949       0.00542262      -0.01808214
O       10.08157341       5.70403608       0.91108972      -0.00833893       0.00671563      -0.00764595
H        9.71806520       4.84289040       1.20526369      -0.00231015       0.00817480      -0.01103538
H       11.04692298       5.57281144       1.02524472      -0.00532624       0.01186994      -0.00684057
O        9.81957942       3.66608720       9.50155200       0.01035127      -0.01564271      -0.02351827
H        9.30931085       4.48105929       9.63712174      -0.02098780       0.02688599      -0.00476901
H        9.19057822       2.95134823       9.37217352      -0.02418188      -0.00105915       0.00593926
O        9.87094407       6.45050947       9.78195842      -0.00798276       0.00579426      -0.00880440
H        9.27093959       7.18129169       9.56200601      -0.00601486       0.00093117      -0.01775719
H        9.85734179       6.32547575      10.74850517      -0.01140274       0.01289269      -0.00917967
O       10.66971968       0.89808609       5.01467572       0.01294323      -0.00693803      -0.01853579
H       10.50628376       0.64078418       5.94171948       0.01318013      -0.00963240      -0.01686205
H       10.27818566       0.18329790       4.48036230       0.00537798       0.00010255      -0.01836082
O        9.23671813       3.33400707       2.12764815      -0.00223446       0.00343092      -0.00402430
H        9.81117404       3.42185992       2.93418364      -0.00481996       0.00522811      -0.00326758
H        8.30368282       3.47984518       2.43230600      -0.00257841       0.00405292      -0.00565623
O        1.32219300       7.83042164       8.82309539       0.00087571       0.01839373       0.00308144
H        1.16476378       6.92130448       9.09413558       0.00292333       0.01795517       0.00838561
H        0.59686836       8.03454805       8.18483127       0.00363855       0.01103468      -0.00099202
O        3.29880119       8.00652118       6.86412949      -0.00385940       0.01788578       0.00831134
H        3.17008059       7.16102011       6.39895534      -0.00593105       0.01618391       0.01002684
H        2.76628545       7.89177971       7.67482299      -0.00409636       0.02102943       0.00737232
O       -0.11849779       0.97525471      10.28492278      -0.00910059      -0.00524324      -0.00849068
H        0.42343743       1.78671933      10.02899021      -0.00706299      -0.00971221      -0.00504136
H       -0.51888310       0.56496871       9.46675492      -0.01100935      -0.00407746      -0.00949509
O        2.29538755       1.10730307       5.67840041       0.00178263       0.01178576      -0.00100060
H        1.96710786       0.20965979       5.87422196       0.00210562       0.01063761      -0.00545795
H        3.28532588       1.07153037       5.68028032       0.00069614       0.00977434      -0.01018102
O        9.27650461      10.49018484       3.57348473      -0.00804648       0.00270350      -0.00631773
H        8.62545985      10.43868653       4.34048787      -0.00008278      -0.00071811      -0.00636119
H        9.78053396       9.65521237       3.53263216       0.00638321       0.00002980      -0.00568257
O        1.73201589       7.28333096       2.88456235      -0.00107771      -0.00296491      -0.00282940
H        0.84473244       7.67777013       3.02703445       0.00137833       0.00254557      -0.00143152
H        2.23145960       7.95255688       2.40553513      -0.00260361      -0.00950064      -0.01428235
O       10.63450563       7.93956105       3.29041942       0.00626510       0.00192600       0.01509173
H       10.25584391       7.46454427       2.53980635      -0.00191827       0.00043447       0.02287880
H       10.68983558       7.26736576       4.01104373       0.01554495       0.00557409       0.01825279
O        2.72452321       5.48539263       5.55376049      -0.01400515       0.01292620       0.00343341
H        3.55210225       5.57403993       5.04598204      -0.01367021       0.01474169       0.00469083
H        2.00918276       5.78743209       4.97710426      -0.01437119       0.01841841       0.00609791
O        3.99092237       4.04542063       2.05325116      -0.01738813      -0.01315628       0.02370725
H        4.83625979       3.71115469       2.39664337      -0.01668040      -0.01346025       0.01531341
H        3.79835075       3.55911292       1.22285740      -0.01683150      -0.00318399       0.01598452
O       11.07144643       8.49560151       6.88153540       0.00237411      -0.00079247      -0.00104627
H       10.54437262       9.23102337       7.23244101       0.00034888      -0.00188537       0.00198713
H       11.74459373       8.95918137       6.33165461      -0.00537039       0.00287700      -0.00455178
O        3.21056043      10.20472640       3.57588212       0.00470233       0.00519103      -0.00580852
H        3.43841282      11.13774559       3.46500739       0.01529337      -0.00702176      -0.01401649
H        3.47598035       9.79949973       2.71425802       0.00249600      -0.00932721      -0.00435622
O        1.71977836       2.43359458       3.38933013      -0.00101623       0.00398950      -0.01093621
H        1.92115000       1.87457728       4.18534362      -0.00461057      -0.00015639      -0.00664429
H        2.51216899       2.95623930       3.18626675      -0.00937687      -0.00115633      -0.00857031
O        7.30794211       1.55686489       6.66090235       0.00257525      -0.00434826       0.00299098
H        7.93767755       1.22495302       7.32046812       0.00445666      -0.01286442      -0.00126411
H        7.65179054       2.41224077       6.34543702       0.01046280      -0.01167861      -0.00729303
O        7.66446658       6.45652892       2.34737638       0.00390291      -0.00723344      -0.00721313
H        8.43240068       6.32215238       1.77456696       0.00146551      -0.00237060      -0.01037714
H        7.57603156       7.43634210       2.42036756      -0.00001014      -0.00746332      -0.00372443
O        1.00009032       3.19478828       9.60916716      -0.00619681      -0.00263342      -0.00482254
H        0.14393463       3.65084144       9.55135576      -0.00327634      -0.00254383      -0.00085945
H        1.46621330       3.30952145       8.72988668      -0.00169747       0.00280846      -0.00445851
O        7.60306913      10.50099530       5.54377175       0.00666986      -0.00823069      -0.00260037
H        6.74319651      10.08046592       5.34762351       0.00226009      -0.00381725      -0.00645059
H        7.42570862      11.40373439       5.85599767       0.01055698      -0.01041937      -0.00083053
O        1.58524581       9.84904252       5.76546684      -0.00112639       0.01426749      -0.00626885
H        2.26354018       9.25846300       6.17259250      -0.00135718       0.01390824       0.00039132
H        1.86040105       9.88053511       4.83451933       0.00262687       0.01221161      -0.00026140
O        5.12886467      10.43543422       7.86638366       0.02726007      -0.00060594       0.03217749
H        5.14143784       9.67239481       7.27780381       0.02743889      -0.00301144       0.03272575
H        4.26302172      10.34751609       8.32391011       0.02154002       0.00844273       0.01983775
O       11.24644748       6.00257552       5.04596547       0.00992911       0.00154239       0.01336072
H       11.07381844       5.07817621       4.79919360       0.00793898       0.00784174       0.00972582
H       11.26630178       5.99422063       6.02876898       0.00797733      -0.00214965       0.01561198
O        3.27418914       0.32711635       0.00962509      -0.00773076       0.00171344       0.01530714
H        2.51223088      -0.05676089       0.47867945       0.00224078      -0.00096016       0.01859764
H        4.00143196       0.29910055       0.66513963       0.00346976       0.00582884       0.00993432
O        5.05297901       6.53038726       1.72082060       0.00216376      -0.01833025       0.03123283
H        4.61234095       5.65709309       1.64043620      -0.00243583      -0.01529921       0.03293785
H        6.02356412       6.36153433       1.72609324       0.00276320      -0.02049133       0.01898044
O        4.18271953       9.11602918       1.32163300      -0.00607082      -0.02691693      -0.00029503
H        4.47109509       8.18213020       1.37126139       0.00205612      -0.02003791       0.01272874
H        5.00782460       9.61772449       1.41129480      -0.00802439      -0.01583272      -0.01222540
O        6.72355983       3.50077802       3.07207380      -0.00649111      -0.00070289      -0.00304186
H        6.96300217       3.69546343       3.99837906      -0.00103374      -0.00519987      -0.00251579
H        6.47392253       2.55213241       3.03556806       0.00034131      -0.00146735      -0.00908121
O        6.97832094       9.03197222       2.36487439      -0.00547490      -0.01287156      -0.00421202
H        7.65193380       9.72012418       2.46237549       0.00148490      -0.00566452      -0.00532099
H        6.41578313       9.12342871       3.17122836       0.00004625      -0.00855061      -0.00834570
O        4.86044319       1.53004959       5.40691939       0.00698397      -0.00547454      -0.01353034
H        5.20363229       1.16107748       4.57670265       0.00922033      -0.00947510      -0.01544511
H        5.56222059       1.40200936       6.06791811       0.00272863      -0.00570809      -0.01434843
O        6.90930441       5.05998056      10.59195784       0.00289162      -0.00908001      -0.00291210
H        6.84281519       4.50716142      11.37472359       0.00276026      -0.00209291       0.00130506
H        6.08634338       4.86648715      10.08229298       0.00750458      -0.01537186      -0.00310963
O        7.36436992       7.74217783      11.06611551      -0.00363371       0.00001314      -0.00789195
H        7.06906427       6.81008677      11.01635390      -0.00301706      -0.00037920      -0.00480250
H        6.91374391       8.15709294      11.80770314       0.00985419      -0.00208271       0.00298057
O        2.79752135      10.22704478       9.29288464       0.00149393       0.02507348      -0.00448595
H        2.32808108       9.39020333       9.42463737      -0.00043239       0.02554595      -0.00591197
H        3.01249051      10.58114503      10.16719630      -0.00777072       0.02506132      -0.00299606
O        3.11262723       2.99234016      -0.27903549      -0.01209439       0.00336573       0.00284780
H        3.14664383       2.00480718      -0.21095496      -0.00869738       0.00289605       0.01112668
H        2.27470685       3.17256661      -0.75121895      -0.00761690      -0.00429027       0.00010180
O       10.85226946       3.33985059       4.22951009      -0.00034375       0.00391586       0.00143167
H       11.77709916       3.26704617       3.90608976       0.00072627       0.00586847      -0.00211015
H       10.70666938       2.41483561       4.60135932       0.00407388       0.00213915      -0.00396793
O        8.08151758       4.03994632       5.51454411       0.00984949      -0.00527984      -0.00700272
H        8.97592629       3.97610838       5.15668689       0.00550305      -0.00978168       0.00073827
H        8.06611260       4.92234460       5.96281540       0.01069499      -0.00214265      -0.00614661
O        5.15298947       6.35797327       4.44014697      -0.00050023       0.00545591       0.02632360
H        5.06646734       6.44328596       3.46110404       0.01207902      -0.00475157       0.02499199
H        6.05850792       6.05428015       4.57528328      -0.00290337       0.00327781       0.04327516
O        9.44298165       0.73783783       1.66949167      -0.01055475      -0.00126645      -0.00759584
H        9.32956252       1.67463104       1.97776651      -0.00271199       0.00021884      -0.00771810
H        9.28703070       0.07361592       2.39028859      -0.00586572      -0.00129100      -0.00791806
O        9.64239813      10.67447405      11.18925975      -0.01475642      -0.00096448      -0.00995439
H        8.82899994      10.91868929      10.69843647      -0.02764800      -0.00938079       0.01280420
H       10.09405392      10.04473955      10.61471092      -0.02309105       0.00717646      -0.02303936
O        1.04686163       5.01887946       1.56972931      -0.01025820       0.00091676      -0.00150362
H        1.80774969       4.60653682       1.14902352      -0.01276272       0.00645122      -0.01125636
H        1.40161754       5.80734503       2.04674997      -0.00651475      -0.00485452       0.00481735
O        2.41475964       3.34318719       7.39484251       0.00081980       0.00975897      -0.00277789
H        2.33726070       2.52694346       6.86099052      -0.00084448       0.00991100      -0.00447785
H        2.41847527       4.07891537       6.75364585      -0.00974147       0.01211268      -0.00156566
O        6.96447968      11.00935035       9.92838155       0.02587867       0.00759820       0.04046756
H        6.40499590      10.79328858       9.14787553       0.03358852       0.00058967       0.03667600
H        6.33382510      11.28155601      10.60140821       0.01901729      -0.00800747       0.03989500
O        0.32514537       2.06428959       1.12134119      -0.00745648      -0.00593436      -0.00649339
H        0.85957913       1.99421537       1.95469358      -0.00846212      -0.00301908      -0.00723410
H       -0.11027823       2.92408872       1.18501100      -0.00993916      -0.00444269      -0.00489949
O        5.45909234       9.11018017       4.64672542       0.00397927       0.00444034      -0.01029716
H        4.59816271       9.52620629       4.41986103       0.00608664      -0.00083409      -0.00596773
H        5.27674685       8.16506051       4.81435864       0.00454585       0.00059001       0.00313747
O       11.27062634       5.44026059       7.69815598       0.01090852      -0.00703628       0.00967836
H       10.85228422       4.57273138       7.74185788      -0.00051841      -0.00208658       0.00864846
H       10.78184619       5.93514716       8.38977751       0.00907534       0.00062042       0.00534750
