147
Lattice="10.973213175139778 0.0 0.0 0.0 10.973213175139778 0.0 0.0 0.0 10.973213175139778" Properties=species:S:1:pos:R:3:forces:R:3 energy=-109156.7421875 stress="-0.0010850779945030808 -0.00011276697478024289 0.0003015638649230823 -0.00011276697478024289 -0.0039495122618973255 -0.00026965294091496617 0.0003015638649230823 -0.00026965294091496617 -0.003193317446857691" pbc="T T T"
Fe       7.63286478      11.44651047      -0.70415776      -0.00170240      -0.00187370       0.00402951
O        3.63856212      11.34292425      10.14733539       0.01413667      -0.00662285       0.00394498
O        5.76583352      11.67213316      10.70294248      -0.00228202       0.00105983      -0.00127274
C        5.25215991       9.89878129       9.19520002      -0.00147235      -0.00065583       0.00103134
C        6.57285721       9.47759707       9.05665418      -0.00331973      -0.00059322       0.00212462
C        4.26492689       9.21964232       8.48485515      -0.00490732       0.00365797      -0.00061207
C        6.89651497       8.39996239       8.24514975      -0.00403583       0.00388298      -0.00120237
C        4.57745398       8.16557786       7.64170147      -0.00343157       0.00630680      -0.00352753
C        5.89841799       7.75611007       7.52133232      -0.00346608       0.00591160      -0.00535007
C        4.83379367      11.04231721      10.07617528      -0.02260387       0.00679952       0.00565797
H        7.44157638       9.86721472       9.60823907      -0.00556850      -0.00452709       0.00811762
H        3.24016930       9.53610979       8.60531722      -0.00232364       0.00347486      -0.00053675
H        7.92851183       8.08515203       8.15124562      -0.00420897       0.00285041      -0.00204274
H        3.79344553       7.66153446       7.09242019      -0.00300896       0.00849479      -0.00561561
H        6.15957775       6.95876255       6.84117945      -0.00377607       0.00897835      -0.00750550
O        7.87549709      11.07000317       6.16550825       0.01505828       0.00052094       0.00081560
O        9.68855059      10.10675623       7.06093114       0.00681806      -0.00744408       0.00800514
C        8.38617686       8.84292503       5.52891506       0.01004927       0.00005293      -0.00026143
C        9.19250742       7.72225977       5.72531849       0.00484942      -0.00332796       0.00124007
C        7.23339496       8.72090921       4.75429469       0.01364537       0.00577840      -0.00626758
C        8.83367997       6.48898747       5.20246558       0.00378965      -0.00035501      -0.00455674
C        6.87498259       7.48590231       4.22686555       0.01244760       0.00876639      -0.01151827
C        7.66432966       6.36637452       4.45989267       0.00760552       0.00579613      -0.01120172
C        8.67762127      10.11459680       6.29780549       0.01111987      -0.00265408       0.00322026
H       10.06625072       7.81490875       6.35199388       0.00166374      -0.00805298       0.00626926
H        6.57728659       9.56930179       4.61276532       0.01746267       0.00854993      -0.00678553
H        9.44247382       5.61593940       5.39682846      -0.00025506      -0.00285554      -0.00353809
H        5.95751052       7.40140074       3.66123996       0.01512356       0.01376788      -0.01645429
H        7.36106886       5.40005408       4.07774406       0.00650074       0.00808918      -0.01590525
O        5.31776905       9.09802520       1.83137780      -0.01066971       0.01160350       0.00732446
O        4.14464947       9.47671953       3.71255771      -0.01258583      -0.00440502       0.00874960
C        3.04224858       8.48741661       1.89635033      -0.00668389      -0.00323382       0.00477558
C        2.23039741       9.27308032       1.08395669      -0.00543608      -0.00792062      -0.00080311
C        2.71289287       7.15257153       2.11536297      -0.00509344      -0.00282984       0.00827132
C        1.11201737       8.71218772       0.48121773      -0.00259522      -0.01207483      -0.00204117
C        1.59246110       6.60014359       1.51083752      -0.00190952      -0.00718515       0.00636363
C        0.79062538       7.37446732       0.68040813      -0.00089680      -0.01166875       0.00151323
C        4.27771758       9.07514218       2.53377760      -0.01034558       0.00186515       0.00748396
H        2.49034931      10.30871515       0.90715707      -0.00662292      -0.00849798      -0.00456914
H        3.35452920       6.53018043       2.72857517      -0.00653983       0.00074884       0.01300249
H        0.50297763       9.31901438      -0.18030878      -0.00125390      -0.01602564      -0.00669509
H        1.35945232       5.55716370       1.68345428      -0.00009265      -0.00699502       0.00894917
H       -0.04495803       6.92470858       0.16100188       0.00124958      -0.01462403       0.00068569
N        8.01836828       1.99576080       0.46938991      -0.00575175       0.00307135      -0.00289419
H        8.96232093       2.40080496       0.43097986      -0.00428542      -0.00149387       0.00276639
H        7.86787363       1.73352271       1.43951310      -0.01618779       0.01034074      -0.00263301
H        7.41027749       2.80396133       0.25483975      -0.00140330       0.00384557      -0.01440341
N        9.18143275      11.50126778       3.30762204      -0.00864124       0.02474017       0.00414449
H        9.49557845      12.45383954       3.46831140       0.00908763       0.02202720      -0.01506081
H        9.99269701      10.92394887       3.52821990      -0.01621178       0.01493035       0.00730178
H        8.49985790      11.31282243       4.04014468      -0.00484391       0.04668484       0.01357679
N        2.39514511       6.14795273       5.59199783       0.00028007      -0.00903475       0.00750747
H        3.34696730       6.29425256       5.27190286       0.00128162      -0.01885581       0.00621226
H        1.80827338       6.61228570       4.90809884       0.00391443      -0.00270325       0.00878706
H        2.23401775       5.14355700       5.51470228      -0.00944165      -0.00740970       0.00698563
N        7.31988124       1.58080787       8.61639486       0.00582820      -0.00402594       0.00096250
H        7.84933275       2.44920312       8.56405836       0.00960055      -0.00612310       0.00342089
H        6.34103345       1.86734048       8.53500686       0.00708306      -0.00030661      -0.00152674
H        7.54585126       1.07879518       7.74112698       0.00716469      -0.00441353       0.00211221
N        5.03861870       6.86207782      -0.11563416       0.00479137       0.00387254       0.00623563
H        4.05522961       6.83188988      -0.37560677       0.00637762      -0.00322353       0.00147114
H        5.51935992       7.11822816      -0.97017116       0.00676439       0.00657063       0.00830208
H        5.14514319       7.66188344       0.51405769      -0.00340565       0.00505347       0.00573901
N        6.59700136       4.33414502       7.05057368       0.00036266       0.00247328      -0.01749585
H        6.25101557       4.65635991       6.14971487      -0.00636497       0.00488588      -0.01392966
H        6.57840040       5.13374386       7.67124805       0.00416927       0.00053539      -0.01501384
H        5.88417992       3.69353733       7.40217209       0.00413947       0.00084177      -0.01369053
N        1.62269971       2.59190289       9.93007170       0.00646416       0.00194758       0.00830066
H        0.75071484       2.62951385      10.44282056       0.00622042       0.00430452       0.00728792
H        2.23366619       1.92024980      10.39016504       0.00301532      -0.00297137       0.00572173
H        1.42734320       2.17286626       9.01910179       0.00505785       0.00681359       0.00629628
N        0.59790046       7.72982118       8.11582486       0.01116426      -0.00766559       0.00111415
H        1.15095143       7.50027532       7.29482368       0.00851322      -0.00944941       0.00001316
H        1.24438363       7.71875267       8.89582597       0.01318142      -0.00768120      -0.00061551
H        0.22598019       8.66456125       7.98107646       0.01223908      -0.00738941       0.00156488
N        6.90241995       4.44647418      10.36141476      -0.00781268      -0.00534195      -0.02145085
H        7.76454019       4.77014812       9.93010574      -0.01036568      -0.00578814      -0.02705127
H        6.41472253       5.24809698      10.76119583      -0.00136703      -0.00595104      -0.01333005
H        6.30536678       4.10393427       9.61790495      -0.01535345      -0.00182734      -0.01686632
N        4.20223649       4.08123486       1.16455089       0.00833335       0.00112551       0.00648227
H        4.75094623       3.36516888       0.69942366       0.01223120       0.00418082       0.00681497
H        4.45844562       4.97032621       0.73832778       0.00489273       0.00237891       0.00774249
H        3.23987637       3.88999264       0.90845903       0.00967509      -0.00325821       0.00531478
N        7.88910440      10.23490831       0.90262246      -0.00968838       0.00553522       0.01068933
H        8.40702435      10.67642997       1.68073555      -0.01396640       0.01063393       0.01066208
H        8.36206120       9.35432788       0.71709557      -0.00795504       0.00514458       0.01826391
H        6.97597059       9.96050244       1.28948322      -0.01122087       0.00682174       0.00819013
N        1.02141288       9.92590775       4.21398495      -0.01461802      -0.00559294       0.00484276
H        0.78293382       9.91558506       5.20001090      -0.01987921      -0.00674767       0.00343627
H        2.03937467       9.89650670       4.14177937      -0.01448756      -0.00784747       0.00976328
H        0.69617518       9.04706118       3.82715439      -0.01521312      -0.00365155       0.00149830
N        4.04802577       1.27253261       2.32005259       0.00414087      -0.00090082       0.00695917
H        4.28083613       0.54899365       2.99110118       0.00425763      -0.00251466       0.00470200
H        4.35049351       2.16921375       2.67760200       0.00754175      -0.00256214       0.00744946
H        4.58607645       1.08471722       1.47862308      -0.00016411      -0.00116298       0.00457418
N        9.50713591       2.83926505       6.35508547      -0.00450910       0.00464008       0.00182797
H        9.33325120       1.84370004       6.24316921      -0.00745396       0.00503185       0.00391910
H        9.83160303       3.18810851       5.45231849      -0.00203687       0.00019877       0.00118266
H        8.59096730       3.26465341       6.49512503      -0.00349051       0.00771378      -0.00155818
N        1.45594114       0.45691691       7.62534835       0.00157713       0.00651742       0.00243182
H        0.59753356       0.09233480       7.22272253       0.00080791       0.00300904       0.00784938
H        1.65321472      -0.06789817       8.46933335       0.00674471       0.01119492       0.00390795
H        2.22978016       0.27178091       6.98961306      -0.00158282       0.00468608      -0.00032534
N       -0.37727767       4.19992501       3.65946835      -0.00115820      -0.00966246      -0.00501986
H        0.08830488       3.48610765       3.09436413       0.00199803      -0.00835366      -0.00402530
H        0.35248735       4.78198830       4.05167961      -0.00380646      -0.00814621      -0.00262877
H       -0.93795491       4.79574763       3.06227167      -0.00069021      -0.01088446      -0.00624556
N        1.95360598       2.86639540       5.40009800      -0.00027031      -0.00204414       0.00205542
H        1.65478568       2.66544642       4.44719089      -0.00145636      -0.00411989       0.00305754
H        1.10258183       2.91216627       5.95639335       0.00155741      -0.01262310       0.00536311
H        2.42486046       2.02466343       5.72039273       0.01113585       0.00323300      -0.00109429
N       10.20028878       4.01955980       0.31438268      -0.00376591       0.00007451      -0.00548039
H       10.09387386       4.40348776      -0.63130643      -0.00560847      -0.00190602      -0.00573085
H       11.14942722       4.22158188       0.60396925      -0.00525776       0.00605873      -0.00562534
H        9.59383919       4.59321011       0.89867704      -0.00726224      -0.00134018      -0.00771916
N        2.70483209       5.57300286       8.92770712       0.01572819      -0.00326414       0.00402161
H        2.39257486       5.71042729       7.97015961       0.01191152      -0.00215250       0.00543971
H        2.26338917       4.72071272       9.27242138       0.01515853      -0.00213953       0.00552332
H        3.69605019       5.37194298       8.86465170       0.01477167      -0.00613911      -0.00085001
N        4.27988865      11.41206702       5.87694923       0.00973277       0.00837212      -0.00230095
H        5.07790224      11.26072364       6.48598588       0.00838161      -0.00231621      -0.00365046
H        4.53083116      12.21787849       5.31281717       0.01627082       0.00995663       0.00301524
H        4.28000197      10.62553152       5.22713356       0.00226888       0.01185956      -0.00660916
N        9.70513332       5.16817959       8.46897000      -0.00635140       0.00501168      -0.00468771
H        8.88089006       5.35291663       7.90720012       0.00004877       0.01616392      -0.01013564
H       10.14971829       4.39284022       7.97904674      -0.01221616       0.00095014      -0.00364914
H       10.31058687       5.98795075       8.37374012       0.00314588      -0.00157657       0.00067433
N        4.91730153       4.03452313       4.34609929      -0.00678111       0.01119613      -0.00539919
H        4.04355218       3.71971292       4.76344287      -0.00328679       0.00638299      -0.00217673
H        5.57954104       3.27072332       4.43245625      -0.00122830       0.01617690      -0.00485395
H        4.73106867       4.14722906       3.34709556      -0.00959635       0.00678720      -0.00549307
N        1.05021632       1.73378302       2.41264469       0.00306698      -0.00908166       0.00103183
H        2.03218767       1.64829575       2.12586056       0.00565115      -0.00880055       0.00937940
H        0.46775937       1.67541052       1.58550378       0.01115446      -0.01113480      -0.00435108
H        0.87816030       0.88702571       2.95415862      -0.00161625      -0.00832795       0.00070559
N        9.53652798       0.36713468       9.62655255      -0.00085703      -0.00996661       0.01103180
H       10.20543965      -0.09249514      10.23849106      -0.00691324      -0.01538759       0.01320797
H        9.92475217       1.29748719       9.47349280       0.00542167      -0.01182455       0.01550511
H        9.60662162      -0.08871446       8.69420467       0.00110756      -0.00820316       0.01085487
N        8.53670050       6.54433673       1.45028590      -0.01484552      -0.00464591      -0.02199722
H        8.65774353       6.80349444       0.47869855      -0.01369081      -0.00687809      -0.02232438
H        9.08533468       7.18716093       2.00976696      -0.01022674      -0.00862792      -0.02258106
H        7.56532521       6.71033248       1.68739585      -0.01377143       0.00068507      -0.02156584
N        4.21839571       2.61628878       8.10370014       0.00708100       0.00049503       0.00565267
H        3.76774238       3.01514973       7.28386804       0.00117818       0.01608084       0.01648805
H        3.74309585       3.04311730       8.89376676       0.00991943      -0.01762143       0.01718240
H        3.90681678       1.64995495       8.12117834       0.01033340      -0.00070684      -0.01379041
