148
Lattice="12.47868457021344 0.0 0.0 0.0 12.47868457021344 0.0 0.0 0.0 12.47868457021344" Properties=species:S:1:pos:R:3:forces:R:3 energy=-140078.125 stress="6.086632492952049e-05 1.80164438461361e-05 -0.0001713826713967137 1.80164438461361e-05 0.0004626284644473344 0.00017361840582452714 -0.0001713826713967137 0.00017361840582452714 0.0001601945114089176" pbc="T T T"
Fe      12.21204076      13.16786697       0.55362405      -0.00882480      -0.00118981       0.00261384
Cl      11.01867559      12.00571635      -0.68568951      -0.00351034      -0.00923268       0.00311661
Cl      12.52499473      14.11319889       2.33668613      -0.00900427       0.00861695      -0.00209448
Cl       9.45494847      13.46111842       4.59223921      -0.01009109       0.00541115       0.00936800
O        8.42004585      10.04493857       0.57588444      -0.01262653      -0.01026775      -0.02411201
C        7.31935213      10.91954078       0.87746532      -0.00453655      -0.00314660      -0.01479846
C        7.14078164      11.17818337       2.35899754       0.01448871      -0.00049922      -0.01313502
H        7.44967250      11.86535963       0.34063582      -0.00512458      -0.00523120      -0.01871690
H        6.44225317      10.42885277       0.45998898      -0.01213360       0.00050029      -0.00329001
H        6.23857936      11.77739187       2.50644711       0.02278247       0.00929541      -0.00334246
H        7.02114339      10.24620188       2.91226944       0.01098853       0.00105986      -0.01031508
H        7.97704952      11.73041459       2.79416290       0.02467370      -0.00829534      -0.02290496
H        9.23737960      10.50967210       0.78584716      -0.00698583      -0.00891571      -0.04760528
O        1.32543064       3.26447503      11.12258113       0.00150299      -0.01078150       0.01034534
C        1.89718254       2.58552421      10.00791426      -0.00338656      -0.00792402       0.00615382
C        2.55939080       1.28288457      10.40180652       0.00431368      -0.00583172       0.00081888
H        1.13524102       2.39121736       9.24524221      -0.00733048      -0.01022302       0.01090711
H        2.63147860       3.27369388       9.58402612      -0.00835073      -0.00485370       0.00219847
H        3.04757825       0.82825318       9.53762977       0.00187472      -0.00219154      -0.00276820
H        3.29553000       1.45355289      11.18851764       0.00748196      -0.00400886      -0.00298288
H        1.80281732       0.57843593      10.76691062       0.00907707      -0.00976515       0.00306132
H        0.81906391       2.61040581      11.63673314       0.00267506      -0.01130886       0.01019324
O        3.62330617       1.25117153       1.24226940      -0.00425336       0.00648028      -0.00148726
C        4.15524001       2.24945097       2.10268402       0.00080850      -0.00080103       0.00082564
C        3.69436749       2.09058659       3.53708603      -0.00054425      -0.00027056       0.00044304
H        5.24971213       2.25778432       2.04411370       0.00072294      -0.00471528       0.00136624
H        3.80699845       3.19855581       1.68778341       0.00496699       0.00236821       0.00218032
H        4.10323862       2.87716442       4.17339746       0.00270902      -0.00334880       0.00199632
H        2.60663889       2.12578661       3.59221277      -0.00057775       0.00418366      -0.00034920
H        4.03215158       1.13301164       3.94048036      -0.00466909      -0.00271107      -0.00129199
H        3.93024903       0.38518792       1.53786603      -0.00762102      -0.00026847      -0.00029385
O        7.22536395       4.39309186       1.86084653       0.01784623       0.01386601       0.00418419
C        6.55625694       4.50288903       3.11918657       0.00751079       0.00401610      -0.00171447
C        7.00011718       5.72192100       3.88922809      -0.00444102      -0.00000876       0.01128051
H        5.47033497       4.52471185       2.97225129       0.00855851      -0.00052155      -0.00942260
H        6.79902488       3.59026783       3.66301416       0.00801021       0.00064558      -0.00628883
H        6.47556485       5.79103806       4.84191692      -0.00890718      -0.01225881       0.00921184
H        8.07010523       5.67104035       4.08618446      -0.00499041       0.00546072       0.01598843
H        6.80383377       6.63542900       3.32309580      -0.00773712       0.00391775       0.01776659
H        7.09660038       5.21922183       1.38351482       0.02284687       0.02163066       0.00898267
O       11.97600490       0.21257006       8.49568771       0.00420141      -0.00208992      -0.01686049
C       10.72030051       0.86684656       8.29486137       0.00410578      -0.00163513      -0.01280668
C       10.88381857       2.23853649       7.67398693       0.00270241       0.00337589      -0.00071147
H       10.06270458       0.25835927       7.66605433       0.00351551       0.00404173      -0.01433209
H       10.27095750       0.93853935       9.28697994       0.00587277      -0.00823731      -0.00923264
H        9.90237713       2.68859005       7.52210355       0.00245066       0.00404014       0.00317652
H       11.49221759       2.88004116       8.31680854       0.00407545      -0.00080094       0.00121017
H       11.33738186       2.15929224       6.68450340       0.00128601       0.00999865      -0.00364202
H       12.33884677       0.03313869       7.62334007       0.00128341       0.00009517      -0.02200873
O        8.21118672       3.52779614      10.41950712       0.00097369      -0.00372487       0.00196558
C        8.92485198       3.82137565      11.63732882       0.00128943       0.00323650       0.00002850
C       10.41695973       3.80483072      11.41577278       0.00144559      -0.00289586       0.00063065
H        8.60844094       4.79549872      12.02133871       0.00414395       0.00709230      -0.00747196
H        8.61460026       3.06380889      12.35511879      -0.00108379       0.00984859       0.00590762
H       10.94300897       3.99803246      12.35072537       0.00162328       0.00321679      -0.00061734
H       10.74454517       2.84045435      11.02346158      -0.00122339      -0.00707461       0.00855028
H       10.71821650       4.58635500      10.71182047       0.00384865      -0.00948510      -0.00539260
H        8.71979383       3.89065745       9.68803068       0.00652638      -0.01830661      -0.00107896
O       10.90897137       5.86375150       6.60387580      -0.00996602       0.03300452      -0.01736232
C        9.58256125       6.33497486       6.81865739      -0.00011629      -0.00450839       0.00879037
C        8.57040876       5.22085009       6.93709588      -0.00550300       0.00900352       0.00840757
H        9.55735007       6.97090212       7.71164105       0.00315593       0.00014403       0.00317782
H        9.34401639       6.98278637       5.97334621      -0.00602750       0.00326151       0.00362337
H        7.55751672       5.61437576       7.02129115      -0.00191790       0.00301141       0.01210991
H        8.60760402       4.54724503       6.08115063      -0.00724714      -0.00031036       0.00759988
H        8.76218712       4.61800413       7.82835203      -0.00017803       0.00256082       0.01171918
H       10.98387151       4.98831090       6.99143986      -0.00316340      -0.02990429       0.00684518
O        2.07185911       5.49919311       3.00141915      -0.00584108       0.00060010       0.00308996
C        2.29575783       6.89941401       3.05205576      -0.00238395      -0.00130659      -0.00071864
C        3.72786928       7.25329905       3.40035426      -0.00045437      -0.00304750      -0.00774617
H        2.00485619       7.36993957       2.10554819      -0.00724861      -0.00053819       0.00113827
H        1.61642705       7.27601482       3.81868963       0.00178882       0.00042891       0.00351551
H        3.84555811       8.33495203       3.49595702       0.00055809      -0.00223732      -0.00836102
H        4.01961721       6.79350848       4.34500180       0.00379183      -0.00258023      -0.00981325
H        4.41433216       6.90796997       2.62412738      -0.00489054      -0.00292160      -0.01147908
H        2.49233228       5.14809820       2.21168423      -0.01020099      -0.00176487      -0.00344898
O        5.85342458       8.97326123       9.72347558      -0.00488499       0.00593609       0.01161709
C        6.53037724      10.22733189       9.56195378      -0.00255100       0.00329649       0.00171814
C        5.52584322      11.35516737       9.53962980       0.00066614       0.00601631       0.00773202
H        7.22749206      10.36622046      10.39355942       0.00581115       0.00361924      -0.00547659
H        7.11918388      10.21438160       8.63704451      -0.01107311      -0.00126412      -0.00391400
H        6.03329465      12.31902577       9.51949420       0.00237791       0.00437589      -0.00490371
H        4.88642110      11.29826363       8.65817921      -0.01109287       0.00146673       0.01670778
H        4.89993201      11.30744070      10.42957365       0.01203319       0.01302770       0.01623262
H        6.39005538       8.44908256      10.35238498      -0.00166522       0.00576939       0.00937613
O        4.10973777      11.17016442       0.43512717      -0.01532266       0.00246966      -0.00236121
C        3.39456455       9.93631143       0.45407773      -0.01331314       0.00177579      -0.00659278
C        1.93736487      10.14363964       0.80155777      -0.01238823      -0.00258785       0.00052755
H        3.50522446       9.42718018      -0.51036356      -0.01625857       0.00700966      -0.00947142
H        3.89759548       9.32349356       1.20453032      -0.00928047      -0.00157693      -0.01160717
H        1.39361157       9.19763164       0.81033690      -0.01124021      -0.00350805      -0.00309369
H        1.83458543      10.61952244       1.77807359      -0.00930614      -0.00849915       0.00352223
H        1.45539133      10.79146902       0.06293046      -0.01628400       0.00085539       0.00614415
H        3.64838293      11.77851154      -0.15396197      -0.01700944       0.00430452      -0.00103414
O        5.63784837       3.90165114       9.42213488       0.00142068      -0.00142646       0.00002496
C        5.17029141       5.18971046       9.81686805       0.00276366      -0.00128984       0.00017643
C        4.63004373       5.19220727      11.23390149       0.00524169      -0.00021302       0.00117552
H        5.97431334       5.92842745       9.71686040       0.00265479      -0.00140667      -0.00187535
H        4.39396852       5.46729611       9.10261943       0.00156718      -0.00133882       0.00130725
H        4.30264998       6.19852674      11.50605651       0.00478429      -0.00013265       0.00055553
H        3.78229452       4.51303228      11.33354308       0.00603497      -0.00093983       0.00317120
H        5.40488977       4.88318541      11.93960426       0.00676723       0.00161320       0.00033434
H        6.46891460       3.72380936       9.89932952       0.00276902      -0.00127263      -0.00113263
O        5.00353521       7.87563255       7.27937216       0.00734967       0.00286967       0.01497430
C        4.10657598       8.87043449       6.81810165       0.00530285      -0.00490484       0.00328554
C        2.65748184       8.42735465       6.91468142       0.00640374      -0.00900942       0.00503594
H        4.24393827       9.79668342       7.38326944       0.00111024       0.00207657      -0.00709522
H        4.35713349       9.09675260       5.77648062       0.00656730      -0.01599992       0.00112206
H        1.98927600       9.21692190       6.56334529       0.00430015      -0.01730156      -0.00935754
H        2.48405712       7.53611751       6.31121442       0.01295753      -0.01858379       0.01795499
H        2.39769947       8.19340440       7.94763125       0.00346845       0.00557205       0.00748681
H        5.32486518       8.15698008       8.15501153      -0.00085612       0.00796454       0.01653247
O        7.72416866       7.81627955      11.34069738      -0.00059091       0.01205000       0.00608468
C        8.65717170       7.44690379      10.31988010      -0.00229901       0.01051774       0.00359179
C       10.08625516       7.79608179      10.66192160      -0.00100803       0.00223450       0.00725204
H        8.54631219       6.36778675      10.17695632      -0.00816420       0.01319247      -0.00073462
H        8.36206160       7.92722496       9.37853620       0.00183548       0.01705989       0.00540555
H       10.74624452       7.51590312       9.83847542      -0.00144435      -0.00175408       0.00735997
H       10.19240568       8.87123773      10.82199082       0.00685072       0.00089318       0.00875751
H       10.40411045       7.26735171      11.55993389      -0.00583499      -0.00232117       0.00655958
H        8.10884100       8.51130755      11.90552670      -0.00871789       0.02266375      -0.00655558
O        9.76956402       6.48702693       1.32418964       0.00445482      -0.01562417       0.00479975
C       10.34350222       7.61898509       1.98193119       0.00371611      -0.01258072      -0.00271282
C        9.44949191       8.18500984       3.05869804       0.00566620      -0.00602749      -0.00425178
H       11.32938937       7.35948618       2.38813957       0.00530612      -0.00732529      -0.00388989
H       10.50011008       8.35498544       1.19139674       0.00010578      -0.01642001      -0.00806949
H        9.81634895       9.13292107       3.45134844       0.00799296      -0.00502354      -0.00936104
H        8.45490632       8.36451506       2.65582934       0.00509013      -0.00719797      -0.00316174
H        9.37052149       7.49495669       3.89863270       0.00700100      -0.00205547      -0.00056635
H        9.52263683       5.83526620       1.98911560       0.00656965      -0.01454068       0.01114190
O        9.40162711      10.56813353       5.46508573       0.00542295      -0.00271132      -0.00767934
C       10.70329235      10.19377782       5.83769287       0.00568247       0.00487135      -0.00143880
C       11.78009813      10.74791460       4.91590578       0.00569814       0.00830188       0.00070858
H       10.92326977      10.49952537       6.87420254       0.00080667       0.00764948      -0.00131899
H       10.73364101       9.09754999       5.83075391       0.01124527       0.00459868       0.00064654
H       12.75944454      10.35386357       5.20018136       0.00809857       0.02124119       0.00944868
H       11.58385027      10.47191310       3.87760560       0.01491506      -0.00181396       0.00193922
H       11.79443333      11.83792353       4.95165086      -0.00630976       0.00895515      -0.00694891
H        9.40157948      11.53263423       5.21504977       0.00093387      -0.00156526      -0.00425482
O        5.90077278       3.20602273       6.69715520      -0.00929836       0.00110722      -0.00180024
C        5.92812150       1.78646642       6.74011165      -0.00447321       0.00165957      -0.00195432
C        7.21771384       1.23211420       7.31242872      -0.00694400       0.00612499       0.00807801
H        5.06045750       1.41104598       7.30188701      -0.00735724      -0.00220387      -0.00878766
H        5.82260285       1.44654551       5.70793733       0.00501668       0.00158828      -0.00286758
H        7.18952201       0.13947058       7.32391752      -0.00269376       0.00602494       0.00744460
H        8.05815949       1.51284368       6.67604271      -0.00335109       0.01001550       0.01487854
H        7.38157736       1.58375284       8.33493887      -0.01657802       0.00641266       0.00956938
H        5.82381054       3.51693960       7.61629483      -0.00655451       0.00076646      -0.00060229
