143
Lattice="12.39366837078965 0.0 0.0 0.0 12.39366837078965 0.0 0.0 0.0 12.39366837078965" Properties=species:S:1:pos:R:3:forces:R:3 energy=-120972.9921875 stress="0.0003351168124936521 -0.0009084719058591872 -0.0006434655515477061 -0.0009084719058591872 -0.0005544337909668684 -0.00023490474268328398 -0.0006434655515477061 -0.00023490474268328398 0.0006017924170009792" pbc="T T T"
Fe      15.45311256      10.71356260       0.74457286      -0.00542417      -0.00112969       0.00063622
O        4.93206315      13.33302990       9.83340527       0.00493002       0.00342023       0.01212117
O        6.95088255      13.85096609       9.22821030      -0.00033259       0.01669335       0.00524616
O        6.49131362      11.81559941       9.82158930       0.02084827       0.02023029       0.03140873
N        6.12633318      13.00199070       9.61912815       0.01026057       0.01592089       0.02433847
O        4.81283441      10.27362990       6.30502926       0.00707698       0.00401306       0.00072813
O        5.21509971      12.14431638       5.28026559       0.01151264       0.00136137      -0.00087154
O        6.81046003      10.70153167       5.55683885       0.00985479       0.00119364       0.00756276
N        5.61087148      11.03763653       5.72038010       0.01009400       0.00503024       0.00600544
O        2.63192330      12.01676166       3.96992237      -0.00911756      -0.00606549      -0.02907419
O        2.10134860      11.90514275       1.84050682      -0.00793791       0.00029969      -0.00175530
O        3.67004613      10.66838857       2.56841305      -0.01140556       0.00336796       0.00349540
N        2.80601925      11.57378268       2.88318577      -0.01553878       0.01381202       0.02623123
O        4.36193052       1.27662116       1.59603541      -0.00202829      -0.00660372       0.00188389
C        3.37867114       3.31618720       2.36133382       0.00355671      -0.00239825      -0.00150578
C        4.07000453       2.57817946       3.51132402       0.00453389      -0.00137867      -0.00131702
C        3.37776002       2.26519139       1.24397802       0.00324015      -0.00275308      -0.00154611
C        5.07048917       1.71922258       2.76307754       0.00192264      -0.00416812      -0.00173193
H        2.37287284       3.65689500       2.60876326       0.00359789      -0.00279762      -0.00097460
H        3.96111490       4.19104466       2.06437881       0.00295410      -0.00222704      -0.00226915
H        4.54465253       3.23754533       4.23427448       0.00653888      -0.00050096      -0.00336596
H        3.36765931       1.93981301       4.04719612       0.00485763       0.00025502       0.00082047
H        2.41576049       1.75373006       1.17207122       0.00177127       0.00061506      -0.00527515
H        3.62127002       2.68182900       0.26321655       0.00835986      -0.00348842      -0.00064361
H        5.94572620       2.31352248       2.45804035       0.00141978      -0.00545606      -0.00606404
H        5.40308102       0.84507606       3.32288895       0.00287861      -0.00305575      -0.00066024
O        1.22174851       7.64743859       3.84771637       0.00668041      -0.00346580      -0.00240859
C        0.84974151       9.04511069       1.99579685      -0.00338748      -0.00870147      -0.00446349
C        0.31344766       9.74428316       3.24528207      -0.00355250      -0.00837773      -0.00482846
C        0.84162791       7.59868369       2.47602045       0.00493839      -0.00780326      -0.00154561
C        1.02589858       8.98212274       4.35365631       0.00161976      -0.00322089      -0.00448167
H        0.24484828       9.21500071       1.10962617      -0.00612123      -0.01357432      -0.00353549
H        1.89930293       9.33610762       1.77878175      -0.00507329      -0.00387451      -0.00806389
H        0.47869379      10.81670790       3.28460706      -0.00772988      -0.00782156      -0.00748633
H       -0.76548802       9.57839409       3.28150526      -0.00286007      -0.01216063      -0.00250908
H       -0.17076160       7.18366089       2.38100369       0.00685883      -0.01314996       0.00084956
H        1.53325471       6.93953113       1.94615412       0.00723636      -0.00546190      -0.00143291
H        2.00325892       9.41659352       4.58886906      -0.00006759       0.00127858      -0.00670389
H        0.44548069       8.92887531       5.27698407       0.00311473      -0.00425762      -0.00357831
O        4.31598187       9.63484551      11.96309900      -0.00249103      -0.00152564       0.00644097
C        2.96030789      11.18383333      10.90978287       0.00069204      -0.00322151       0.00014353
C        3.02410845       9.98070383       9.96529081       0.00222263      -0.00547524       0.00286329
C        4.26096512      11.05149375      11.66207442      -0.00133625      -0.00197087       0.00382107
C        3.71726379       8.91783942      10.82063544      -0.00350581      -0.00428799       0.00843903
H        2.83644770      12.16537384      10.46010790       0.00195424      -0.00402969      -0.00193901
H        2.08900556      11.04052392      11.62270410      -0.00138548      -0.00134727      -0.00198388
H        2.04602109       9.65510006       9.61409368       0.00314549      -0.00472736      -0.00026759
H        3.63163990      10.24993013       9.10004299       0.00591645      -0.00851287       0.00453830
H        5.16463166      11.43063450      11.16052391       0.00077593      -0.00108635       0.00756460
H        4.30369239      11.66066491      12.67146587      -0.00461262      -0.00039643       0.00327709
H        3.04149102       8.17522132      11.24390921      -0.00780413       0.00074738       0.01065242
H        4.52610292       8.40628777      10.30659014      -0.00483567      -0.01063322       0.01283485
O        4.99769022       5.91604216      10.28997181       0.00749639       0.00085059      -0.00566071
C        5.81913343       3.89867275      11.21886458       0.00445324       0.00560451       0.00647652
C        6.99266722       4.73865779      10.72171825       0.00590616       0.00197452       0.00408767
C        4.67274470       4.52107920      10.44128915       0.00685292       0.00144130      -0.00011417
C        6.36724833       6.12410705      10.66677938       0.00683153       0.00214955      -0.00364108
H        5.91763956       2.83760858      11.00359922       0.00441521       0.00443625       0.01315480
H        5.68095607       4.04152688      12.29491590       0.00182068       0.01238103       0.00525910
H        7.87026330       4.69726070      11.36628947       0.00500433       0.00455705       0.00550878
H        7.28478918       4.40082308       9.72509356       0.00670451      -0.00353020       0.00621498
H        4.58869494       4.05934456       9.45223360       0.01055977      -0.00340214       0.00185895
H        3.70313285       4.44378128      10.93993067       0.00527245       0.00364387      -0.00304389
H        6.39778295       6.60388037      11.65489934       0.00477454       0.00635400      -0.00563914
H        6.83036575       6.80290786       9.94786699       0.00884950      -0.00079089      -0.00539607
O        9.01650169       9.15790367      10.45030948      -0.01338714      -0.00721551       0.00162330
C       11.09650131      10.32776757      10.37050532      -0.01818287       0.00114545      -0.00447259
C       11.19427272       9.04558963      11.21373236      -0.01205868       0.00403108      -0.00106966
C        9.62743517      10.32267423       9.87943566      -0.01898265      -0.00590938      -0.00214387
C       10.05548194       8.21336347      10.64189180      -0.00928247      -0.00226548       0.00259489
H       11.33777558      11.21718280      10.95332859      -0.02033678       0.00336370      -0.00705633
H       11.78288616      10.29589952       9.52208852      -0.01944108       0.00126851      -0.00553125
H       12.16537604       8.55131486      11.14548575      -0.01017605       0.00777399      -0.00080815
H       10.98059187       9.26633465      12.26161187      -0.01161557       0.00651077      -0.00140858
H        9.04010367      11.18391392      10.19396337      -0.02174640      -0.00743777      -0.00346723
H        9.57659834      10.25741676       8.78889346      -0.02027978      -0.00931865      -0.00189471
H       10.33726196       7.75327492       9.68552978      -0.00830398      -0.00324894       0.00329310
H        9.68857873       7.43741013      11.31678114      -0.00494796      -0.00222909       0.00497285
O        9.41929728       7.78521549       7.48295584       0.00107019       0.00408083      -0.00209057
C        9.83724917       7.65341029       5.15926481       0.00099016       0.00412692      -0.00183666
C        9.30648906       6.30909067       5.64919407       0.00199468       0.00364983      -0.00199524
C       10.27992677       8.30197169       6.46264898       0.00185764       0.00336297      -0.00174707
C        8.62747983       6.71792613       6.94735976       0.00216018       0.00294638      -0.00165325
H       10.64724162       7.56204780       4.43700208       0.00031337       0.00477668      -0.00264308
H        9.03205673       8.23168583       4.70522039       0.00033453       0.00422195      -0.00066019
H        8.61469758       5.84964717       4.94574921       0.00201619       0.00340728      -0.00187144
H       10.13320653       5.62049012       5.84233413       0.00254574       0.00418554      -0.00260967
H       11.31539921       8.03199746       6.70895928       0.00148964       0.00188765      -0.00189467
H       10.19526975       9.39153008       6.44851268       0.00322320       0.00346935      -0.00130295
H        7.61174703       7.08161830       6.75577428       0.00160968       0.00181115      -0.00124410
H        8.57938761       5.92140394       7.69435065       0.00339056       0.00297582      -0.00156701
O        9.44837532       9.58553557       2.33595471      -0.00264448       0.00522854      -0.00464860
C        7.41757739       9.50209408       1.16655378      -0.00670075       0.00524592       0.00204349
C        7.32732252      10.66904706       2.15307885      -0.00348765       0.00487998       0.00278272
C        8.49280998       8.65289579       1.81841005      -0.00387537       0.00532808      -0.00239936
C        8.77307313      10.82974970       2.62510155      -0.00202584       0.00486985      -0.00171420
H        6.47656270       8.96623168       1.05170717      -0.00674438       0.00467104       0.00568920
H        7.74640068       9.83462471       0.17969096      -0.01085401       0.00575535       0.00089028
H        6.94208586      11.58292612       1.70062468      -0.00495067       0.00499594       0.00417347
H        6.69099205      10.42431049       3.00464618      -0.00083824       0.00474179       0.00473759
H        8.07173794       8.04533738       2.62885972      -0.00069162       0.00415835      -0.00162625
H        9.02070718       7.99509593       1.12330402      -0.00588927       0.00635046      -0.00489312
H        9.30371871      11.61640286       2.07957589      -0.00396162       0.00537056      -0.00294596
H        8.82448149      11.04391046       3.69536290       0.00134206       0.00418687      -0.00175786
O        6.37136814       6.88098322       4.07819040       0.00146413       0.00098269      -0.00005041
C        4.19171702       6.08077241       4.50456363       0.00342333      -0.00002123       0.00699106
C        4.51280212       7.19717062       5.49621120       0.00297707       0.00498420       0.00158608
C        5.59045028       5.68826065       4.04629971       0.00342244      -0.00044893       0.00770487
C        5.63453225       7.91673510       4.77345555       0.00207207       0.00287804      -0.00203884
H        3.63283239       5.25132040       4.93468897       0.00492273       0.00121838       0.01134324
H        3.60600583       6.48378926       3.67605597       0.00220160      -0.00466068       0.00566325
H        3.67890773       7.86017121       5.70945335       0.00247136       0.00521517      -0.00107367
H        4.86803098       6.77839702       6.44228903       0.00384490       0.00989550       0.00336608
H        6.03258273       4.94760044       4.72976285       0.00520819       0.00411373       0.01145595
H        5.62720503       5.27383656       3.03456986       0.00306858      -0.00603318       0.01002520
H        5.22919962       8.61806422       4.03497618       0.00122985       0.00055313      -0.00378793
H        6.31464612       8.47250988       5.41342241       0.00267264       0.00458044      -0.00409573
O        8.78228736       1.31119459       5.48316820       0.00981310      -0.00330845      -0.00550681
C        7.90184661       3.03575698       6.81769949       0.00237381      -0.00440484      -0.00808647
C        9.17234977       2.46579842       7.48948308       0.00317159      -0.00005841      -0.00594062
C        7.54829089       1.97002796       5.77189562       0.00931056      -0.00251430      -0.01154685
C        9.36928229       1.12718668       6.76633981       0.00514981      -0.00125378      -0.00306040
H        7.08932331       3.16673743       7.52939693      -0.00254014      -0.01374041      -0.01164091
H        8.11289163       3.99209376       6.34100209      -0.00096494      -0.00102130      -0.00298005
H       10.02709703       3.12520641       7.32820753       0.00263101       0.00032461      -0.00804983
H        9.03753801       2.31343024       8.55730322       0.00423478       0.00285827      -0.00533345
H        6.83066901       1.24347684       6.16381519       0.00620961      -0.00147194      -0.01538551
H        7.15751362       2.37431577       4.83754853       0.01321781      -0.00052376      -0.01230851
H       10.41275951       0.84170024       6.62657826       0.00552094      -0.00159849       0.00050513
H        8.83901066       0.32939534       7.30055936       0.00316751      -0.00025398      -0.00357634
O       11.69316741       4.36761945       3.14030370      -0.00039002      -0.00259340      -0.00265738
C       10.74916174       2.21485602       2.85664695      -0.00080420      -0.00275457      -0.00027192
C       10.16687203       3.15911678       1.80530388      -0.00423867      -0.00250807       0.00190896
C       11.26945792       3.20912311       3.88175647       0.00212577      -0.00295311      -0.00158054
C       11.20397657       4.27410492       1.80131878      -0.00384596      -0.00295976      -0.00131103
H       10.02489448       1.53092740       3.29490179       0.00076947      -0.00306053       0.00189792
H       11.57302930       1.63736097       2.42857020      -0.00198743      -0.00237811      -0.00301328
H       10.03310005       2.70483717       0.82418702      -0.00778395      -0.00232996       0.00230414
H        9.19839933       3.54092243       2.13846915      -0.00291550      -0.00219041       0.00544621
H       10.46900919       3.49410896       4.57370301       0.00409979      -0.00310554       0.00086030
H       12.11646247       2.84154664       4.46470000       0.00385511      -0.00287125      -0.00418529
H       12.03641179       4.02792450       1.12737661      -0.00571710      -0.00372081      -0.00341046
H       10.80301573       5.24687264       1.50457900      -0.00413321      -0.00281703      -0.00069806
