149
Lattice="11.47930591510866 0.0 0.0 0.0 11.47930591510866 0.0 0.0 0.0 11.47930591510866" Properties=species:S:1:pos:R:3:forces:R:3 energy=-1132142.75 stress="-0.0003823741863016039 -0.0006086513167247176 -0.0008994039671961218 -0.0006086513167247176 0.0007319311844184995 0.00047388569510076195 -0.0008994039671961218 0.00047388569510076195 -0.0003498737933114171" pbc="T T T"
Fm      10.25245914      11.48673381      -0.47459027      -0.00078230       0.00687055       0.00576341
S        5.48830871       8.80030585       3.85874598      -0.00629701       0.00280902      -0.01227903
F        6.13149430       9.06391133       6.43046823      -0.00832038      -0.00661292      -0.01244627
F        4.02036838       9.25099681       5.99642006      -0.00606975       0.01135402      -0.01504885
F        5.37747542      10.87342159       5.52065071       0.00739321       0.00104536      -0.01077458
O        4.31584337       9.27696578       3.14286194      -0.00137985       0.01928008      -0.01383460
O        5.49590621       7.37267904       4.12994570      -0.02602711       0.00282502      -0.01561105
O        6.73912334       9.34967748       3.38327580      -0.00007570      -0.01092374      -0.00816059
C        5.24587204       9.53561504       5.54455687      -0.00352013       0.00201762      -0.01160192
S        9.94139325       9.12641294       4.99715798       0.00076231      -0.01177013      -0.00191149
F       10.65662680      11.65799356       4.63880400       0.00057470      -0.01159298       0.00137636
F        9.44257511      11.30515062       6.40348610       0.00510126      -0.01210082       0.00397580
F        8.53151450      11.32568513       4.44348430       0.00048082      -0.01097208       0.00629551
O        8.84918181       8.54044715       5.74103506       0.00272429      -0.01410455      -0.00241315
O       11.24724875       8.99738969       5.61382001       0.00246906      -0.01377535      -0.00537264
O        9.92440594       8.89681788       3.56160232      -0.00173114      -0.00597961      -0.00318694
C        9.62051419      10.94408726       5.11964221       0.00177616      -0.01130629       0.00260857
S        1.67069927      10.37797648       9.20738326       0.00470376      -0.01081777       0.03758228
F        1.65703780       8.30971010       7.54412864      -0.01154181       0.00206959       0.03184976
F        1.67770417       7.77665479       9.64141041       0.04262163       0.00172891       0.02394237
F        3.47364292       8.54126710       8.70355554       0.00590357       0.02238421      -0.01167924
O        2.46541326      10.61355364      10.39576959       0.00720432       0.01385172       0.00946224
O        0.22806606      10.27378697       9.49164061       0.00171399      -0.00143425       0.02149196
O        1.97407586      11.16613110       8.04142860       0.00501609       0.00721022      -0.00920254
C        2.13886078       8.64754523       8.72864644       0.01217401      -0.00059062       0.01345170
N        5.97138559       1.45001945       3.17152186       0.00258750       0.00196194      -0.00600748
H        5.74113062       1.36418330       4.15436610      -0.04076674       0.01876385      -0.01309131
H        6.13739515       2.44036870       3.01089190       0.02434636      -0.00152557      -0.00723578
H        6.81607857       0.91539477       3.02336192       0.00330473      -0.01182167       0.04084570
N        8.25475666      10.45740303       9.81333387       0.01016581       0.00079051      -0.01100348
H        7.80929012      10.91029285       9.02257189       0.01496707       0.00702397      -0.01040131
H        7.50617299      10.20011912      10.44847760       0.00589009      -0.00080267      -0.01581486
H        8.64954104       9.57122968       9.46682106       0.00879254       0.00119022      -0.01385310
N        8.99487505       5.89476004       3.45930206      -0.01237787      -0.00097064       0.00598420
H        9.10493436       6.88412254       3.25287252       0.00157670      -0.00199109       0.00707705
H        9.52540106       5.75718226       4.31669325      -0.01895641      -0.00608598       0.00935616
H        8.01605513       5.78044058       3.70487363      -0.01549563       0.01313696       0.00133321
N        4.96440132       4.25306232       0.17665937      -0.01886667       0.00638300       0.00145667
H        5.75347594       4.35467010       0.80291592      -0.01523210       0.01137137      -0.00438218
H        5.29448170       4.25268046      -0.77933652      -0.02739657       0.01869064      -0.00146717
H        4.54427561       3.34286396       0.37160129      -0.00510891      -0.00116299      -0.00324718
N        8.99186898       1.93595792       0.45296973      -0.00079256       0.00565654       0.01940206
H        8.28698944       2.24244590      -0.20884163       0.00798814      -0.00310726       0.00526825
H        9.54517064       2.75341789       0.74582323       0.00228099       0.00921004       0.00796466
H        8.50050139       1.57974257       1.26270264      -0.01409860       0.03125115       0.02396387
N        2.28218908       5.71005939       1.29881807      -0.00663981      -0.00887945       0.01028062
H        1.68334353       6.31855091       0.74634161      -0.00203177      -0.00193798       0.01303204
H        3.03697338       5.35201287       0.71312082      -0.00367448      -0.00417423       0.01024295
H        2.72179088       6.29639181       1.99989517      -0.00860567      -0.01696616       0.01859489
N        6.90829453       2.32177315       8.40770858       0.00082558      -0.00570193       0.00358891
H        7.07753280       2.36144155       7.40591467      -0.00173369       0.00532221       0.00356115
H        7.16275143       3.24099890       8.75329626      -0.01489896      -0.00383458       0.01019828
H        5.90232194       2.25347670       8.53001483       0.00163718      -0.02271010       0.00436035
N        4.83761337       8.85730933       0.12222611       0.00263838      -0.01608481      -0.00663489
H        4.29167280       8.03155494       0.35256301      -0.00675937      -0.01332933      -0.02091246
H        4.23950745       9.41319664      -0.48143332       0.01089432      -0.00191120      -0.00342257
H        4.88785568       9.36139496       1.00450586       0.00257036      -0.02664612      -0.00145398
N        0.45346984       1.86037878      10.97961964      -0.00586498       0.00608528       0.00498061
H        0.54497940       2.45378656      11.79976796       0.00253280      -0.00792662       0.01477893
H        1.36366690       1.86616358      10.48536541      -0.00490987       0.00446527       0.00524824
H       -0.21276677       2.33616217      10.38272929       0.00239887       0.02656566       0.01310547
N        5.69864243       5.53249742       6.60621891       0.00736073      -0.00931737      -0.01583844
H        6.03913848       5.99531845       7.44757044       0.00272102      -0.00316140      -0.01719719
H        5.36205375       6.26658443       5.98880514       0.01165511      -0.01339222      -0.02355511
H        6.51834001       5.16020011       6.13937529       0.01037483      -0.01392265      -0.00669061
N        3.07918232       2.10288417       9.51324272      -0.00540304       0.01662958       0.01691611
H        3.18109881       1.48521178       8.71934755       0.00320389       0.00269091       0.02598882
H        3.66413632       1.76429601      10.26607686      -0.01196538       0.02837710       0.02843010
H        3.36209893       3.05355983       9.25477517      -0.00455466       0.01186228       0.00457325
N        1.39805134       8.74290935       2.99676205      -0.00011434      -0.00709794      -0.00621260
H        1.02901331       7.85662752       2.67499674       0.00065039      -0.01042590       0.00372969
H        1.06321096       8.85963704       3.94862319       0.00486523      -0.00039630      -0.00552881
H        2.41145125       8.67886744       3.03097305       0.00099117      -0.00344912      -0.01132797
N        0.32326241       4.94711751       9.07597603       0.00493394       0.00805574      -0.00419566
H       -0.67899473       4.82226663       8.92538471       0.00753639      -0.01115593      -0.00336598
H        0.43830091       5.63859065       9.80948840      -0.00984603       0.01327275      -0.00687096
H        0.71284299       4.08303088       9.43614108       0.02186058       0.01764608       0.00101239
N        8.81571649      10.33253673       1.20888946       0.00454739      -0.00110522      -0.00779110
H        8.69098482       9.36763103       0.88018903      -0.01652028      -0.00225592      -0.00177779
H        7.87032204      10.59911104       1.47725300       0.01090194       0.02166778      -0.00474181
H        9.29949126      10.20134580       2.09642475       0.00796758      -0.00589347      -0.00950974
N        0.33883209      11.11174914       1.42470090       0.00774774      -0.00639249      -0.00826004
H        0.27178119      11.86284427       2.10759661       0.02219799      -0.01080874      -0.00157210
H        1.17642022      11.31058166       0.88392415       0.00738141      -0.01352838      -0.01300973
H        0.55880129      10.26106294       1.97247766       0.00129694      -0.01250766      -0.01511645
N        8.98659109       3.13217391       5.38205131      -0.00935861       0.00269196       0.00988199
H        8.37833682       3.22806227       4.57595820       0.00502972       0.00678661      -0.00080996
H        9.55362866       2.31012143       5.21253566      -0.03160975      -0.01812850       0.03210790
H        9.63164598       3.92022240       5.35443459       0.01461727      -0.01605817       0.00557527
N        1.23795239       2.38445807       6.78292573       0.00339383       0.00252385      -0.00268795
H        0.54412017       3.11921004       6.76269436       0.01851478       0.01503520       0.00557682
H        1.20530991       1.91247623       7.67740815       0.00267945       0.00028498      -0.00262111
H        0.99561464       1.70661120       6.07009891      -0.01426759       0.00906493      -0.00336747
N       -0.15951476       5.50455083       5.78427148       0.00549097       0.00555376      -0.00126348
H        0.23173266       5.39114036       6.71718284       0.01438529       0.01190418      -0.00412083
H        0.04722209       6.46249768       5.51701473      -0.00517195       0.00663613      -0.00537284
H        0.36024166       4.88843610       5.15608853       0.00539537       0.00867071      -0.00458087
N        1.02984473       3.31679135       3.67942309       0.00038667       0.01021798      -0.01017939
H        1.53459538       2.47321095       3.94738718      -0.00975835       0.00109795      -0.01855854
H        1.63508067       3.89076756       3.10021841       0.00194903       0.00333185      -0.01523568
H        0.24925538       3.03933039       3.09669877      -0.01006751       0.02428334      -0.00272635
N       11.19112568       7.97448350       0.32832496      -0.01972944      -0.02596741      -0.00301472
H       11.84159574       8.71669244       0.09500198      -0.02456862      -0.01990412       0.00444932
H       10.78661573       8.22911340       1.22352305      -0.01800319      -0.03838683       0.00203903
H       10.43789945       8.03316394      -0.34996958      -0.02324507      -0.01896876       0.00285314
N        3.51239080       4.99140030       8.76606640      -0.00144155       0.01269668      -0.01079531
H        2.54526265       5.17651432       8.52056912      -0.00074998       0.00880645      -0.01814917
H        4.08598936       5.13353778       7.93825580       0.00273041       0.00801858      -0.00916262
H        3.79407258       5.67703909       9.45519564      -0.00856582       0.02143456      -0.01599039
N        2.45225027      11.90263198       4.37972766      -0.01354612       0.00168534      -0.00354465
H        3.34316260      12.38532363       4.44915752      -0.02249736       0.01626295       0.01644586
H        2.59186748      11.16567161       3.69525897       0.01352765       0.00394274      -0.00053112
H        2.32943215      11.42444225       5.26774014      -0.02411945      -0.00106928      -0.00591186
N        8.90270185       5.00306061       7.89890468       0.00658810       0.00198850       0.00150207
H        9.41220179       5.58430078       7.23650081       0.00274133       0.00393751       0.00016579
H        8.09499431       5.53670689       8.20806086       0.00905167       0.00138171       0.00874915
H        8.57220344       4.23046008       7.32494574       0.00185910       0.00458547       0.00036158
N        4.95866578       4.33420657       3.30962984       0.01697975       0.00527006       0.00251020
H        4.25807808       4.18043038       2.59369974       0.01229569       0.00913686       0.00618798
H        4.95610809       5.32777424       3.51819746       0.01856703       0.00482541       0.00442281
H        4.64741301       3.83510153       4.14124820       0.01776483       0.00471973       0.00229862
N        3.56919699       1.55250474       1.26896801       0.01296073      -0.01471804      -0.01113200
H        2.75526338       1.78014637       1.83075738       0.01616319       0.00126158      -0.01312501
H        4.32371661       1.33384128       1.92723482       0.01459829      -0.00668718      -0.01052770
H        3.34254210       0.69889050       0.77049282       0.00563424      -0.02434422       0.00706466
N        9.83050535       1.41067138       8.87762696      -0.00061720       0.00268358       0.01187968
H       10.10731309       2.35332734       8.61890358       0.01121335      -0.00354952      -0.00008357
H        8.82258087       1.38814402       8.71449804      -0.00259954       0.01300938       0.01865666
H       10.26779622       0.80135869       8.19365198      -0.01243602      -0.01142783       0.01669845
N        7.63228163       7.50345869       0.96639575       0.00883729       0.01321790      -0.00175438
H        6.74899111       7.68818727       0.49701273       0.00716452       0.01090331      -0.00048625
H        7.48538264       7.79311983       1.92989895       0.00927427       0.01106463      -0.00089252
H        7.77797999       6.50126597       0.98552895       0.01424470       0.01417640      -0.00459758
N        4.27717000       2.63057248       5.99455465      -0.00011647      -0.01054199      -0.00288299
H        4.61897164       1.81033749       6.48164711       0.00664650      -0.00483769       0.00244820
H        3.28354097       2.70084488       6.23330199       0.00025520      -0.01366954       0.00046376
H        4.73555086       3.44155158       6.40754562      -0.00268397      -0.00511423      -0.01105125
N        6.64197141       7.30408169       9.15579232      -0.00030081      -0.00289896      -0.00260256
H        7.57283670       7.49554118       9.51574827      -0.00222467      -0.00200215       0.00048431
H        5.99687314       7.64579103       9.86476317      -0.00306514      -0.00336941      -0.00442940
H        6.53616978       7.93280614       8.36620056       0.00182434      -0.00249276      -0.00270061
N        9.73227015       8.10308785       8.62218719       0.00748506      -0.00751807      -0.00057346
H        9.38883371       8.12748910       7.66216255       0.01162466      -0.01603826      -0.00285827
H       10.04258169       7.15461675       8.79714919       0.00435494      -0.00777890       0.00872536
H       10.56410107       8.68508059       8.62924118       0.00697239      -0.01044314      -0.00087715
N       10.66281522       4.42532891       1.24899052      -0.01226307       0.00592162      -0.00489967
H       11.63677645       4.62539938       1.47585737      -0.01189251       0.01399387      -0.01262930
H       10.10848883       4.85238218       2.00181988      -0.01027681       0.00007667      -0.00019932
H       10.48855971       5.00715829       0.43455234      -0.02387640       0.00567454      -0.00268418
