150
Lattice="15.93327689590026 0.0 0.0 0.0 15.93327689590026 0.0 0.0 0.0 15.93327689590026" Properties=species:S:1:pos:R:3:forces:R:3 energy=-2054499.25 stress="-0.000713902700226754 0.0001948702338268049 0.00020549586770357564 0.0001948702338268049 -0.0006539001478813589 -0.0006205749814398587 0.00020549586770357564 -0.0006205749814398587 -0.0009518449078314006" pbc="T T T"
Fm      17.63757859      14.32063710      -0.31331448      -0.00166455      -0.00843178       0.00423583
S       12.38853979       8.58431459      11.58188072      -0.00587931      -0.00367212       0.00130188
F       11.44108276       9.43972691       9.24847533       0.00570533      -0.00940624      -0.00493890
F       13.21462748      10.48759618       9.92521663       0.00439930      -0.01052094      -0.00068149
F       11.30016457      10.88236103      10.86232204       0.00156629      -0.00430566      -0.01024860
O       13.11739241       9.28211286      12.61459601      -0.01115453      -0.00104296       0.00310302
O       13.16769417       7.61789537      10.81306874      -0.00240517      -0.00670981       0.00911868
O       11.05617441       8.12939083      11.91475342      -0.00787401      -0.00154972      -0.00509655
C       12.06196678       9.91249661      10.34424954       0.00191909      -0.00711024      -0.00395906
S        4.30611484      13.82341350      14.36596413      -0.01127359      -0.00193673       0.00768292
F        5.08825377      13.83255031      11.85484751      -0.03090999       0.02977616      -0.00131208
F        3.07789302      13.07688286      12.15925395      -0.01609772      -0.00088100       0.01724958
F        4.79585848      11.86249688      12.70746873       0.00551583       0.01785120      -0.01418236
O        3.47583014      12.86777234      15.13904950       0.00544441      -0.00183970       0.00222719
O        3.51385642      15.07200205      14.25198287       0.00564155      -0.00385273       0.01995532
O        5.67965621      13.95232316      14.72542242       0.00387609      -0.00630182       0.00237244
C        4.31922921      13.10595438      12.65439602      -0.01143499       0.01339847       0.00506890
S        5.59152776      13.48061422       4.51962923       0.00087190      -0.00055765      -0.00394821
F        6.23042059      14.19189076       6.97980378      -0.00982374       0.00978875      -0.00463688
F        7.92217627      13.62291570       5.74680304      -0.00493681       0.00812079       0.00388511
F        6.59598534      12.10153515       6.54036872      -0.00513639       0.00891161       0.00435644
O        6.15092099      12.48216041       3.62029140       0.01099032       0.00168800       0.00023878
O        5.77446591      14.85189164       4.10451695      -0.00531951      -0.00027704      -0.00528580
O        4.25833179      13.15098284       5.00492051       0.00091124      -0.00743914      -0.00928968
C        6.64357540      13.34046539       6.03375304      -0.00524020       0.00699469       0.00022411
Cl       5.84733251       5.22040510      12.92884165       0.00479086      -0.00125575      -0.00127399
Cl       4.77473417       4.52802775      10.30212820       0.01330891      -0.00390619      -0.00334275
Cl       4.47334422       7.23658578      11.33904137      -0.00337616      -0.00700796      -0.00060015
C        5.49992122       5.80309246      11.29343450       0.00424274      -0.00124263      -0.00076905
H        6.44511480       6.08057982      10.84204214       0.00310957       0.00472020       0.00096613
Cl       1.91392774       4.06990837       7.77125498       0.00536892      -0.01706684       0.00229278
Cl       1.15897878       4.66761062       5.01301101       0.00781363      -0.01328807       0.00195357
Cl      -0.47008418       2.84420692       6.60820318       0.00254554      -0.00629926       0.00529704
C        0.57946648       4.27956998       6.63967955       0.00599905      -0.00921145       0.00232556
H       -0.01815973       5.11004159       6.99352760       0.00779003      -0.00704533       0.00108349
Cl      12.32651365      14.24955021      10.55651092      -0.00635022      -0.00353885      -0.00490630
Cl      14.53978179      16.07042356      10.01441153      -0.00374834      -0.00385875       0.00614722
Cl      15.05287766      13.23759305      10.52835018      -0.00835320      -0.00677849      -0.00706632
C       13.93230947      14.40969338       9.83394592      -0.00578566      -0.00206068      -0.00250244
H       13.85271325      14.20459325       8.77312215      -0.00463137       0.00346861      -0.00343683
Cl       8.96315902      10.60054877       4.17293240       0.00535742       0.00143975       0.00623426
Cl       9.22815023       9.55591543       6.87780821       0.00055422       0.00117427       0.00608265
Cl       6.76962791       9.11611039       5.37397263       0.00311542       0.00226749       0.00231341
C        8.53096919       9.29960140       5.28482274       0.00313353       0.00140072       0.00520002
H        8.92568853       8.37200233       4.88974075       0.00373122       0.00150836       0.00579737
Cl       4.62133052       6.33277503       3.74961654       0.00672325      -0.00241897      -0.00209183
Cl       7.33984502       5.54080632       4.44408166       0.00696158      -0.00100227      -0.00290350
Cl       5.09253802       4.70637456       6.11647058       0.00931977       0.00555839       0.00252658
C        5.62722719       5.08290702       4.48208961       0.00717643      -0.00045401       0.00072525
H        5.52958163       4.18945512       3.87849015       0.00621273      -0.00237659       0.00390902
Cl       0.44628748      14.24642330       7.21720694      -0.00486264       0.00702597      -0.00311667
Cl       2.95453203      13.62049265       8.57570675      -0.01221046       0.00740695       0.01151551
Cl       2.86025179      15.77797890       6.61985604       0.00092956      -0.00856563      -0.00746870
C        1.97974325      14.90154834       7.86372852      -0.00495386       0.00591161      -0.00207812
H        1.70414404      15.59739541       8.64632998      -0.00311778       0.01827413      -0.01148495
Cl      12.31020151      11.69205965       6.61096427       0.00441599       0.00626835       0.01301371
Cl      12.97464229       8.87003255       6.23881785      -0.00238377       0.00816575      -0.00744486
Cl      15.00310539      10.91830567       5.82695663       0.00056066       0.00594293       0.00017288
C       13.56338980      10.45245165       6.75552870       0.00238189       0.00335823       0.00105190
H       13.84494254      10.37645931       7.79841091       0.00515949      -0.00343005      -0.00036836
Cl      14.08604606       4.04396338      13.82106791       0.00170323       0.00025055      -0.00521201
Cl      15.05086697       6.74698648      14.37029469       0.00539532      -0.00196499      -0.00183249
Cl      12.21325873       6.14075420      14.57103036       0.00486600       0.00037861      -0.00134227
C       13.84170727       5.53053604      14.78495785       0.00431338      -0.00109716      -0.00300056
H       13.98019559       5.25952707      15.82435089       0.00432523      -0.00261460      -0.00355890
Cl      10.38241211       5.97154299       6.51588847       0.00840145       0.00119974      -0.00830445
Cl       7.92335399       6.10718542       8.08560618       0.01360524       0.01216944      -0.00185169
Cl       9.24950415       3.54371246       7.65315746       0.00361826       0.00745249      -0.00061093
C        9.46579365       5.29419970       7.87415751       0.01005650       0.00687195      -0.00455703
H       10.05610662       5.44738817       8.77076491       0.01284942       0.00641385      -0.00657734
Cl       0.33489908       9.94894801      11.54185387      -0.02325934      -0.01298693      -0.00535041
Cl       0.70548123      10.48365879       8.70181125       0.00328565       0.00142092       0.00207531
Cl       3.03014993      10.27983346      10.43208750      -0.01379970      -0.00183791       0.02435701
C        1.37609925       9.71000486      10.14481247      -0.00902820      -0.00424494       0.00440657
H        1.43096734       8.64696996       9.94768759      -0.00407529      -0.00294131      -0.00032150
Cl       8.87316312       2.21778980       2.41946506       0.00133860       0.00786991       0.00836444
Cl       6.86616186       1.82871064       4.48920716       0.00860476      -0.00754061       0.01204412
Cl       9.58168601       0.89295822       4.92922815       0.01317862       0.00122213       0.00107884
C        8.56734549       2.12673874       4.16793944       0.00622723       0.00004359       0.00841157
H        8.83575864       3.08627254       4.59201540       0.00397626      -0.00075197       0.01119192
Cl      13.62570331      15.83334069      14.55057259       0.00758530      -0.00323989      -0.01049813
Cl      16.19388675      15.34360081      13.24633748       0.00893932      -0.01585488      -0.00368136
Cl      14.89677214      13.19723751      14.69743299      -0.00158435      -0.00650409      -0.00024424
C       14.60981624      14.66440758      13.71324544       0.00588059      -0.00863317      -0.00496428
H       14.11272475      14.34466578      12.80395595       0.00651957      -0.00929527      -0.00478898
Cl      13.86217961      10.99152459       2.14694462      -0.00271893       0.01047683      -0.00389645
Cl      12.50642567       8.42821762       2.46637061       0.00200716       0.00806527      -0.00650340
Cl      15.35400483       8.50455666       1.82991663       0.00140777       0.01359449      -0.00603306
C       14.02628069       9.31058846       2.67551964       0.00025063       0.01041510      -0.00547521
H       14.25888243       9.31997496       3.73401676       0.00001366       0.01009496      -0.00555006
Cl       4.03527473       6.28133313       0.28237564      -0.00474909      -0.00284082      -0.00061914
Cl       6.59328514       4.90544516       0.49485617      -0.00263548       0.00103795      -0.00533381
Cl       4.17848225       3.61879262       1.50419839       0.00098611      -0.00234744      -0.00158340
C        4.85193908       4.71720796       0.28330935      -0.00249621      -0.00148204      -0.00238161
H        4.67646034       4.25670943      -0.68092879      -0.00333031      -0.00143261      -0.00209883
Cl      12.37371547       2.63605818       2.73875008       0.00950339      -0.00189832       0.03183351
Cl      14.98668660       2.80565377       1.44858993      -0.00538085       0.01434303       0.00622800
Cl      13.83228931       5.15645219       2.73359039      -0.01293305       0.01021245       0.00646994
C       13.97275901       3.39947390       2.77733649       0.00250189       0.01202317       0.01290224
H       14.45965927       3.11792446       3.70512811       0.01345795       0.02040683       0.00932735
Cl      13.85048189      14.25547292       4.34478067      -0.00275836       0.00906071      -0.00359263
Cl      15.90004409      16.29709906       4.00322650       0.00408247       0.00077841      -0.00915393
Cl      15.07083000      14.63137625       1.72549905      -0.00171171      -0.00283344      -0.00414212
C       14.57183492      15.43599196       3.25337530       0.00127468       0.00352971      -0.00648335
H       13.80163567      16.14277094       2.96457748       0.00380221       0.00532781      -0.00854363
Cl       1.74834560       8.50851578       4.63634824      -0.00082803      -0.00727838      -0.00028709
Cl       3.43264834      10.47109375       5.97297841      -0.00051145      -0.00476462      -0.00465618
Cl       2.90635668       7.87636465       7.24853885      -0.00447367       0.00047499       0.00279105
C        3.12681792       8.76552665       5.73108052      -0.00193767      -0.00502193       0.00023188
H        3.99016043       8.33082984       5.24621457      -0.00188741      -0.00725749       0.00268130
Cl       8.81709608       3.94363202      11.95823770      -0.00182685      -0.00832929      -0.01085556
Cl      11.38095703       4.95171348      11.01838334      -0.00107080      -0.00039375       0.00181131
Cl      11.21781982       2.30973867      12.26222154       0.00048983      -0.00282922      -0.00424284
C       10.39185968       3.51790034      11.26043594       0.00171123      -0.00310984      -0.00523232
H       10.20235268       3.06140874      10.29679631       0.00695467      -0.00161475      -0.00674391
Cl       6.86087500       8.58521775       1.79595509       0.01120983      -0.00262219       0.00013635
Cl       6.77983209      11.27809175       0.65493750      -0.00776783      -0.00399667      -0.00127941
Cl       4.31249772       9.93565064       1.43182463       0.00735199      -0.00053722       0.04797733
C        6.04145063      10.16602747       1.78767671       0.01335251      -0.00209499       0.01365668
H        6.11364716      10.60803132       2.77585265       0.03226950      -0.00094369       0.01115674
Cl       7.62611397      11.50267726       9.99196224      -0.01784816       0.01238763       0.00321232
Cl       6.16474626       9.25749308       8.83992688      -0.00742346       0.00591969       0.00307745
Cl       8.42635507       8.77925640      10.63133980      -0.00083107       0.01601219      -0.00372341
C        7.07965915       9.83842028      10.24337710      -0.00739120       0.00893102       0.00156616
H        6.40717689       9.83855097      11.09233668      -0.00514174       0.00364506       0.00306755
Cl       2.49219120       1.98225858      12.89025521       0.00627463      -0.00807063       0.01040275
Cl       1.73062669       1.47749261      15.69078695      -0.01404308      -0.00639521       0.00487546
Cl       1.77844689       4.18474640      14.64386784      -0.00659649      -0.00773761       0.00334407
C        1.48108885       2.51804268      14.21914965      -0.00353596      -0.00801380       0.00255322
H        0.43745502       2.40314954      13.94690188      -0.00151053      -0.00865648      -0.00451666
Cl       1.27344979      12.96694350       4.19805595      -0.00402790      -0.00416097      -0.00099221
Cl       1.52595500      11.98255284       1.47835817      -0.00034636      -0.00944956       0.00141577
Cl       2.87906808      14.46037269       2.26710956      -0.00059524      -0.00875992      -0.00002169
C        2.33316157      12.83594879       2.84191585      -0.00225653      -0.00734746       0.00077313
H        3.23415537      12.29867489       3.11818394      -0.00321829      -0.00735752       0.00309570
Cl       8.89309146       7.26329166      14.22680884       0.00004348       0.00045854      -0.00325440
Cl       9.32414764      10.14190024      13.93072967      -0.00752878       0.00092506      -0.00593776
Cl       6.61939295       9.02242409      13.78456374      -0.00433880      -0.00598377      -0.00347164
C        8.24240703       8.88386895      14.50033397      -0.00375496      -0.00131197      -0.00421299
H        8.11413764       9.00734969      15.56666631      -0.00339024      -0.00066334      -0.00441462
Cl      -0.36295213       6.86181440       8.86196836      -0.00932303      -0.00325824      -0.00755447
Cl      -0.94421091       4.29751203      10.14355721      -0.00426926      -0.00321120      -0.00745623
Cl       1.11711841       6.04304387      11.23388820      -0.00086182      -0.00386646      -0.01356339
C       -0.44321145       5.97495941      10.40455548      -0.00370966      -0.00371885      -0.00771622
H       -1.20278551       6.48526662      10.99270299      -0.00138789      -0.00428587      -0.00450401
Cl       8.96331255      13.65669406       2.44164730       0.00177646       0.00308012      -0.00026591
Cl      10.90180568      12.67350636       0.49173466      -0.00944310       0.00160462      -0.00943553
Cl      11.29062028      15.27847172       1.74769904      -0.00319976       0.00376421      -0.01613443
C       10.64619896      13.62403427       1.96300403      -0.00127563       0.00406726      -0.00997987
H       11.22427522      13.16485531       2.75640806       0.00400126       0.00567718      -0.01317272
