139
Lattice="12.114780962358994 0.0 0.0 0.0 12.114780962358994 0.0 0.0 0.0 12.114780962358994" Properties=species:S:1:pos:R:3:forces:R:3 energy=-1115332.125 stress="-0.00044098953367210925 0.0005825537955388427 -5.9541029258980416e-05 0.0005825537955388427 -3.449521682341583e-05 0.00010600206951494329 -5.9541029258980416e-05 0.00010600206951494329 0.0009413236402906477" pbc="T T T"
Fm      11.74070219      12.14401881       0.61177525       0.02006317      -0.01777726      -0.00145064
P       10.82612307       9.51229246       7.10737544       0.03203095      -0.00514007       0.01084402
O       10.33347496       9.08297058       5.61270308      -0.03134844       0.02277645       0.02529806
O       10.61554611       8.12293841       7.95352460      -0.00830073       0.00254083       0.01492047
O       12.29244034       9.79616631       7.05664674      -0.03520262      -0.00172460       0.01213254
O        9.85049146      10.48469802       7.64797247      -0.01644218       0.01769948       0.04232553
H       10.99157665       8.49855284       5.22378854      -0.04059596       0.01436299       0.01326434
H       11.41363764       7.58576946       7.89745992      -0.00415361       0.00314087       0.00671361
P        5.48294261       5.50497828       8.37077306      -0.00604874       0.00849249       0.00229041
O        6.17909944       5.84571416       6.96268032      -0.00370044       0.01321458       0.00483513
O        6.80834589       5.30856320       9.31236593      -0.00468135      -0.00438455      -0.00136554
O        4.70854356       6.69108109       8.85791374       0.00047219       0.00887287       0.01076376
O        4.84843857       4.15886683       8.33326875      -0.01368606       0.01162529      -0.00350611
H        5.76582044       6.57057045       6.42508629      -0.01239415       0.00599137       0.00023818
H        7.26589304       6.14706331       9.42687544       0.00450087      -0.00920346      -0.00414461
P        5.32261202       9.03952242       4.89133060      -0.00915027      -0.00864702      -0.00973292
O        4.29096452       9.93302644       5.73549852       0.00852239       0.01425916      -0.01376897
O        4.63605431       9.19939711       3.39518874      -0.00965339      -0.00456449      -0.00838315
O        6.66717041       9.67438857       4.85001292       0.00478220      -0.02286118      -0.01999538
O        5.15952743       7.59508924       5.23358211      -0.02281636       0.00065768      -0.00049045
H        4.71479473      10.28780263       6.55281488       0.00823030       0.00687772      -0.01107353
H        5.01452876       9.99578393       3.00966510      -0.00374394      -0.00959636      -0.01234975
O        1.89196309       4.94846292       6.20629047      -0.03753455      -0.00322372      -0.01331502
C        1.21013397       5.79086848       8.26479241       0.00782591      -0.00990415      -0.01657254
C        1.94596424       6.93303892       7.54941729       0.00058928      -0.00978965      -0.00645542
C        1.81649848       4.56958939       7.58771318      -0.01513839      -0.01184468      -0.01516557
C        2.31624031       6.32260860       6.18635590      -0.02041657      -0.00772136      -0.01064128
H        1.37524121       5.80054693       9.34187245       0.03089374      -0.01268382      -0.01329693
H        0.12976207       5.79827205       8.08389874       0.00432640      -0.00046081       0.02954333
H        1.37362346       7.85666277       7.43928700      -0.00126584      -0.01099223       0.00493573
H        2.86635624       7.15205502       8.09571948       0.00868690      -0.00884526      -0.01658991
H        2.82245936       4.36129043       7.97941009      -0.00946963      -0.01945953      -0.03252712
H        1.19748929       3.67218085       7.64649382      -0.02168116      -0.00550494      -0.00828242
H        1.80434694       6.80185212       5.34495435      -0.02241197       0.00107914      -0.00355059
H        3.39000558       6.39900415       6.00129220      -0.02200305      -0.02037594      -0.02140661
O        1.23117563       1.75418491       1.53714805      -0.01306085      -0.00275895      -0.02457474
C        2.18514482       3.76401628       2.25741701      -0.01937595      -0.01978821       0.01360705
C        3.15723400       2.64782476       2.64092363      -0.01897019      -0.01460747      -0.00523746
C        0.87966985       3.00294665       2.18461934      -0.01787683      -0.00826523      -0.01507106
C        2.62717278       1.44911941       1.85434724      -0.01427164      -0.00556976      -0.02223785
H        2.16143819       4.56957608       2.98981538      -0.01936554      -0.01513743       0.00412142
H        2.43851438       4.17732113       1.27891359      -0.00214560      -0.00619769       0.01517102
H        4.19212836       2.88562200       2.39283630      -0.01670232      -0.01268759       0.00166659
H        3.09838413       2.46693234       3.71572679      -0.02736496      -0.02305067      -0.01254150
H        0.49350511       2.79844572       3.18952124      -0.02085411      -0.01551852      -0.02190548
H        0.10006690       3.47060469       1.58408039      -0.01251194      -0.00129612      -0.01730153
H        3.14586978       1.31854885       0.90300465      -0.01015344       0.00478238      -0.02147004
H        2.66060484       0.51594560       2.42040693      -0.01729593      -0.01142892      -0.03159171
O        0.34588937      11.17190287       2.61295063       0.01546578      -0.00512880       0.00427932
C        0.99359361       8.92720815       2.96827850       0.00270431      -0.00654685       0.02522357
C        1.53400533       9.79500707       4.10470799      -0.00608081       0.00006422       0.02416301
C        0.68196447       9.96080850       1.90207632       0.01173262      -0.01321916       0.01640247
C        0.66086093      11.02402623       4.04183513      -0.00737515      -0.00216302       0.00987428
H        1.71894538       8.19228349       2.62417951       0.00467801      -0.00814208       0.03279306
H        0.07532071       8.40650506       3.24958447       0.00090283      -0.00519318       0.02202562
H        1.48237142       9.34189136       5.09172571      -0.01418665       0.00614895       0.02663553
H        2.57650911      10.03563219       3.90705890      -0.00543690       0.00159703       0.03000511
H        1.55132211      10.16900493       1.26012424       0.01557007      -0.02233917       0.01905809
H       -0.17613407       9.69726603       1.26513739       0.01329112      -0.01535957       0.01512712
H       -0.27568972      10.90298561       4.58411067      -0.01570261      -0.00368100      -0.00477773
H        1.15758389      11.93832951       4.36323672      -0.01496723       0.00018212       0.01447695
O        5.43020796      10.71285731       8.02588403      -0.00027319       0.00318769      -0.00672895
C        5.47335990       9.79035057      10.19175665       0.00380662      -0.00262429      -0.00897372
C        6.54318055       9.10455183       9.34174081       0.01167229       0.00942391      -0.00873283
C        4.55977804      10.33446508       9.10596838       0.00058084      -0.00766551      -0.00882053
C        6.73122139      10.08319407       8.19895507       0.00360440       0.01259911      -0.00735968
H        4.95358447       9.09598858      10.85211254       0.00883341      -0.01049465      -0.01342247
H        5.89403747      10.60655912      10.78645662      -0.00471623      -0.00107455      -0.00502460
H        7.47656159       8.91244765       9.87066518       0.01235406       0.01668926      -0.00764610
H        6.11233263       8.16222136       8.98765263       0.02077612       0.00654054      -0.01103964
H        3.86982189       9.55923679       8.75860922       0.00851205      -0.01276517      -0.01180914
H        3.99314725      11.21977325       9.40231237      -0.00742204      -0.01322260      -0.00737114
H        7.45971213      10.86244359       8.43336390      -0.00190973       0.01766616      -0.00574738
H        7.02556468       9.63632688       7.24948416       0.00690655       0.01504943      -0.00762987
O        7.06587045       2.45136207      11.51266875      -0.00019813      -0.01749521       0.00035250
C        6.48719862       1.67417594       9.33109900      -0.00116804       0.00957105      -0.00947636
C        5.24716093       1.73610938      10.22183844      -0.00177974       0.00629926      -0.00981534
C        7.62562149       1.85712870      10.33335124      -0.00024363      -0.00160882      -0.00804400
C        5.69054973       2.75724346      11.25176112       0.00248969      -0.00604761       0.00061116
H        6.56782408       0.74726702       8.76714028      -0.00392621       0.01287186      -0.01527685
H        6.43987862       2.51224396       8.63624344       0.00223877       0.01423836      -0.00395223
H        4.37369729       2.07182450       9.66660688      -0.00037581       0.01484320      -0.00710729
H        5.05069941       0.77010975      10.70018049      -0.00608450       0.00258309      -0.01935278
H        8.06452132       0.89791833      10.63505624       0.00156631      -0.00445318      -0.02042669
H        8.41784171       2.49876635       9.93426486      -0.00147986       0.00446212      -0.00061795
H        5.59530019       3.76341678      10.83238075       0.01008844      -0.00154084       0.00975713
H        5.16903185       2.70380246      12.20809895       0.00055841      -0.01093780      -0.00073642
O       10.06891158      11.14526911      11.34014458       0.01184160       0.02807492      -0.01009264
C       11.97467857      11.39645301       9.96500283       0.02448016       0.01821648       0.00441736
C       11.87172659       9.92529981      10.43413968       0.01833647       0.02089950       0.01166454
C       10.59118570      11.97637622      10.26821129       0.02420422       0.02393118      -0.00771502
C       10.42859627       9.79349313      10.91359881       0.01597628       0.02489567       0.00579413
H       12.77225682      11.92950359      10.50563682       0.02376524       0.02007425       0.00358592
H       12.20097786      11.45094071       8.90160623       0.03155962       0.01111971       0.00536615
H       12.08289771       9.24167658       9.61663717       0.02248886       0.01506248       0.01679459
H       12.58343978       9.71592720      11.23644370       0.01326412       0.02808738       0.01834512
H       10.57993430      13.01346605      10.62589328       0.02550994       0.02403769      -0.00799346
H        9.94314072      11.87490717       9.39499118       0.03106630       0.02444726      -0.01242340
H        9.77814594       9.52949683      10.07799586       0.01937872       0.01367303       0.00691277
H       10.25466224       9.13539928      11.76206141       0.01338064       0.03530090       0.01375929
O        9.26736945       3.74074350       7.50106561       0.02803463      -0.01578721       0.00855166
C       10.27278421       3.85002868       5.42277975      -0.00429618      -0.00407078      -0.00686669
C       10.18603660       5.29575740       5.94402994       0.00688210      -0.00750250       0.00647843
C        9.16263040       3.16274241       6.21375127       0.01102209      -0.01130253       0.00791413
C        9.41387442       5.14855766       7.27706740       0.00984791      -0.01411858       0.00680733
H       10.14582796       3.76828804       4.34251612      -0.02755556       0.00547829      -0.00466016
H       11.23699741       3.41611743       5.69402949       0.00153658      -0.00545251      -0.03049360
H       11.17919211       5.72589525       6.07414589       0.01089895      -0.01757351       0.00760765
H        9.63077961       5.94209880       5.26425513       0.00940695       0.00280547       0.01441570
H        8.17822351       3.38618878       5.77626701       0.00382978      -0.01148593       0.02431369
H        9.27220890       2.08250082       6.31161411       0.01536190      -0.01179957       0.00167269
H        9.93946660       5.55938008       8.13689236       0.00325775      -0.00515841       0.00645736
H        8.42634188       5.61114599       7.20950562       0.00308067      -0.02846760       0.00470044
O        8.73606495       9.34172727       1.60042780       0.01447490       0.01815903       0.00225141
C        7.23621311      11.10269304       1.24426741       0.00098357       0.00588769       0.00019702
C        7.92539014      11.36599664       2.58546735      -0.00367984       0.01118535       0.00163406
C        7.42062351       9.59954804       1.10889202       0.01218444       0.00718063       0.00203890
C        9.04689661      10.32424606       2.60604127       0.00521897       0.02050728       0.00279804
H        6.18805568      11.40702561       1.23190095      -0.00110841      -0.00178887      -0.00172025
H        7.74251420      11.62276398       0.42988174      -0.00152129       0.00951232       0.00077710
H        8.30757493      12.38309208       2.66955200      -0.01332165       0.01463142       0.00322239
H        7.25990100      11.16062397       3.42667743      -0.00366354       0.00372872      -0.00037655
H        6.68342411       9.05961114       1.71358465       0.01682332       0.00282547       0.00378585
H        7.37305494       9.23248267       0.08271733       0.01501454       0.00507042       0.00256407
H       10.02442275      10.75754438       2.33830782       0.00245491       0.02823141       0.00368881
H        9.12633352       9.84535216       3.58321801       0.00749000       0.02076468       0.00284129
O        6.14431812       4.07565609       1.89393990      -0.01485136      -0.00812036       0.01275542
C        6.78612374       5.38791984       3.70822860       0.00377445      -0.00322852       0.00261873
C        6.51221124       6.33900511       2.54677292       0.00485957      -0.00696748      -0.00079788
C        7.09126717       4.10773137       2.96010399      -0.00902022      -0.00925264       0.00775796
C        5.80735086       5.43091971       1.53915808      -0.00247429      -0.00737083       0.00436044
H        7.58296977       5.72675048       4.36518834       0.00999725      -0.00518034      -0.00368780
H        5.89482258       5.27525713       4.32462523       0.00607139       0.00606420       0.00765026
H        5.89453531       7.17854721       2.85201709       0.00939581      -0.00281870      -0.00286503
H        7.44853828       6.72730133       2.14075101       0.00543544      -0.01282688      -0.00511478
H        8.11233073       4.11768692       2.54779367      -0.01149297      -0.01870792       0.00180119
H        6.96432390       3.19533604       3.54513111      -0.01250932      -0.00540829       0.01314431
H        4.71901113       5.52671341       1.61005928      -0.00174582       0.00227285       0.00197452
H        6.09766299       5.61468139       0.50102258       0.00050712      -0.01541205       0.00381756
