145
Lattice="11.74273260031059 0.0 0.0 0.0 11.74273260031059 0.0 0.0 0.0 11.74273260031059" Properties=species:S:1:pos:R:3:forces:R:3 energy=-1123088.125 stress="0.0002674934221431613 0.0009763302805367857 -0.0004910443094559014 0.0009763302805367857 0.002223566174507141 -0.00013301350554684177 -0.0004910443094559014 -0.00013301350554684177 0.0007258793921209872" pbc="T T T"
Fm      11.27981201      10.53888117       0.33876460      -0.00923726       0.00023144      -0.00001281
S        6.38770027       9.39033032       8.84494899       0.00167398      -0.00927603       0.00262737
O        5.99859264      10.06853435       7.59410861       0.00530821      -0.01810634      -0.00478494
O        7.79400509       8.99145945       8.84325963       0.00404668      -0.00937361       0.00755456
O        5.46450517       8.31107808       9.20947707       0.00271952      -0.00564361       0.00756586
C        6.24931569      10.62151515      10.12159141      -0.00032628       0.00067461      -0.00848889
H        5.21013978      10.88572117      10.27733482      -0.00127394       0.00064070      -0.01211747
H        6.66516403      10.21153589      11.03902446      -0.00174302       0.00808491      -0.00425243
H        6.81463527      11.49522172       9.80390630      -0.00072138      -0.00138303      -0.01454580
S        2.29168561      10.37727151      11.17655148       0.03036903       0.00381542       0.01399565
O        3.50637440      10.24044516      11.93414816      -0.03082752       0.01599169      -0.01591665
O        1.51160763      11.62048626      11.46928513      -0.01445776       0.01183724      -0.00783427
O        1.31680853       9.25539333      11.34584337      -0.00885922       0.00133103      -0.00044690
C        2.70663037      10.42918003       9.45917432      -0.00529638       0.00449194      -0.00497407
H        3.34837580       9.57564788       9.24077150      -0.00325452       0.00421530       0.00006165
H        1.79184085      10.36474332       8.87496389      -0.00187632       0.00314411      -0.00378513
H        3.24608663      11.35518225       9.26336230      -0.00439742       0.00404608      -0.00256999
S       10.07914554      11.10738197       5.28750622       0.00533038      -0.00025848      -0.00419983
O       10.03607001      12.29852953       4.41509016       0.00123890       0.00010091      -0.00264433
O       10.86900776      11.36987379       6.49048812       0.01261514      -0.00122246      -0.00758165
O       10.49542968       9.90014448       4.56578634       0.00140572      -0.00020665      -0.00643969
C        8.43973027      10.77656221       5.82793329       0.00864404      -0.00161187       0.00543541
H        7.80960640      10.53024310       4.97692799       0.00168167       0.00869407       0.00750154
H        8.47154101       9.93783965       6.52061730       0.01229980      -0.00973341      -0.00459850
H        8.06844186      11.64919650       6.35120937       0.01455864      -0.00721642       0.01893938
O        8.04002448      10.02618205       1.27039019       0.01297688       0.00062329      -0.01197860
C        7.22459843       9.22239179       2.12563079       0.01125735       0.00397570      -0.00929915
H        6.62451819       9.82827727       2.80869282       0.00844006       0.00778666      -0.01517352
H        7.81304196       8.51210614       2.71504828       0.01093835       0.00897387      -0.00280201
H        6.54444802       8.66841294       1.47898132       0.01426239      -0.00157245      -0.00733721
H        8.52732742      10.67962900       1.79290132       0.00507368       0.00830172      -0.01481920
O        6.97432928       1.61421476       7.70094336      -0.01819357      -0.01959586      -0.01059502
C        7.73849441       2.52127737       6.89913264      -0.01930721      -0.01099922      -0.00193468
H        7.09974385       3.21301744       6.34813984      -0.02036971      -0.01298013      -0.00304919
H        8.38991323       1.99483577       6.19830847      -0.01133986      -0.00383767      -0.00008953
H        8.36077958       3.10148237       7.57561175      -0.02779369      -0.00979859       0.00489050
H        6.56433373       0.93767097       7.14960691      -0.02416034      -0.00979030      -0.01824006
O        4.50592768       5.83056808       7.99561387      -0.00132596       0.01860264      -0.00243860
C        3.33211371       5.21567202       8.47962877       0.00291586       0.02671096       0.01637784
H        2.50597580       5.92203999       8.60925383       0.00522792       0.02967229       0.01641279
H        3.48245886       4.69103210       9.42797328       0.01114734       0.03711823       0.02091992
H        3.03257182       4.46928713       7.73953155      -0.00692268       0.01913714       0.02798411
H        4.73477527       6.61085553       8.52700809       0.01026075       0.01937038      -0.00658044
O       11.91918585       9.13083392       7.62273874      -0.00030473      -0.00368130       0.00097620
C       11.04505913       8.00217259       7.59702999      -0.00221169      -0.00255632      -0.00099729
H       10.77032453       7.73547804       6.57330967       0.00592083      -0.00689378      -0.00192791
H       10.12703447       8.17701215       8.16352382      -0.00628859       0.00194702      -0.00892320
H       11.57321249       7.16398089       8.04663543      -0.00713086      -0.00128239       0.00724997
H       11.45813620       9.88822638       7.21262406       0.00286967      -0.00310466      -0.00188841
O        6.59123264       8.25427582       5.56699291       0.00411612      -0.00689358      -0.00375688
C        5.31882386       7.69920445       5.26146913       0.00265431       0.00025967      -0.01125544
H        5.47846186       6.87600108       4.56676644       0.00232269      -0.00179923      -0.00900409
H        4.66832259       8.44065015       4.78908370       0.01042679       0.00347540      -0.01651318
H        4.82779597       7.30726121       6.15484595      -0.00514562       0.00439425      -0.01359034
H        6.44476641       8.90946198       6.28036714       0.00537300      -0.01050809       0.00027037
O        1.72945261       3.97975989       1.94708025      -0.00675660      -0.01184338       0.00689569
C        2.97933524       3.31685368       1.77882716      -0.00446033      -0.00848681       0.01028068
H        3.02772565       2.39440251       2.36159378       0.00096344      -0.00242478       0.01944134
H        3.80956568       3.97077783       2.05006990      -0.00614679      -0.00245699       0.00125809
H        3.06941165       3.06151414       0.72398108      -0.00655480      -0.01933749       0.01271114
H        1.71211473       4.42486663       2.81355402      -0.00919650      -0.00921294       0.00599782
O        2.37249659      10.18848980       6.19607378       0.00212789      -0.00531608       0.00893617
C        2.20943185      10.26877719       4.79182046       0.00600815      -0.00585104       0.00803822
H        2.55034334      11.25047378       4.45925472       0.02638990      -0.01353842       0.00756896
H        1.16784665      10.13599396       4.49717907       0.00395006       0.01393964       0.00584815
H        2.81729567       9.52364726       4.26736446      -0.00826812      -0.01912457       0.01093669
H        1.69160159       9.60198230       6.56019945       0.00177299      -0.00605850       0.00697833
O        8.04296377       6.10088852       4.44565258      -0.00859487       0.01161343      -0.01597975
C        9.34350476       5.64709422       4.77587157      -0.01186973       0.01193294      -0.00421122
H        9.46937137       5.47728210       5.84870766      -0.02264702       0.00556329      -0.00389159
H       10.12273060       6.34429480       4.44101620      -0.00964096       0.01589748       0.00903560
H        9.49926449       4.70123378       4.25412277      -0.00353660       0.01518160      -0.00780687
H        7.80691791       6.86459045       4.99904193      -0.01476854       0.00922856      -0.01427026
O        9.38836677       3.93200155      10.43925763       0.00729451      -0.00273645       0.01608539
C        9.68152669       5.05474305      11.28122874      -0.00846943       0.00241923       0.01445583
H       10.59621072       5.55364313      10.96266173      -0.01082760       0.00943139       0.01845920
H        9.79029338       4.74672370      12.32464094      -0.01294622       0.00686322       0.01634783
H        8.83816913       5.73603478      11.19410519      -0.01394486      -0.00547273       0.00704766
H       10.16421340       3.36294981      10.42285483       0.01395428       0.00644549       0.01861949
O        4.05686589       2.58835428       4.98548702       0.01383281      -0.00363088       0.00882952
C        4.67645128       3.87501427       4.96673085      -0.00366321       0.00465229       0.00365281
H        4.82774313       4.26798111       5.97594083      -0.01488443       0.01331495       0.00200742
H        4.09615252       4.59473021       4.38600586      -0.00988626      -0.00697008      -0.00451133
H        5.64961477       3.75857526       4.49059696       0.00071466       0.01530070       0.01006593
H        3.11636496       2.67586076       5.20158225       0.01122642      -0.01537326       0.00292020
O        1.41440842       5.05707658       4.54891861      -0.01172529      -0.01024616      -0.00504610
C        1.72447808       6.33129983       5.12518867      -0.00359649      -0.01229268      -0.00484242
H        2.71869729       6.65259232       4.81342073      -0.00110841      -0.01796392      -0.00313510
H        1.68567456       6.29136251       6.21339119      -0.00622446      -0.01192890      -0.00475490
H        0.99198406       7.06352905       4.78048030       0.00129738      -0.00820924      -0.00661531
H        1.39624153       4.38315399       5.24078587      -0.00237668      -0.01369407      -0.00818518
O        4.97124759       0.31380849       3.67174893       0.01025802       0.00398573       0.00319165
C        5.83258346       0.78086339       2.65938379       0.00271401       0.00588572      -0.00283080
H        6.88008469       0.79725263       2.99568563       0.00436270       0.01244186      -0.00789438
H        5.57038280       1.79040161       2.32412885      -0.00448044       0.00399405      -0.00343188
H        5.76058043       0.11028403       1.80160886       0.00149579       0.00392613      -0.00095135
H        4.67534390       1.07853833       4.19468810       0.01148497       0.00395755       0.00369263
O       10.71757655      11.93300105      10.17419834      -0.01104331       0.00921034       0.00563598
C        9.74672058      10.92426083       9.81585963       0.00469124      -0.00373488      -0.00213611
H        9.14706896      11.23591017       8.96524622       0.01310517      -0.01578292      -0.01210696
H        9.09582171      10.79438692      10.68541900      -0.00550049      -0.00636878      -0.01062819
H       10.23645977       9.97595540       9.58353711       0.01914465       0.00037268       0.00980358
H       11.48097217      11.86325854       9.58912512      -0.00199643       0.01516719       0.01788959
O       11.50666182       9.14603838       2.24348222       0.00599977       0.00353977      -0.00280261
C       10.75328028       8.13224436       1.56860974       0.00875239      -0.00344197       0.00417086
H       11.36473347       7.79521982       0.73037906       0.00964350      -0.00788461       0.00650215
H        9.80225602       8.53383279       1.19515138       0.00773031      -0.00820933       0.00143607
H       10.54690711       7.28830511       2.22814134       0.01066448       0.00089872       0.01023531
H       11.05437871       9.43269818       3.07336200       0.00698911       0.00343276      -0.00157769
O        9.97580490       0.19579499       1.87517615      -0.00368095       0.00983876      -0.00515816
C        9.63834385       1.47262137       1.32449201      -0.00178816       0.01149772      -0.00342949
H       10.44329973       2.19012312       1.49612901      -0.00082049       0.01011631      -0.00146849
H        8.71613536       1.84702610       1.77099381      -0.00170153       0.01186424      -0.00364859
H        9.49319666       1.34900335       0.25388551      -0.00068653       0.01315183      -0.00374702
H       10.07444515       0.29485731       2.87013941      -0.00337391       0.00727788      -0.00488690
O        3.79555948       6.45517566       2.52007532      -0.00001258       0.00093779      -0.00734844
C        2.85856148       7.28735880       1.83403493      -0.00173596      -0.00200438      -0.00952891
H        2.79023788       7.03759160       0.77313444       0.00056342      -0.00365683      -0.00958222
H        3.10610083       8.34508006       1.93018956      -0.00533645      -0.00135165      -0.01000782
H        1.88896951       7.11472786       2.29680123      -0.00167787      -0.00487523      -0.01020993
H        4.67708398       6.70915016       2.23953298      -0.00038204       0.00409831      -0.00591738
O        4.76321331       2.05948323       9.33053617      -0.00438213       0.00484982       0.00044233
C        5.39368339       2.51418520      10.51251582      -0.00606978      -0.00217414       0.00442332
H        5.26938696       3.59584311      10.64398705       0.00098719      -0.00152481       0.00607180
H        6.46622055       2.29925777      10.50594475      -0.00744960      -0.00971922       0.00864411
H        4.94495295       2.00380407      11.36632262      -0.01285800      -0.00073181       0.00151947
H        5.45330504       2.02807243       8.64736014      -0.00150816      -0.00561698       0.00371687
O        1.12619785       4.56651964      11.10029486      -0.00735851       0.00341046       0.01073006
C        0.96479386       3.26163022      10.59385798       0.00661851       0.00668967      -0.00126040
H        0.49281190       3.34248428       9.61080112       0.01036467       0.01104825      -0.00268072
H        0.33493841       2.63527558      11.23991688       0.00921941      -0.00473069      -0.00943291
H        1.91376298       2.72777910      10.45783345       0.01190722       0.01593177      -0.00168720
H        1.31737213       4.49845722      12.05575962      -0.00454623      -0.00337338       0.01011527
O        9.04163566       5.47573529       8.10975043      -0.00038213      -0.02179483       0.00420888
C        7.66624091       5.83360517       8.22700197       0.00173038      -0.01285511       0.00241428
H        7.01660135       4.95543176       8.25003999      -0.00407657      -0.00870836       0.00491510
H        7.40306800       6.43585724       7.35940570       0.00593045      -0.01467207      -0.00027853
H        7.47514913       6.44650401       9.10988210       0.00477761      -0.00847450       0.00001794
H        9.24323444       4.88751519       8.85204781      -0.00144246      -0.01516055       0.01002590
O        1.34843363       2.54180159       6.00041645       0.01679724      -0.02093661      -0.02055672
C        1.72191774       1.68089699       7.09578573       0.00479075       0.00197382       0.00110881
H        1.83385486       0.64934868       6.75924360       0.02368371      -0.00217247       0.02048683
H        0.97325091       1.72958298       7.88899682      -0.01167136       0.00712698      -0.01505348
H        2.67124936       2.04505703       7.48230679      -0.00726554       0.01885240       0.01431009
H        0.57719867       2.14951166       5.57564058       0.02607360      -0.03346038      -0.02600969
