146
Lattice="16.12057808852749 0.0 0.0 0.0 16.12057808852749 0.0 0.0 0.0 16.12057808852749" Properties=species:S:1:pos:R:3:forces:R:3 energy=-2134134.75 stress="0.0002762862714007497 6.666146873612888e-05 0.00011631489178398624 6.666146873612888e-05 0.0003580561897251755 0.00012552731641335413 0.00011631489178398624 0.00012552731641335413 0.0002567425835877657" pbc="T T T"
Fm      15.57678773      16.07246412       2.05783017      -0.00431000       0.00624847       0.00595573
O        9.50619145      15.70862941       9.96411909       0.01402926      -0.00020409      -0.00357389
O        7.36528512      15.99167802       8.47596839       0.00386977       0.00668812       0.00945318
O        8.07577314      13.62182544       9.28963234      -0.00185597       0.00599241       0.01088405
O        9.49163421      14.85450763       7.48652769      -0.00651550      -0.00539154      -0.00045395
Mn       8.60608553      15.04690802       8.82011873       0.00312127       0.00184126       0.00435270
O        4.54912427      11.80268598      11.07388203       0.00057626       0.00221777      -0.01387799
O        5.39835264      14.25213664      10.77122847      -0.01074982       0.00561380      -0.00159955
O        6.59356462      12.64570565      12.45112632      -0.00367713       0.00520265      -0.01185358
O        4.20260177      13.55253029      12.99021066      -0.00330472      -0.01026475      -0.00422311
Mn       5.19175258      13.06266296      11.81366447      -0.00186875       0.00316010      -0.00349297
O        1.11150536      13.18296644       4.92765366       0.01014936       0.01309526       0.00175029
O       -0.11602076      15.33638521       4.07198129      -0.00223969       0.00779605       0.01042062
O        0.27995519      14.93822462       6.64923434       0.00271484       0.00631732      -0.00020659
O       -1.43278603      13.47030819       5.38412126       0.01661623       0.00630873       0.00708237
Mn      -0.04032081      14.21657279       5.28680101      -0.00649298       0.01842618       0.00863039
Cl      11.60880441      13.06544558      10.28841340       0.00404555      -0.00798827      -0.00646672
Cl      14.39610637      12.73554799       9.48981890       0.00324512      -0.00528362      -0.00113401
Cl      12.80503973      14.91593069       8.38090522      -0.00254148      -0.00138336       0.00646013
C       13.08037714      13.89762151       9.78835599       0.00515474      -0.00324887       0.00341973
H       13.40831385      14.53306958      10.60187941       0.00874926      -0.00500754       0.00485218
Cl       9.49281078      10.37225505       4.21505190      -0.01446754      -0.00184059      -0.00179869
Cl       7.93417451       9.63351280       6.56788904      -0.00223426      -0.01725751       0.00265801
Cl       8.73905184      12.40658709       6.18854203      -0.01941356      -0.01159805       0.00510269
C        8.26980892      10.91676650       5.39822305      -0.01404714      -0.01276667       0.00351474
H        7.36109091      11.09109263       4.83800192      -0.01757428      -0.01777179       0.00732806
Cl       7.54119202       4.67017680       0.87017374       0.00375503      -0.00598844       0.00069925
Cl       5.54346352       2.71932887       1.73530584      -0.00196286      -0.00410923      -0.00566256
Cl       6.77664694       4.50764243       3.68313657       0.00120494      -0.01942257      -0.00238296
C        6.24179853       4.32929757       2.00659225       0.00048874      -0.00710560      -0.00315903
H        5.45621670       5.05548341       1.83765741       0.00173110      -0.00319622       0.00558137
Cl       0.20475532      15.44290193      11.32078001      -0.01678634       0.01535021       0.00264996
Cl       0.81097371      17.53561453       9.37829776       0.00591847      -0.00355005      -0.01099656
Cl       2.71741533      15.36692730       9.84169490      -0.01286507      -0.01411766       0.01062061
C        1.02847798      15.81325815       9.78366080      -0.00953238      -0.00218080       0.00203372
H        0.53758939      15.24462836       9.00368233      -0.01218125      -0.00415966       0.00518483
Cl      12.43114965       8.70724470       6.19419487      -0.00746632      -0.00177324       0.00361702
Cl      14.81831759      10.26960262       6.80399331      -0.00395995      -0.00190240      -0.00858130
Cl      12.20851194      11.57590743       6.64332552      -0.00370193      -0.00065738       0.00024247
C       13.07269288      10.11015437       7.07041679      -0.00299321      -0.00070899      -0.00129847
H       12.91859589       9.93181501       8.12659071       0.00158461       0.00055429      -0.00037056
Cl      13.47494418       9.91452907      13.08521458       0.01471967       0.00036851      -0.01123934
Cl      14.99852881       8.12336084      14.82083786       0.00424981       0.00577247       0.00274768
Cl      12.91459035       7.04606359      13.08595565      -0.00327572       0.00548172       0.00698450
C       14.14977413       8.29207274      13.26492314       0.00498073      -0.00194921       0.00104366
H       14.88863300       8.15041796      12.48489368       0.00415641      -0.01047454       0.00181466
Cl       7.29727742       5.28334102       7.11895204      -0.00793216       0.00810695      -0.01261258
Cl       7.88820527       2.49244639       7.76967554       0.00739956      -0.01298380       0.00311683
Cl       9.71220123       4.00024008       6.06013633      -0.02025655       0.01926598      -0.01450393
C        8.56490092       4.06538753       7.42704373      -0.01069237      -0.00448464      -0.00657001
H        9.12644797       4.40804008       8.28846640      -0.02767003       0.01899365      -0.00434446
Cl       2.09686759      10.58581489       6.97247749      -0.00407398       0.00228754      -0.00044098
Cl       2.05297510       7.68387354       7.27097444       0.00082697       0.00226173       0.00516729
Cl       4.25008934       9.24829486       8.41274773       0.00596321       0.00684789      -0.01187811
C        2.54546546       9.23311882       8.02319248       0.00394802       0.00432321      -0.00100651
H        1.97918107       9.32233745       8.94136989       0.00964090       0.00567177       0.00225490
Cl       8.34260179      -0.18311479       5.24652309       0.00922406       0.00138792      -0.00389534
Cl       8.96128942       1.44533483       2.89269253       0.02481431       0.00503731       0.00175083
Cl       7.04718587      -0.74532472       2.68945317       0.01697780       0.01925945      -0.01445431
C        7.71898228       0.49896586       3.76537007       0.01731592       0.01002912      -0.00374840
H        6.91701757       1.18901877       3.99756786       0.02077770       0.01505888      -0.00560766
Cl      12.30352314      16.30367948      14.43673472       0.00085492      -0.01999916       0.01716745
Cl      13.67197942      13.94183060      13.40765849      -0.01331928      -0.01703367      -0.00310440
Cl      11.08934568      13.66174022      14.73247549      -0.01671314      -0.00646210      -0.00288558
C       12.09128696      14.68791941      13.71529784      -0.00956297      -0.01075835       0.00152278
H       11.59196619      14.81908769      12.76222111      -0.00314343       0.00232903      -0.00038534
Cl      12.56202778       9.80799281       1.77319764       0.01193109       0.00487298      -0.00370052
Cl      14.17617807      11.73493179       0.28638034       0.01308239       0.00763869       0.00099140
Cl      14.42327351      11.54419573       3.18506963       0.00631473       0.00715211       0.00164038
C       14.10721450      10.65431916       1.69212324       0.01098370       0.00697230       0.00049618
H       14.88770168       9.91254199       1.57466520       0.01239026       0.00804949       0.00249553
Cl      12.90656924       4.14017555       3.47151023      -0.02445558       0.00337635      -0.00942943
Cl      13.58874382       2.22066268       1.37594598       0.00254411       0.00053386       0.00193819
Cl      14.60709380       1.84252808       4.06800897      -0.01427634       0.01429668       0.01151256
C       13.22972641       2.46761120       3.12102334      -0.00979918       0.00379072       0.00006481
H       12.36817120       1.85038306       3.35829752      -0.00858006       0.00019877      -0.00600731
Cl       6.81064252       8.21374920       3.15258768       0.00318989      -0.02206355      -0.00437239
Cl       4.53379191       9.18624141       4.67234908       0.00741547      -0.00276318      -0.00953318
Cl       4.12278920       7.21924396       2.57159817      -0.00208516      -0.01017271      -0.00082481
C        5.24110527       7.81427024       3.83402926       0.00113172      -0.01024975      -0.00324205
H        5.37598525       7.00408233       4.54012264      -0.00423835      -0.00756419       0.00098246
Cl       8.85596029       3.63392700      13.81420228      -0.00271205      -0.00252187      -0.00682062
Cl       9.85339022       5.12838464      11.50987031      -0.01223081      -0.00416651      -0.01226877
Cl       9.17178638       2.29346474      11.23883772      -0.00009578      -0.00795048      -0.00383291
C        8.79481212       3.80002717      12.05055653      -0.00572723      -0.00747891      -0.00729831
H        7.78054528       4.08391830      11.79766376      -0.00743741      -0.01227091      -0.00581773
Cl       5.34560219       9.36358858      -0.15056511      -0.00307753      -0.01217455       0.00513779
Cl       6.71966074      11.56838219       1.21103951      -0.01531020      -0.00539263       0.00647213
Cl       4.81596733      12.11114792      -0.94143710       0.00515087      -0.01478630      -0.01390934
C        5.22001824      11.05434393       0.38614001      -0.00732750      -0.00918430      -0.00560948
H        4.44021128      11.08163670       1.13793343      -0.01510909      -0.00443506      -0.01401564
Cl      10.28256411       8.59593995       9.80914547       0.00564998       0.01056069      -0.00632882
Cl       8.44715356      10.86266392      10.06530789      -0.00523901       0.00285268      -0.00000072
Cl       7.39999395       8.14404897       9.79135322       0.00502384      -0.00149170       0.00404355
C        8.70851295       9.17802483      10.42010709       0.00414560       0.00376683      -0.00225376
H        8.72017505       9.03575074      11.49296640       0.00839933       0.00368038      -0.00254959
Cl       2.08705167       3.38050613      16.99092024       0.01595823      -0.00754331      -0.00303300
Cl       0.48961331       4.31835875      14.73072149      -0.00013621       0.00308429       0.01270878
Cl       0.33513665       1.53065350      15.56987250      -0.00104582       0.00046275       0.00885230
C        0.57615308       3.23839200      16.10491316       0.00819379      -0.00022230       0.00985537
H       -0.24467783       3.46011271      16.77715646       0.01531632       0.00233320       0.01789242
Cl       5.07043109      13.62637470       7.93251433       0.00607753       0.00084277      -0.01158929
Cl       4.01553857      15.23658056       5.73331577      -0.00448993       0.00391489      -0.00515369
Cl       4.86055211      12.48215175       5.25595527      -0.03432149      -0.00643930      -0.00472468
C        4.16576649      13.60619602       6.45806253      -0.00912805       0.00521180      -0.00123280
H        3.15375001      13.26639173       6.63861495      -0.01034921       0.01508804       0.00895039
Cl       8.27018684      10.47739860      13.86151978      -0.02366881       0.00458229      -0.00383753
Cl       8.26877162       7.56102921      14.04824291       0.00858560       0.00541389       0.00399965
Cl      10.33428595       9.10380592      15.41060500       0.00171667       0.03097929      -0.01472344
C        8.64874203       9.09164732      14.87069487      -0.00206068       0.01168349      -0.00270945
H        8.02163017       9.13979381      15.75167512       0.00404167       0.00779944       0.00188756
Cl       3.13485100       8.50239498      11.96352110       0.00226020       0.00701153      -0.00876249
Cl       1.22838640       6.30945148      11.61925980       0.01166067      -0.00120953      -0.00943413
Cl       3.98947626       5.99178687      10.73592735       0.01522560       0.00804493      -0.00129497
C        2.92701071       6.75613815      11.92788410       0.00895342       0.00599635      -0.00556444
H        3.18697519       6.35234966      12.89870912       0.00813395       0.00875366      -0.00404638
Cl      10.96783231      13.29974960       3.38225446       0.00364450       0.00553566       0.01004758
Cl      12.89096485      15.04821972       2.09172432       0.00134441       0.00272337       0.00965188
Cl      11.94556204      15.62750995       4.82373335       0.00846551       0.00514457       0.00997865
C       12.31480904      14.34292727       3.69491869       0.00562239       0.00344336       0.01110405
H       13.15968462      13.77861076       4.07692018       0.00525010       0.00245360       0.01219968
Cl       1.04614343      13.71760410       1.48617079      -0.00717894      -0.00678837       0.01995660
Cl       3.91304577      13.81765565       2.01676203       0.00003773       0.00158609      -0.02259910
Cl       2.36271069      16.26575884       2.11464109      -0.00513517      -0.00485250       0.00101504
C        2.37798308      14.49445737       2.42535883       0.00323731      -0.00458525       0.00052422
H        2.14148011      14.33187337       3.47449641       0.01952336      -0.00365767       0.00362319
Cl      14.02106763       7.22135142       9.36186384      -0.01524474      -0.00173512       0.00614539
Cl      14.88870761       4.43662299       9.47718037       0.00217572       0.00403190       0.00139308
Cl      12.83845884       5.23646195       7.56951299       0.00155935      -0.00501987      -0.00134681
C       14.29577783       5.73455037       8.43370236      -0.00336697       0.00267704       0.00255206
H       15.06032449       5.95250918       7.69752599      -0.00265363       0.00951149       0.00502598
Cl       3.80574154       0.52307720      13.16730514      -0.00471468      -0.01263195       0.00547910
Cl       4.09529599       3.39501643      13.64472829       0.00721265      -0.01578066      -0.00178561
Cl       5.48443135       2.11683924      11.40343447      -0.00120503      -0.01717774       0.00195721
C        4.03815571       2.08660093      12.41497318       0.00119543      -0.01238669       0.00627595
H        3.18708307       2.29702003      11.77895608       0.00270316      -0.00577454       0.00856379
Cl       0.96282659       9.18453039       3.46749332       0.00376881      -0.00352824      -0.01307517
Cl      -0.87060048       7.06864184       4.26310382      -0.00309858       0.00701435       0.00045080
Cl       0.54173873       6.88862037       1.71343511      -0.00031221      -0.01471436       0.00325169
C        0.62261809       7.45875288       3.39902347      -0.00137158      -0.00345567      -0.00050730
H        1.43884451       6.93187852       3.87906295      -0.00297020      -0.00125256       0.00455689
Cl       3.72938850       2.60110833       6.62236278       0.00029354      -0.01882789      -0.02629294
Cl       3.06720757       4.71325148       4.71302890       0.02759069       0.02221614       0.01108754
Cl       0.98091265       3.56614156       6.39235651       0.01487762       0.03336650       0.01859000
C        2.70067951       3.98493341       6.29933635       0.02094788       0.00461653       0.00224991
H        2.90513665       4.74567326       7.04394860       0.00380397      -0.00528733       0.01567173
