148
Lattice="12.430821399098527 0.0 0.0 0.0 12.430821399098527 0.0 0.0 0.0 12.430821399098527" Properties=species:S:1:pos:R:3:forces:R:3 energy=-1183432.25 stress="-0.0006444113678298891 0.0001478519625379704 0.0005087034951429814 0.0001478519625379704 -0.0004462408251129091 0.0008023989212233573 0.0005087034951429814 0.0008023989212233573 -0.0007464283262379467" pbc="T T T"
Fm      11.23677732      12.00092159       0.02450347      -0.03148788      -0.00333462      -0.01524498
O        0.91226849      12.21807112       0.61688387      -0.03343540      -0.01041383      -0.01583505
O        3.49623681      12.10094053       0.03655612      -0.03721225      -0.00516587      -0.01889110
O        2.18739215       9.92389665       0.58631195      -0.02361608      -0.00698853       0.00740427
O        2.73281306      11.62949994       2.45354148      -0.02993155       0.01745509      -0.01250839
Mn       2.35479931      11.45727135       0.91691415      -0.02829224       0.00226244      -0.00995670
O        0.46881022       9.09276327       7.62534322       0.02542615      -0.02832074       0.00913882
O        2.65282347      10.50459274       7.52979664       0.00625813      -0.00208068       0.02286100
O        2.78889165       7.88679957       7.62983853       0.04143322      -0.00428796      -0.01238066
O        2.00571129       9.27087219       9.71416120       0.02645096      -0.03901425       0.00583339
Mn       1.99418914       9.19547620       8.11055268       0.02507307      -0.02020471       0.00574708
O        8.09190140       9.02972961       9.22939769       0.03237707       0.00408983       0.01121426
O        8.38154042      11.60145064       9.39361204       0.01942050       0.00112462      -0.02972937
O        6.52347375      10.61420054       7.85103798      -0.01390958      -0.02640198       0.03441405
O        9.01905741      10.36591852       7.19627998      -0.03219044      -0.02293554      -0.02843833
Mn       7.98617510      10.40326319       8.39865320       0.00740523      -0.01165133       0.00136045
O        5.67627427       5.09623360       8.96905354      -0.01040906       0.02455693      -0.01048946
C        4.68981971       4.92196048       9.98920757      -0.00711083       0.02145754      -0.00799546
C        4.69883207       6.09835729      10.94843543      -0.00774753       0.02081680      -0.00738204
C        3.31954333       4.67563285       9.37800509      -0.00758404       0.01783584      -0.00457498
H        5.00845027       4.01913607      10.52028486      -0.00379600       0.02263480      -0.00830305
H        4.01674906       5.93480618      11.78454050      -0.01065935       0.02140850      -0.00960080
H        5.70227709       6.25092691      11.34627688      -0.00830542       0.01796285      -0.00523866
H        4.38278725       7.00518898      10.42808757      -0.00303955       0.02218476      -0.00762136
H        2.58552269       4.45943759      10.15710236      -0.00335246       0.01201912      -0.00244284
H        3.35923820       3.82459324       8.69681623      -0.00663032       0.02043653      -0.00782345
H        2.98749619       5.55861758       8.82624561      -0.01150783       0.01899797      -0.00019358
H        5.54043836       5.97187150       8.59136146      -0.01947231       0.02123623      -0.01489940
O        9.74304370       9.49239652      11.31664031       0.02692020       0.03815372       0.01292378
C       11.12777242       9.53442021      11.00659480       0.02509320       0.01280037      -0.00324680
C       11.66674193       8.24335293      10.42175163      -0.00168650       0.00355554      -0.00529745
C       11.46958837      10.73584443      10.10613161       0.03037401       0.00515217      -0.01215249
H       11.61596140       9.66769720      11.99916512       0.03905645       0.00844590      -0.01016903
H       12.75793882       8.29317523      10.38572078      -0.00189713      -0.00608578      -0.02342316
H       11.34750955       7.37993635      11.00497184       0.00176748       0.00937708       0.00492193
H       11.31477312       8.12835013       9.39782810      -0.02187592       0.00147505       0.00221123
H       12.47504153      11.11987675      10.31895046       0.02355326       0.01562332      -0.00163216
H       10.71416931      11.52761246      10.20607260       0.02386634       0.00076526      -0.02933790
H       11.45809218      10.45241085       9.05261723       0.04542995      -0.00567518      -0.00913677
H        9.21030762       9.31634652      10.50475856       0.01867345       0.03163265       0.01840390
O        9.84422881       4.85813746       7.27609081      -0.00601166       0.00035059      -0.00242476
C       10.58536437       6.07703214       7.38725556       0.00130218      -0.00422549      -0.00415674
C       11.85726544       6.05564305       6.55453191       0.00140315      -0.01301413      -0.00360352
C        9.73475079       7.29501405       7.07507594       0.00909191       0.00083452      -0.00575197
H       10.86622897       6.11270661       8.44331828       0.00128664      -0.00406257      -0.00420290
H       12.45428166       6.94572697       6.76875541       0.00724507      -0.01730499      -0.00278812
H       12.45007088       5.16784043       6.77502082      -0.00520094      -0.01720531      -0.00314283
H       11.62165051       6.05564500       5.48586325       0.00265733      -0.01111661      -0.00373390
H       10.29023921       8.21561056       7.25815011       0.01440348      -0.00290820      -0.00372282
H        8.82462100       7.30970757       7.67326039       0.00807932       0.00554210      -0.00760861
H        9.45717157       7.31632888       6.01369791       0.01179203       0.00420382      -0.00631200
H        9.39058616       4.82950188       6.42660367      -0.00169462      -0.00129281      -0.00448143
O        2.54997865       9.70785449       4.71849209       0.00988805       0.01993859      -0.00354069
C        2.94542823       8.41546591       4.29578282       0.00809650       0.01746380       0.00187367
C        1.74695622       7.61933265       3.80376266       0.00744468       0.01421127       0.00836134
C        4.00558025       8.47512655       3.20925351       0.00702137       0.01230475       0.00038558
H        3.33951433       7.93289194       5.19670941       0.00932562       0.02273470       0.00392276
H        2.02660670       6.59821591       3.53240399       0.00745531       0.01236790       0.01548536
H        0.97001925       7.57885601       4.56288539       0.00842007       0.01914744       0.00965284
H        1.34660189       8.10790476       2.91173124       0.00619974       0.00739906       0.00506344
H        4.24718521       7.46666495       2.87096908       0.00354725       0.01138692       0.00087928
H        4.91243623       8.96965669       3.56195883       0.00919332       0.00940106      -0.00114033
H        3.61937264       9.01305813       2.34084821       0.00767967       0.01295431       0.00050108
H        2.53208819      10.29862654       3.95649751      -0.00610715       0.01206532      -0.00963822
O        9.28074205       1.62070751       8.52537753      -0.00456548       0.00698808       0.00074124
C        8.43052692       2.34330052       9.40359060      -0.00221944       0.00773318       0.00088084
C        6.96223812       2.00803466       9.16595836      -0.00296682       0.00673822       0.00809689
C        8.83133883       2.08722691      10.85395700       0.00042066       0.01278865       0.00098383
H        8.60518588       3.39521881       9.16575965      -0.00364994       0.00729197      -0.00305140
H        6.33218473       2.49813294       9.90780639      -0.00124406       0.02093111       0.00002788
H        6.64553751       2.35338343       8.18252396      -0.00377208      -0.01019316       0.00245705
H        6.79981107       0.93097298       9.22739837      -0.00516524       0.00807381       0.02651863
H        8.23034476       2.68168360      11.54733445       0.00522007       0.01984297      -0.00090178
H        9.88353807       2.34771996      10.98817595       0.00217645       0.00696513      -0.00213691
H        8.69061939       1.02729777      11.08961482      -0.00532617       0.01475023       0.00715696
H        9.08100570       0.67921442       8.67141278      -0.00668060       0.00551310      -0.00157495
O       11.68793313       6.39021915       2.48045740       0.00065887      -0.00049520       0.01231547
C       10.56311067       7.26745121       2.49470393       0.00027025      -0.00137687       0.00602296
C       10.92394182       8.66406481       2.97603062      -0.00294420      -0.00107187       0.00542605
C        9.88962905       7.27041043       1.13897741       0.00629029      -0.00353979       0.00317854
H        9.89040228       6.81029839       3.22114186      -0.00365955       0.00055218       0.00345257
H       10.02534685       9.27816979       3.06692412      -0.00619139      -0.00594749       0.00278618
H       11.42028031       8.63942569       3.94470716      -0.00399338      -0.00127400       0.00591987
H       11.59834510       9.14978061       2.26317349      -0.00397885       0.00244264       0.00689174
H        9.02024440       7.92636320       1.11277933       0.00321789      -0.00765853       0.00025207
H        9.58129782       6.26190811       0.86099790       0.01253731      -0.00517806       0.00284826
H       10.58121364       7.63407230       0.38487798       0.00832631       0.00030331       0.00673035
H       12.39578277       6.81285944       1.98377904       0.00266600       0.00251317       0.01803878
O        9.27854432       3.37291172       2.24710783       0.00064886       0.00346509       0.01405801
C       10.69179698       3.24621463       2.14610132      -0.00038987      -0.00471121       0.00914440
C       11.36423161       3.35479833       3.50055153       0.00420743      -0.01128414       0.00732011
C       10.96061494       1.91043481       1.47090908      -0.01039665      -0.00445300       0.00482018
H       11.08619086       4.04322833       1.50209344       0.00214460      -0.00533950       0.01002389
H       12.44871179       3.30703479       3.39609764       0.00364532      -0.01681646       0.00387553
H       11.13198770       4.31629480       3.95594377       0.01041973      -0.01127265       0.01030122
H       11.02947214       2.55765145       4.16524918       0.00203620      -0.01105687       0.00643554
H       12.01431250       1.80254854       1.19183713      -0.01242054      -0.00897278      -0.00023103
H       10.33460749       1.84772978       0.57501570      -0.01458474       0.00151989       0.00748077
H       10.69324265       1.08577045       2.14159721      -0.01172467      -0.00482487       0.00364683
H        9.06436369       4.02466960       2.93395164       0.00724378       0.00370724       0.01571999
O        5.98293841       2.91054917       5.19345746      -0.00612140      -0.01695681       0.00099066
C        6.71226915       1.70756788       4.87865818      -0.00623387      -0.01709652       0.00218467
C        8.15812135       1.82141747       5.32584673      -0.00553018      -0.01606819      -0.00060615
C        6.00912328       0.49121537       5.45256037      -0.00428259      -0.01663953       0.00587729
H        6.68254225       1.65589421       3.78916990      -0.00850654      -0.01925372       0.00248277
H        8.71919889       0.94138291       5.00593957      -0.00526002      -0.01513046      -0.00254656
H        8.61561957       2.70653887       4.88783217      -0.00640790      -0.01606365      -0.00142260
H        8.24764839       1.88339752       6.41275551      -0.00370099      -0.01631064      -0.00072455
H        6.53426534      -0.41990996       5.16514732      -0.00452967      -0.01653761       0.00509649
H        4.98156461       0.43055514       5.09339944      -0.00532733      -0.01772539       0.00942148
H        5.99264462       0.52672963       6.54308702      -0.00053150      -0.01535328       0.00587830
H        6.03764388       3.04042352       6.14629946      -0.00442552      -0.01417349       0.00060718
O        6.65246431      11.92159869       2.22155105      -0.01950872       0.00090098      -0.00449562
C        7.36229816      10.86106789       1.59017136      -0.01733506       0.00190209      -0.00349236
C        6.67368261      10.39082552       0.32221864      -0.01248354       0.00466950      -0.00719011
C        8.76523929      11.38271777       1.32904121      -0.01670498       0.00090781       0.00214711
H        7.44691296      10.01318962       2.28845408      -0.02039740       0.00062096      -0.00485545
H        7.24952910       9.59911809      -0.15976484      -0.01372601       0.00246850      -0.00534783
H        5.67729437      10.00459297       0.54611953      -0.01467620       0.00803401      -0.01148545
H        6.56927949      11.21459763      -0.38364100      -0.00713614       0.00537559      -0.00708161
H        9.33795714      10.59029935       0.83758833      -0.01774235       0.00019000       0.00287983
H        9.24441568      11.68839023       2.26252813      -0.01759584      -0.00050216       0.00289987
H        8.70755618      12.25197567       0.66266158      -0.01435657       0.00127145       0.00228761
H        5.72302451      11.67451260       2.28093290      -0.01770264      -0.00360006       0.00162811
O        3.63479796       4.77294111       2.05660335       0.00759056      -0.00454640       0.00928670
C        3.74065769       3.52764864       1.35263909       0.00557499       0.00139755      -0.00228358
C        4.64762858       2.56323626       2.09009477       0.00788331      -0.00431234      -0.01310426
C        2.37024865       2.93037168       1.08258961       0.00358278       0.00381172      -0.00248574
H        4.19799200       3.79976753       0.39762653       0.00330567       0.01161456      -0.00041902
H        4.74144572       1.62268541       1.54560435       0.00340074      -0.00038405      -0.02024105
H        5.63992869       2.99260221       2.22371619       0.00947149      -0.00738418      -0.01433768
H        4.24211495       2.33931385       3.08024175       0.01156750      -0.01048346      -0.01302004
H        2.46354194       2.06490264       0.42586119      -0.00722030       0.00744584      -0.00941344
H        1.71342650       3.66624648       0.61580842       0.00318196       0.00961368       0.00756449
H        1.91051942       2.58919607       2.01351753       0.00807400      -0.00260687      -0.00280470
H        3.43237049       4.56445310       2.97451722       0.01539458      -0.01165460       0.00923491
O        8.31479516       5.19733268       4.36963203       0.01233906       0.00130948       0.01301658
C        6.99938349       5.73113516       4.06952899       0.00747664      -0.01306343       0.00899830
C        6.38621047       6.35207316       5.30795612       0.00234953      -0.00802833       0.00399047
C        7.10549711       6.69564281       2.90787055      -0.00225039      -0.02205360       0.00073540
H        6.42271877       4.85255262       3.78610405       0.01553676      -0.02056724       0.01642083
H        5.37516902       6.70392336       5.09928123      -0.00181414      -0.02134380       0.00230870
H        6.34077989       5.61931962       6.11301294       0.01007439       0.00096135       0.01252928
H        6.96992653       7.21053092       5.64828330      -0.00643232       0.00170711      -0.00543945
H        6.12652752       7.05458900       2.60434618      -0.00679797      -0.03826487      -0.00389738
H        7.57531159       6.21481913       2.05218215       0.00566421      -0.02317752       0.00565660
H        7.70142073       7.56886526       3.19057271      -0.01451363      -0.01152372      -0.00623745
H        8.85731389       5.94507697       4.64601547       0.00458164       0.00787485       0.01078795
