146
Lattice="12.391152487513562 0.0 0.0 0.0 12.391152487513562 0.0 0.0 0.0 12.391152487513562" Properties=species:S:1:pos:R:3:forces:R:3 energy=-1188515.75 stress="-0.0007873044232837856 -0.00030451416387222707 -7.2026157340587815e-06 -0.00030451416387222707 0.0016628274461254478 0.00012988070375286043 -7.2026157340587815e-06 0.00012988070375286043 0.0004639669496100396" pbc="T T T"
Fm      12.42567528      10.73495708       0.88635593       0.02625078      -0.02667493      -0.00113611
O        1.75410318       8.02236009       0.48272791      -0.02022386       0.00761282       0.00599582
O        3.95166608       8.69693900       1.67893664       0.01128864      -0.04236257      -0.02152884
O        2.23548045      10.55984610       0.99061027       0.02615127      -0.01629913       0.03002331
O        3.64297036       9.25848981      -0.81618970      -0.03073472      -0.00422288      -0.00319302
Mn       2.91550861       9.11773482       0.57084160      -0.00531861      -0.01062927      -0.01350994
O        0.04709528       9.06297861       7.53986013       0.01311833       0.01333475       0.00135267
O        2.28388646      10.22811918       6.95349739      -0.00376272       0.03771979      -0.01737918
O        0.23193120      11.66656660       7.66243468      -0.01788479       0.01615167      -0.01327085
O        0.24289315      10.45118390       5.33886615      -0.01309043       0.00376731      -0.00648355
Mn       0.71126461      10.36048017       6.87489937      -0.00528713       0.01783364      -0.00747380
O        7.15116034       8.78600055       9.57325354       0.01068252       0.00428724       0.01625615
O        6.45951901      11.16521365      10.42340073      -0.01079190       0.00104558       0.00493526
O        5.52604804      10.27503797       8.15612220      -0.00002623      -0.01605455       0.00777912
O        8.02661078      10.91921597       8.37283411      -0.00500059       0.00654352       0.00837994
Mn       6.77386651      10.28064986       9.13559065      -0.00203582      -0.00047024       0.01066014
O        8.08227874       5.76197198      12.48455484       0.00318822       0.00652985       0.00071645
C        6.75977402       5.70956949      10.52059970       0.00002807       0.00747582       0.00264427
C        8.17284190       5.23838982      10.18092849      -0.00040497       0.00728073       0.00064528
C        6.99419831       6.45043721      11.82596061       0.00155798       0.00645594       0.00319463
C        8.68987952       4.85457359      11.55959904       0.00030130       0.00535787      -0.00021166
H        6.32383615       6.36010149       9.76494651      -0.00029432       0.00803956       0.00342169
H        6.10765104       4.84696280      10.67744282      -0.00000961       0.00738013       0.00218497
H        8.20894764       4.41068973       9.47277371      -0.00153165       0.00807571      -0.00050582
H        8.74559427       6.07337181       9.77116061      -0.00031751       0.00754276       0.00107017
H        7.28629631       7.48474228      11.62148234       0.00068608       0.00674891       0.00378694
H        6.13142111       6.45448094      12.49593917       0.00249290       0.00571109       0.00478101
H        8.39427479       3.82676134      11.81258992      -0.00196227       0.00586051      -0.00070570
H        9.77719016       4.92967439      11.65997117       0.00050956       0.00257677      -0.00090237
O       12.50376167       9.94981655      11.10102746       0.01118805       0.00357476      -0.01166552
C       10.72683076       8.67410313      10.10853618      -0.00051787       0.01596668      -0.00510675
C       10.22143528      10.04532091      10.56783255       0.00696927       0.01532523       0.00524813
C       12.15738270       8.59779511      10.65131409       0.00142184       0.00669925      -0.01261137
C       11.49687358      10.85854837      10.58210360       0.01017201       0.01077116       0.00239356
H       10.10011403       7.86186968      10.47672284      -0.00221273       0.01630583      -0.00733715
H       10.75021406       8.62826518       9.02097642      -0.00525121       0.02327861      -0.00551221
H        9.47537613      10.45938559       9.89235119       0.00397056       0.02101867       0.01193866
H        9.79032512       9.98855713      11.57300309       0.01334862       0.01113065       0.00798565
H       12.27665222       7.95560491      11.52153386       0.00143324       0.00419685      -0.01420364
H       12.87875605       8.31848041       9.88493589      -0.00301683       0.00532386      -0.01604474
H       11.80102260      11.19848992       9.58711421       0.00503841       0.01572940       0.00252599
H       11.47035941      11.72773892      11.26284837       0.01731707       0.00560153       0.00917290
O       10.15353697       7.02657556       5.57644882      -0.00233650       0.00024392       0.00363097
C        7.82664201       7.20537978       5.87851433      -0.00203472      -0.00154374       0.00944737
C        8.46413624       8.51591688       6.33007475      -0.00119337      -0.00251335       0.01137471
C        9.01508070       6.26098633       5.96609384      -0.00152862      -0.00166085       0.00294665
C        9.83137800       8.43673068       5.67442783      -0.00348866      -0.00029513       0.00628069
H        6.99071657       6.89552576       6.50288978      -0.00026540      -0.00384330       0.01068835
H        7.47605014       7.29120849       4.84512995      -0.00482760       0.00147327       0.01063752
H        7.91361568       9.40047321       6.01761931      -0.00260283      -0.00174075       0.01598820
H        8.54477698       8.53785690       7.41735397       0.00242237      -0.00548158       0.01123306
H        9.14102901       5.89745471       6.99506592       0.00113242      -0.00570342       0.00116050
H        8.94491691       5.38862277       5.30933818      -0.00296346       0.00103816      -0.00051713
H        9.78735050       8.85461070       4.66293399      -0.00822710       0.00069010       0.00686526
H       10.62763721       8.92909120       6.23263643      -0.00176579       0.00023460       0.00337759
O        7.94617121       9.96214198       3.06471557      -0.00106677      -0.01167619      -0.00983244
C        6.89766899      10.18776162       0.97552075      -0.01159572      -0.00627412      -0.00374407
C        7.21340243      11.59191507       1.48712567      -0.00345850      -0.00780344      -0.00499657
C        6.87441579       9.41547274       2.28026194      -0.00744638      -0.00673441      -0.00395685
C        8.18688601      11.31044224       2.63274799       0.00062209      -0.01135650      -0.00920463
H        5.97178020      10.12614477       0.41006481      -0.01568553      -0.00188036       0.00252393
H        7.70187106       9.83573508       0.32396446      -0.01702809      -0.00853461      -0.00915173
H        7.63358591      12.24756358       0.72628573      -0.00482331      -0.00917405      -0.00695316
H        6.30848840      12.06598361       1.86877457      -0.00052869      -0.00524523      -0.00157586
H        5.91845257       9.55456099       2.79705342      -0.00412607      -0.00240315       0.00193316
H        7.05420555       8.34248881       2.17507309      -0.01264179      -0.00753623      -0.00495212
H        9.23175374      11.37145220       2.30243105      -0.00072092      -0.01333401      -0.01301648
H        8.05136227      11.99339970       3.47584191       0.00603490      -0.01203296      -0.00773466
O        3.37652587       8.85045014       4.59565834       0.00834081       0.00216365      -0.01149890
C        4.26000678       6.82903256       5.36612135      -0.00479540       0.00660062       0.01332483
C        2.73884020       6.69573728       5.36015933      -0.00519028       0.01111501       0.00438172
C        4.40757464       8.34170009       5.44380079      -0.00100380       0.00675410       0.00272405
C        2.34070788       7.87511626       4.47391409       0.00222841       0.00758868      -0.00401455
H        4.74240467       6.29983174       6.18700621      -0.01200493       0.00966749       0.01970573
H        4.67343465       6.46651784       4.42056081       0.00014851      -0.00134104       0.01858026
H        2.37986595       5.74358101       4.96705184      -0.00528143       0.01003520       0.00746203
H        2.34690231       6.81585640       6.37134037      -0.01083912       0.01722156       0.00146082
H        4.27134733       8.70845879       6.46887210      -0.00935492       0.01532960      -0.00178206
H        5.36383520       8.71775178       5.07268772       0.00293112       0.00198323       0.00809470
H        2.28247147       7.57253187       3.41944005       0.00045151       0.00119512      -0.00213408
H        1.38853480       8.32625948       4.76581943       0.00487053       0.01493615      -0.00699899
O        7.25380659       2.53046150       7.82387715      -0.01563871       0.00500637      -0.01182033
C        5.22672539       1.36677620       8.34606340      -0.00723022      -0.00430822       0.00136748
C        5.64315219       1.11011101       6.89646235      -0.00695318      -0.01289368       0.00271896
C        6.19715774       2.46676511       8.79420092      -0.00811797      -0.00060937      -0.00427020
C        7.13494624       1.38876254       6.96182224      -0.00870270      -0.00308472      -0.00150871
H        4.18666986       1.67780551       8.43910895      -0.00761643      -0.00484674      -0.00125256
H        5.36157376       0.46433075       8.94134553      -0.00687138      -0.00030711       0.00743681
H        5.40750075       0.09945853       6.56802548      -0.00083420      -0.01715797       0.01140361
H        5.15824842       1.82843628       6.22921174      -0.01199219      -0.02053264      -0.00206721
H        5.72510224       3.45314331       8.81933689      -0.01088068      -0.00217420       0.00122777
H        6.61576584       2.25613296       9.78498572       0.00028503      -0.00117972      -0.00797790
H        7.66969641       0.53068367       7.38502577      -0.00272289       0.00444371       0.00582170
H        7.58427128       1.65708359       6.00286111      -0.01110478      -0.00884254      -0.00423059
O       10.96002472       9.01045338       1.64629802       0.00134647       0.00494955       0.01150621
C       11.73431441       7.05302217       2.73439777       0.00397715       0.00327110       0.00437365
C       10.27213052       6.87262490       2.32396156       0.00487143       0.00107300       0.00248310
C       11.90026970       8.56098802       2.67114245      -0.00146630       0.00356764       0.01341300
C       10.11520041       7.90340080       1.22876698       0.00440624       0.00445276       0.00566491
H       11.93358734       6.67514871       3.73478254       0.00608251      -0.00310447       0.00154236
H       12.40384623       6.57149533       2.01687160       0.00606063       0.01400381      -0.00052348
H       10.02551952       5.87469447       1.96621558       0.00722623       0.00166866      -0.00070126
H        9.62330084       7.10906045       3.16717516       0.00370753      -0.00243393       0.00260183
H       11.65522079       9.05654550       3.61105506      -0.00600973      -0.00140122       0.01452404
H       12.90888577       8.86713663       2.36445334      -0.00036451       0.00751416       0.01995462
H       10.47605190       7.52628066       0.26949507       0.00735641       0.00895821       0.00492257
H        9.10597413       8.28639843       1.10889693       0.00392783       0.00338918       0.00635737
O       12.05293563       0.61356702       1.97501476      -0.00440085      -0.02871431      -0.00710392
C       11.45439406       2.51577615       3.26690347       0.01261523      -0.02109432      -0.01136163
C       10.88528758       1.24904174       3.90723075       0.01213282      -0.01550202      -0.00150734
C       11.82843774       2.03979556       1.86317778      -0.00053206      -0.02882779      -0.01188982
C       11.81257717       0.18998242       3.34476321       0.00363395      -0.02150044      -0.00319895
H       10.74921133       3.34633061       3.23906144       0.01700838      -0.01744595      -0.00941075
H       12.34009721       2.84739978       3.81113427       0.01857519      -0.02406479      -0.01943369
H       10.89119626       1.26358075       4.99534554       0.02241637      -0.01124995      -0.00180027
H        9.86154920       1.08025613       3.56570083       0.00830808      -0.01162581       0.00816785
H       11.01263301       2.19694719       1.15312599      -0.00524738      -0.02930452      -0.00651136
H       12.73186091       2.51286053       1.47463795      -0.00222361      -0.03369980      -0.02082396
H       12.75787502       0.14313107       3.88989424       0.00736582      -0.02216699      -0.00965354
H       11.38778791      -0.81633363       3.31315703       0.00042439      -0.01987061       0.00465541
O        6.86904558       2.12226615       3.10963725       0.00884169       0.00183645      -0.00702901
C        6.45489061       4.12820260       4.26621874       0.00220408      -0.00291407      -0.00044000
C        5.18225013       3.74718989       3.51055857       0.00458694      -0.00378931      -0.00380454
C        7.49865471       3.34900642       3.48680082       0.00533123       0.00211060      -0.00142348
C        5.44259262       2.28315137       3.16169106       0.00834781      -0.00223929      -0.00711724
H        6.65073743       5.19789641       4.27159560      -0.00086537      -0.00225237       0.00215701
H        6.41450742       3.78275682       5.30256945       0.00145590      -0.00625972      -0.00156438
H        4.27459060       3.88228077       4.09705870       0.00344537      -0.00741909      -0.00475058
H        5.09161699       4.35069818       2.60421124       0.00560471      -0.00168431      -0.00255069
H        7.80517144       3.90160331       2.58751086       0.00469668       0.00606868       0.00089955
H        8.38737528       3.10581526       4.07329127       0.00515941       0.00227360      -0.00090411
H        5.05000665       1.61094032       3.93071231       0.00975406      -0.00460294      -0.00837904
H        5.01574349       1.98999837       2.19945293       0.00914757      -0.00172313      -0.00766081
O        2.09141565       4.95714098       9.12844235       0.00301468       0.00435331      -0.00097626
C        0.60163361       4.52689773      10.91447892      -0.00073862       0.00881791      -0.00201327
C        2.03224854       4.54607935      11.45185445      -0.00152473       0.01008874      -0.00002080
C        0.83576932       4.33649420       9.41868646       0.00088322       0.00727774      -0.00184077
C        2.74774791       5.31692814      10.35191826      -0.00043822       0.00914356      -0.00033623
H       -0.01948730       3.73870257      11.34047852      -0.00046884       0.00912419      -0.00075699
H        0.12003835       5.48845124      11.10804599      -0.00160254       0.00883728      -0.00337120
H        2.12964803       5.03308567      12.42161582      -0.00590905       0.01025315       0.00038013
H        2.42331389       3.52744741      11.52611798      -0.00033782       0.01061094       0.00263422
H        0.89420062       3.27042313       9.16413313      -0.00059556       0.00687164      -0.00054144
H        0.06361790       4.79813972       8.79771330       0.00191253       0.00844961      -0.00258574
H        2.65980273       6.39721595      10.51635200      -0.00287355       0.00952142      -0.00358612
H        3.80558062       5.06721687      10.25845963       0.00035477       0.01118740       0.00241793
