146
Lattice="12.513332383704611 0.0 0.0 0.0 12.513332383704611 0.0 0.0 0.0 12.513332383704611" Properties=species:S:1:pos:R:3:forces:R:3 energy=-741870.75 stress="-0.0009034950635395944 -5.972544749965891e-05 1.595028425072087e-05 -5.972544749965891e-05 -0.001019696006551385 1.2589023071996053e-05 1.595028425072087e-05 1.2589023071996053e-05 -0.0010091167641803622" pbc="T T T"
Fr      12.39013477      12.63993120      -0.86125192      -0.01719249       0.01401497       0.01625904
O       10.97778260      12.02914635       3.29302767      -0.01043755       0.03414434       0.01876169
O       11.70547331      11.14882734       1.38767374      -0.01214522       0.03717756       0.02976051
O       11.06810733      13.31351959       1.44733924       0.00612903       0.03551304       0.01666795
C       11.26768971      12.17240032       1.94199069       0.00631276       0.00325726       0.01563501
H       10.66022317      12.88703367       3.58982279      -0.00391957       0.03325921       0.01688424
C        5.42520276       3.44193576      11.76176731      -0.00127808      -0.00147283       0.00452392
C        6.65505661       4.33960629      11.77625131      -0.00331280       0.00143665       0.00812733
C        4.12301218       4.22841589      11.84675470      -0.00239977      -0.00445366       0.00971396
C        7.97515411       3.59190147      11.63851373      -0.00167048       0.00397593       0.00144044
C        2.87963385       3.34811008      11.83564236       0.00005829      -0.00679858       0.00696680
C        9.16701110       4.53965996      11.61264133       0.00841540      -0.00109333       0.00147373
H        5.42751277       2.84043305      10.84527067       0.00007270       0.00312765       0.00158036
H        5.47960927       2.72691821      12.59009976       0.00200449      -0.00574739       0.00053546
H        6.66599249       4.92726090      12.70283021      -0.00225910      -0.00460380       0.01104236
H        6.57471525       5.06931503      10.96127699      -0.00562236       0.00560500       0.01291257
H        4.13072662       4.84296601      12.75342005      -0.00178586      -0.00900225       0.01261336
H        4.08100599       4.93261187      11.00955404      -0.00361967      -0.00070389       0.01304731
H        8.07982213       2.88024204      12.46443908       0.00358312       0.00144361      -0.00076354
H        7.95642060       2.99398727      10.72017510      -0.00183226       0.00805257      -0.00171533
H        2.85976421       2.71812279      10.94303602       0.00023000      -0.00299436       0.00492436
H        1.96960868       3.95104593      11.84292182      -0.00071330      -0.00880441       0.01057197
H        2.85718256       2.69201014      12.70910312       0.00112283      -0.00973494       0.00414094
H        9.09872606       5.22212292      10.76230014      -0.00425608       0.00721562       0.00502896
H        9.20349230       5.14663080      12.52036461      -0.00011060       0.00171375       0.00338896
H       10.11582446       4.00720360      11.53285097      -0.02241275       0.02424492      -0.00094564
C        5.20382467       8.17348991       3.46398247       0.00266275      -0.00501394      -0.00399536
C        3.82502021       8.21779683       2.82421435       0.00332707      -0.00296006      -0.00540109
C        5.50967311       6.85057247       4.15338239       0.00101805      -0.00492707      -0.00322309
C        3.50608388       9.55775857       2.17686446       0.00593534      -0.00153765      -0.00380392
C        6.91699001       6.79199682       4.73006333      -0.00002417      -0.00509502      -0.00070637
C        2.08952418       9.62246633       1.63098453       0.00765237       0.00281034      -0.00813831
H        5.96709563       8.37357950       2.70318706       0.00359309      -0.00610186      -0.00322095
H        5.28621132       8.98853274       4.19420552       0.00314025      -0.00509413      -0.00406149
H        3.06761985       7.99863759       3.58161646       0.00221545      -0.00354523      -0.00664693
H        3.74133559       7.42127383       2.07451587       0.00380562      -0.00157624      -0.00680375
H        4.77421790       6.68480463       4.94935955      -0.00020371      -0.00444773      -0.00437957
H        5.36826437       6.03265974       3.43786929       0.00206110      -0.00520566      -0.00301936
H        3.64802404      10.35436091       2.91590932       0.00560791      -0.00318129      -0.00186789
H        4.22752760       9.75475552       1.37660754       0.00830071      -0.00111225      -0.00142798
H        7.66651071       6.85310088       3.93877630       0.00152878      -0.00648745       0.00075728
H        7.09282895       5.86915164       5.28545101      -0.00164360      -0.00441806       0.00079258
H        7.09720173       7.62726360       5.41068989      -0.00080951      -0.00446638      -0.00135167
H        1.90376071       8.82533882       0.90697911       0.00844206       0.00297335      -0.00839751
H        1.34806459       9.52219516       2.42567080       0.00551733       0.00314094      -0.00999564
H        1.88637974      10.57479800       1.14145060       0.01281536       0.00322536      -0.00941089
C        3.11450327       2.79133471       3.72356778      -0.00126243      -0.00330131      -0.00611371
C        4.54179984       3.02831368       4.20467996      -0.00173818      -0.00701925      -0.00350505
C        2.06431621       3.06441527       4.79334271      -0.00179119      -0.00659317      -0.00609940
C        5.58832887       2.78410676       3.12412477      -0.00096624      -0.00375082      -0.00328988
C        0.63684459       2.82900460       4.32048323      -0.00118113      -0.00142328      -0.00995301
C        7.01409084       3.05150306       3.58782551      -0.00157654      -0.00607719      -0.00059679
H        2.91736121       3.42973484       2.85312800       0.00019709       0.00081739      -0.00328892
H        3.01629613       1.75670077       3.37218923      -0.00201797      -0.00155360      -0.01090257
H        4.75171058       2.37726114       5.06109757      -0.00350464      -0.01067719      -0.00595923
H        4.63256076       4.05587839       4.57611687      -0.00117922      -0.00869307       0.00061176
H        2.26984848       2.43868651       5.66691538      -0.00449206      -0.01166761      -0.00928259
H        2.16576948       4.09954172       5.13181440      -0.00044536      -0.00864783      -0.00061830
H        5.49987716       1.75042622       2.77279463      -0.00121072      -0.00236169      -0.00693537
H        5.36071725       3.41786044       2.26011320       0.00031673      -0.00059465      -0.00114986
H        0.39513947       3.46367991       3.46510132       0.00102742       0.00490406      -0.00580946
H       -0.08628006       3.04956274       5.10889181      -0.00245924      -0.00788485      -0.00958827
H        0.49098874       1.79129370       4.00984008      -0.00099127       0.00119749      -0.01777890
H        7.15312786       4.10460296       3.83706040      -0.00123965      -0.00705290       0.00274267
H        7.25331228       2.47029018       4.48169690      -0.00327285      -0.00896505      -0.00221190
H        7.74399552       2.79446012       2.81827114      -0.00067747      -0.00417828      -0.00040728
C        8.54651021      10.06328048       4.18023395       0.00204849       0.00083087      -0.00255957
C        9.66199247       9.06954999       3.88355829       0.00417960       0.00454761      -0.00609496
C        8.56319737      10.60369849       5.60484717       0.00275210      -0.00172123      -0.00180542
C        9.63009594       8.55648328       2.44807235       0.00051764       0.00376648      -0.00561696
C        7.44268165      11.60197241       5.87109423       0.00163519      -0.00391492       0.00071425
C       10.76588975       7.59347948       2.13650951      -0.00178373       0.00167769      -0.00713170
H        8.62152137      10.90012808       3.47806368      -0.00131155       0.00232971      -0.00103779
H        7.57705012       9.59363241       3.98840697       0.00315368      -0.00161919      -0.00200069
H        9.59394758       8.22249276       4.57841099       0.00902694       0.00446486      -0.00568990
H       10.62960742       9.54775550       4.06651947       0.00328374       0.00747474      -0.00937412
H        8.48241170       9.76772113       6.30943779       0.00457502      -0.00295413      -0.00320868
H        9.53407816      11.07258765       5.80173561       0.00215986      -0.00064398      -0.00216885
H        8.66553329       8.07512567       2.25117199      -0.00046772       0.00470084      -0.00284308
H        9.69590741       9.41258950       1.77074998      -0.00010559       0.00318667      -0.00602825
H        7.51178666      12.45648891       5.19306521      -0.00015735      -0.00289741       0.00180405
H        7.46932100      11.98495706       6.89323796       0.00199699      -0.00530309       0.00110239
H        6.46295358      11.14337550       5.71390332       0.00224690      -0.00503753       0.00091418
H       11.72748490       8.09913532       2.23962981      -0.00051980      -0.00063877      -0.00876889
H       10.76199762       6.73889447       2.81828562      -0.00257866       0.00205070      -0.00681773
H       10.70357784       7.20681566       1.11714717      -0.00435979       0.00113393      -0.00674769
C        1.97445969       9.72741063       7.32742617       0.00002089      -0.00226117       0.00030357
C        1.93502722       8.84810204       6.08553559      -0.00469029      -0.00048799      -0.00075805
C        3.06283457      10.79260842       7.27911204       0.00095093      -0.00335552      -0.00265640
C        0.87958879       7.75079606       6.15577850      -0.00349230      -0.00136097       0.00146243
C        3.18027621      11.57426807       8.57813247       0.01006960      -0.00700897      -0.00134435
C        0.87931714       6.84270584       4.93487019      -0.00478973      -0.00138395       0.00156188
H        0.99650489      10.20576849       7.46881853       0.00092393      -0.00185704       0.00428140
H        2.13431678       9.09310964       8.20847505       0.00265005      -0.00355448      -0.00122020
H        2.92289559       8.39138244       5.94599596      -0.00507954       0.00025673      -0.00524416
H        1.76258204       9.46991218       5.19916379      -0.00848873       0.00059667       0.00094882
H        4.01905614      10.31285707       7.05719965      -0.00098982      -0.00416684      -0.00873295
H        2.86831708      11.47754164       6.44735366      -0.00247097      -0.00124910       0.00013995
H        1.05086647       7.15315272       7.05837541      -0.00117514      -0.00116912       0.00101787
H       -0.10876259       8.20848627       6.27399914      -0.00364792      -0.00249165       0.00334233
H        2.27635747      12.15725541       8.76056059       0.01090322      -0.00800756       0.00725223
H        4.01898579      12.26889584       8.56077363       0.00904146      -0.00587220      -0.00614667
H        3.32236642      10.89952875       9.42526232       0.02042215      -0.01085210      -0.00578009
H        0.68174017       7.40905227       4.02335496      -0.00653430      -0.00165835       0.00193736
H        1.84890127       6.35368717       4.81312867      -0.00473663      -0.00081734       0.00023452
H        0.11989655       6.06194861       5.01064746      -0.00409566      -0.00188138       0.00285160
C       10.63451866       7.27071395       8.95187049       0.00200737      -0.00285032       0.00039074
C        9.84756436       6.38375412       7.99699327       0.00267643      -0.00293708       0.00003205
C        9.92877974       8.59164572       9.22785431       0.00107491      -0.00354892       0.00080147
C       10.49219481       5.03274771       7.71484131       0.00319791      -0.00251961      -0.00008795
C       10.70546003       9.49808933      10.17196082      -0.00091413      -0.00348166       0.00200069
C        9.64731269       4.17649166       6.77959971       0.00393438      -0.00257438      -0.00051996
H       10.79768570       6.74122823       9.89788584       0.00234226      -0.00317684       0.00000963
H       11.62862311       7.46946524       8.53776206       0.00175491      -0.00199199       0.00061724
H        9.69427181       6.91826744       7.05038135       0.00278658      -0.00281341       0.00016499
H        8.84672943       6.21862364       8.41068436       0.00268632      -0.00338621      -0.00030632
H        9.75857426       9.11281557       8.27987168       0.00145244      -0.00312813       0.00107449
H        8.93862286       8.39032185       9.64894527       0.00082392      -0.00467247      -0.00026901
H       11.48817029       5.18582273       7.28459295       0.00315046      -0.00205711       0.00025283
H       10.64653169       4.50422511       8.66167264       0.00300421      -0.00260240      -0.00020435
H       10.85004444       9.02264349      11.14423762      -0.00177710      -0.00341424       0.00189352
H       10.17493639      10.43825372      10.33343904      -0.00232062      -0.00421116       0.00150050
H       11.69221238       9.72115683       9.75743062      -0.00055447      -0.00160006       0.00378156
H        8.64885356       4.01811536       7.19603194       0.00386031      -0.00283759      -0.00118476
H        9.52213636       4.66295652       5.80922212       0.00438834      -0.00263150      -0.00051571
H       10.09342342       3.19574511       6.60609988       0.00424691      -0.00242434      -0.00030291
C        4.85281720       4.72958082       8.13973180      -0.00387985       0.00516754       0.00285145
C        4.73473330       6.24599823       8.19571283      -0.00250053       0.00523597       0.00165209
C        3.50203534       4.02864409       8.13274171      -0.00398535       0.00544450       0.00189613
C        6.08179091       6.94826883       8.29176811      -0.00186247       0.00367813       0.00396671
C        3.61960359       2.51377594       8.14269685      -0.00397917       0.00543892      -0.00015530
C        5.97821644       8.45942094       8.16212116       0.00063735       0.00343478       0.00052371
H        5.41764166       4.44167111       7.24420183      -0.00312404       0.00432928       0.00370526
H        5.44350974       4.37668402       8.99330410      -0.00498194       0.00537606       0.00359243
H        4.11006321       6.53390840       9.05001196      -0.00378838       0.00642665       0.00022617
H        4.20162503       6.59794312       7.30379144      -0.00026879       0.00532217       0.00049075
H        2.92292405       4.35702572       9.00194096      -0.00385897       0.00443576       0.00233859
H        2.93505755       4.35003691       7.25434298      -0.00397860       0.00657869       0.00234899
H        6.55700484       6.68645512       9.24333917      -0.00513428       0.00521366       0.00592220
H        6.73992795       6.56173203       7.51020679      -0.00006811       0.00119029       0.00677228
H        4.17185554       2.15192490       7.27316299      -0.00465922       0.00694270      -0.00108273
H        2.64187976       2.02918366       8.13581409      -0.00383624       0.00529002      -0.00015011
H        4.15366439       2.16833231       9.03031959      -0.00313263       0.00428669      -0.00120424
H        5.55035433       8.72988322       7.19401258       0.00717539       0.00224235      -0.00261417
H        5.33206848       8.88071884       8.93602525      -0.00370927       0.00521759      -0.00436273
H        6.95323998       8.94315124       8.23878224       0.00059256       0.00252756       0.00592373
