146
Lattice="16.06120800385349 0.0 0.0 0.0 16.06120800385349 0.0 0.0 0.0 16.06120800385349" Properties=species:S:1:pos:R:3:forces:R:3 energy=-1357220.5 stress="-0.0004145127604715526 -0.0005243497726041824 0.00010339496293454431 -0.0005243497726041824 -0.0003217383928131312 0.0005803394014947116 0.00010339496293454431 0.0005803394014947116 -0.00031925993971526623" pbc="T T T"
Gd      16.29967260      16.52324210      -0.98079268      -0.00564519      -0.00624943       0.00659055
B        8.01457886      15.05047882       8.19991526       0.00485362      -0.00931821       0.00342560
F        7.17004787      15.59904318       9.18934314       0.00138664      -0.01229203       0.00279057
F        7.84624268      15.75985882       7.00372156       0.01660126       0.00546396       0.01119304
F        9.34886171      15.14179813       8.62962336       0.00330639      -0.01704846       0.01321179
F        7.67776660      13.70075851       7.99926067       0.00133106      -0.00352979      -0.00935540
B        1.44303801      15.33651206       8.88532534      -0.01838607       0.00533006       0.02820726
F        0.30712521      15.52307041       8.08602457      -0.02553439       0.00882018       0.03704166
F        1.47058225      14.00269786       9.34888612      -0.01599785       0.00297451       0.01889020
F        2.60158442      15.62265011       8.18447065      -0.02081704       0.00283927       0.02284741
F        1.33167537      16.19736862      10.01648026      -0.00334257       0.00000787       0.02973449
B        6.67083536      13.53184669       3.59202255       0.00709699       0.02606044       0.02448563
F        6.77098873      13.15447814       4.84278048       0.00574617       0.00834242      -0.02963883
F        3.99867444      13.78563746       3.96934223      -0.00005949      -0.00030282      -0.00694841
F        6.81999680      14.78907932       3.24308083      -0.00450332      -0.02918571       0.00969747
F        6.40503525      12.63350295       2.66043455       0.00559175      -0.00889823      -0.01257873
Cl      11.41248944      14.67518778      13.43937742       0.01169668      -0.00120803      -0.02057149
Cl      14.23027973      15.50653693      13.51904840       0.01326394      -0.01055123      -0.00517988
Cl      13.43541663      12.76045834      14.26866598       0.00250841      -0.00996763      -0.02321741
C       13.03070253      14.08329856      13.22799447       0.01069069      -0.00331727      -0.01749067
H       13.22727531      13.84991576      12.18626431       0.01356779       0.00110945      -0.01710473
Cl      14.95278070      11.20965109       1.28651388       0.00395313       0.00340097      -0.00382945
Cl      12.08580915      10.69800819       1.15677786       0.00511998       0.00583508      -0.02265003
Cl      13.91161375       8.54505447       1.90930779      -0.00246128       0.00661333      -0.00284486
C       13.60237824      10.30237843       1.96724634      -0.00132111       0.00677790      -0.01018375
H       13.50425854      10.56986503       3.01274846      -0.01139860       0.01042613      -0.01205283
Cl       6.54025711       5.60293556       1.88125735       0.00426206      -0.00146748      -0.00726834
Cl       6.30674227       5.88045256      -1.00519454      -0.01055470       0.01252446      -0.00297233
Cl       4.15042196       4.62669706       0.51290401       0.00325847      -0.00854975      -0.00288246
C        5.43690769       5.85563566       0.52939934      -0.00469027      -0.00029594       0.00015784
H        4.96298547       6.82058294       0.66407094      -0.01025626      -0.00418353       0.00823132
Cl      14.25893989       1.94448721       0.46193876      -0.02219836      -0.00257268      -0.01537585
Cl      14.19672785       2.17897405       3.39955487       0.00237103       0.01215760      -0.01792626
Cl      12.57624584       3.95641203       1.77537238      -0.01961449      -0.00252458      -0.01221660
C       13.24302099       2.35826646       1.97236292      -0.01038505       0.00110969      -0.01052392
H       12.44570682       1.62179337       1.93864528      -0.00823629      -0.00119664       0.00104283
Cl       4.35599462      10.82247924      -0.01521393      -0.00149165      -0.02268480      -0.02213493
Cl       2.74682336       8.57897692       0.91872909      -0.00858278      -0.00385839       0.00733779
Cl       5.22183358       9.27355156       2.30267119      -0.00526604       0.00547075      -0.00265160
C        3.84213147       9.90505690       1.39826420      -0.00295822      -0.00318815      -0.00986200
H        3.28485249      10.56292705       2.05517986       0.00067268       0.00995374      -0.02066350
Cl      10.67532939       4.26854682      11.52215517       0.01883262      -0.01956610       0.03190407
Cl       8.00402264       5.22659193      12.16924933       0.01445371      -0.00137943      -0.00617696
Cl       8.42583958       2.40738095      11.51362415       0.00655603      -0.00088716      -0.00469828
C        9.12479305       3.84175594      12.24826280       0.00414315      -0.00773957       0.00726855
H        9.29723249       3.64396203      13.29855204      -0.01262886      -0.01113342       0.00855991
Cl      -0.22879095       3.60542704      14.06935313      -0.00172821      -0.00333923      -0.00302285
Cl      -0.42156302       5.28087027      16.43579945       0.00370067      -0.02955961       0.01067990
Cl       2.25461582       1.74610614      15.73473625      -0.01800418       0.01906358       0.00012874
C        0.48157776       4.54333202      15.25785620      -0.00074615      -0.00784752      -0.00266060
H        1.54249800       4.73076347      15.21072926      -0.00288224      -0.00178812      -0.00190901
Cl       8.00400907      10.55843452       8.89826539       0.01440358       0.01250198      -0.01357293
Cl       8.77185517       7.86605569       9.79899460      -0.01926465       0.00627470      -0.01057480
Cl      10.80281842       9.88178732       9.30387310       0.00210363      -0.01097057       0.01588593
C        9.13088572       9.61218446       9.83716903      -0.00545956       0.00322109      -0.00222452
H        9.06288386       9.91912262      10.87361411      -0.01335898       0.00064723      -0.00244027
Cl       4.99488631       3.01138905      12.81996470       0.00232843      -0.00120811      -0.00634307
Cl       3.17954999       5.30759897      12.91440890      -0.00819062      -0.00779498       0.00084797
Cl       2.29589833       2.76593339      11.74613988       0.00342865      -0.00809377       0.00030547
C        3.31857933       3.53847274      12.96584165       0.00129433      -0.00690593       0.00042597
H        2.97152326       3.21110952      13.94053484       0.00627170      -0.00854073       0.00193396
Cl       1.47445948      10.37302428       8.26767678      -0.00766623       0.01214868       0.00362677
Cl       4.36659566      10.66837998       8.21785760      -0.00697160       0.00919989       0.00747078
Cl       2.69420352      12.42427943       6.59589038      -0.01338887       0.00800461       0.01104391
C        2.81214046      11.52319976       8.09322878      -0.00513611       0.00626716       0.00686122
H        2.72998881      12.23487766       8.90371692      -0.00510786       0.00890470       0.00780547
Cl       7.95429177       9.58209921      15.86206058      -0.00342882       0.00307641      -0.00378862
Cl       9.19278885       8.34354571      13.52713141       0.00335123       0.00588652      -0.00191304
Cl       9.58732266      11.18918875      14.04999354       0.01438626       0.00062877       0.00987037
C        9.34511819       9.58837408      14.77422365       0.00230455       0.00024897       0.00344430
H       10.22682607       9.36138560      15.36128944      -0.00253978      -0.00633869       0.00798066
Cl      -0.24435696       7.07222000      11.99007160       0.00697662      -0.00389993      -0.00320980
Cl      -0.80946469       4.64743393      10.47709808       0.01122522       0.00309137      -0.01511517
Cl       0.67233960       6.82933862       9.22353892       0.00459141       0.01237348      -0.00507921
C        0.33202314       5.96422882      10.72559307       0.00825819       0.00405057      -0.00945479
H        1.26588188       5.53993985      11.07349486       0.00928745       0.00435674      -0.01238309
Cl      13.29304582      13.59246633       3.74600508       0.00761658      -0.00456047       0.00249059
Cl      12.21033515      14.63022004       1.22900844       0.00968733      -0.00923085       0.00128821
Cl      11.59151717      15.96590739       3.74050092       0.01289153       0.00182819      -0.00036870
C       12.80327341      15.02347648       2.85053107       0.00959824      -0.00511627       0.00034036
H       13.68893151      15.63819259       2.72933308       0.01131403      -0.00810836      -0.00238326
Cl       3.49520980      14.82888485       1.69594924      -0.01084901       0.01850863       0.00380337
Cl      -0.10183024      14.72495261       0.62505626      -0.01610672       0.01158538       0.02500817
Cl       1.79010415      12.88258025       3.06211900       0.00149378       0.00395751      -0.00741777
C        2.93867911      14.22102753       3.25304006      -0.00263074       0.00573324       0.00183819
H        2.44237476      15.02386629       3.79188140       0.00107729       0.00171694       0.00866958
Cl       7.90905992       2.07404835       4.08172695       0.00001788      -0.00888298       0.01675801
Cl       5.94436485       1.66115284       1.95487585       0.02104570      -0.00138575       0.00218242
Cl       5.23023140       1.14558813       4.74221802      -0.00923750       0.00595510      -0.00484893
C        6.19737330       2.13536886       3.64287668       0.00694545      -0.00201422       0.00159110
H        5.86538957       3.16179359       3.74327632       0.00680491      -0.00130922       0.00016364
Cl      13.63087810       4.96664005       5.88209273      -0.00438690      -0.01377431       0.01883735
Cl      10.91152143       3.97554667       5.51442847       0.00398758      -0.02223915      -0.00583199
Cl      11.88223837       4.60278224       8.19077193      -0.03708243       0.02264726      -0.00301945
C       11.96074352       5.01930770       6.48012703      -0.01155845      -0.00541442      -0.00716809
H       11.60520990       6.03540688       6.37247504      -0.00883317      -0.00649062      -0.02773296
Cl       3.93940092      -1.63344409      11.25640991      -0.00568767      -0.01806933       0.02279508
Cl       1.71070799      -0.75442363      12.98596821      -0.00059414      -0.01394980       0.02170129
Cl       4.51658031      -0.61532351      13.91406747       0.00034717       0.01141518       0.00875622
C        3.52536218      -0.51401272      12.47505970      -0.00682545      -0.00745349       0.01320407
H        3.51613275       0.49768220      12.08417846      -0.01367802      -0.01193273       0.00263689
Cl      -0.66066083      10.26104934       5.16016981      -0.00106359       0.00996903      -0.00577636
Cl       2.09436485       9.47713226       4.63945627      -0.00078899       0.00853218       0.00083705
Cl       0.20420727       7.54373224       5.73541604      -0.00541227       0.00744909      -0.00890628
C        0.42211558       8.94618313       4.67328400      -0.00144545       0.00968366      -0.00507412
H        0.14224476       8.63940893       3.67351286       0.00062940       0.01232135      -0.00625607
Cl       3.88174918       7.04809202       6.90909451       0.00288291       0.00755087       0.00154144
Cl       3.72778198       6.30772681       4.09285806       0.00489368       0.00950406       0.00198162
Cl       4.36620536       4.28137847       6.07475387       0.00111809       0.00759858       0.00087076
C        3.47240929       5.77766323       5.76297051       0.00238808       0.00873414       0.00129999
H        2.41915773       5.55383440       5.87102870       0.00236288       0.00904714      -0.00002057
Cl       2.92323783       8.84803951      11.68703684       0.00015301      -0.00134747       0.02034698
Cl       5.74897178       8.23140260      11.29597022      -0.00096405       0.00822186       0.00812390
Cl       4.94044331      10.91987347      12.08546724      -0.00626379       0.00143391       0.02485152
C        4.57903281       9.19792748      12.20892741       0.00004535      -0.00052097       0.01752578
H        4.66232367       8.91395154      13.25039658       0.00397906      -0.00296317       0.01656115
Cl      13.56430546      12.02939492       8.16835132      -0.01255073      -0.00333339       0.00470167
Cl      14.43348898       9.51554904       9.37760050      -0.00377786       0.00452703       0.01073608
Cl      15.14105733      12.06693399      10.61700222      -0.01403165       0.01187533       0.00227696
C       13.93159426      11.18766318       9.67504060      -0.01035430       0.00278950       0.00684093
H       13.02230793      11.13668727      10.25982515      -0.01075384       0.00118002       0.00588545
Cl       9.42797452       8.05926002       6.25722316       0.00817573       0.00600255      -0.00264999
Cl       6.68482015       8.71187968       5.54441596       0.01097906      -0.00125822      -0.00870726
Cl       7.66079141       5.97287818       5.25643006       0.01112033      -0.00209549      -0.00426510
C        7.76154055       7.47264454       6.18589452       0.00935466       0.00419499      -0.01212429
H        7.44837854       7.25784034       7.20041297      -0.00301406      -0.00038701      -0.00296849
Cl       0.79149338       4.08020139       4.42910709       0.00072160       0.00121444       0.01114557
Cl       0.79437691       1.46554098       5.77128152      -0.00708780      -0.00459498       0.00299013
Cl       1.77441442       1.72392505       3.02890242       0.00115488       0.00804059       0.00278950
C        1.60681428       2.49214518       4.61496448      -0.00229257       0.00026403       0.00787317
H        2.60647766       2.70600624       4.97211831      -0.00235450      -0.00098680       0.00898233
Cl      13.61214270       1.86993439      11.03093359       0.03450613      -0.00262243      -0.01142856
Cl      12.65508197      -0.54605214       9.72180056       0.01457036      -0.00131017      -0.01339999
Cl      13.97921211       1.51730639       8.16174280      -0.02417853       0.02124467      -0.01532304
C       13.91593785       0.68286602       9.69872429       0.00678363       0.00459053      -0.02319722
H       14.88485365       0.22895089       9.87946895       0.00918883       0.00439802      -0.04181251
Cl       9.03509830      10.38327012       3.44332737       0.01869422       0.00026298      -0.01330885
Cl      11.02387713      11.17636640       5.43427872      -0.00030494      -0.00594002       0.00404604
Cl       9.72861648      13.17507689       3.76104775       0.00020529      -0.00002837       0.01119000
C        9.53158191      11.62901400       4.59250303       0.00329837      -0.00646092      -0.00225975
H        8.75460897      11.75506717       5.33817744      -0.00287497      -0.01586448      -0.00509202
Cl       5.78457544       2.28284775       8.98811256       0.00166511      -0.00420928      -0.00149798
Cl       6.97350206       4.91117845       8.59103108       0.01847905      -0.01502299      -0.01313049
Cl       4.21828298       4.70362160       9.53846405       0.02266490       0.00702989       0.00351641
C        5.81887363       3.93163567       9.53578482       0.01659502      -0.00381333      -0.00448245
H        6.16847185       3.95564092      10.55907387       0.02257447      -0.00409713      -0.00676435
