143
Lattice="12.700201470191555 0.0 0.0 0.0 12.700201470191555 0.0 0.0 0.0 12.700201470191555" Properties=species:S:1:pos:R:3:forces:R:3 energy=-566137.9375 stress="-1.798881567083299e-05 -0.0005776387988589704 -9.509824667475186e-05 -0.0005776387988589704 0.00015288828581105918 0.0003195469325874001 -9.509824667475186e-05 0.0003195469325874001 -0.0003125266230199486" pbc="T T T"
Gd      12.71748452      11.10414003      -0.27376105      -0.00166208       0.00983953       0.01527470
Cl      12.71308333      13.00530437       9.33036013      -0.02405214      -0.00411290      -0.03412586
O       11.28293986      13.50461131       9.25929599      -0.01887906       0.02143675       0.03556986
O       12.73636493      12.39313462      13.75584155      -0.01023467       0.00215757       0.02448261
O       12.85478081      11.64951019      10.07924511       0.00383581       0.03804708       0.03076726
Cl       2.96976727       9.65337232      12.20863113      -0.00870514       0.02572447       0.04061198
O        2.58580021      11.06968850      11.90669094      -0.00053650      -0.00577462       0.01696908
O        3.21179953       8.92733973      10.95704367      -0.00046414      -0.00716949       0.00271690
O        1.68886574       9.09631322      12.83028625       0.00548565       0.00655508       0.01844031
Cl       5.67128287      11.82262136       8.98593657      -0.00985217       0.00005984       0.01582205
O        4.88549689      12.75932353       8.15093863      -0.01578617      -0.02124906      -0.00061464
O        6.84012378      11.37049472       8.16805824      -0.00944638      -0.01334342       0.02337718
O        6.22827230      12.58333364      10.15088768      -0.01126230       0.02715635      -0.00265419
S        6.92333855       6.32237125      11.64298836       0.01737809      -0.00344762      -0.00394988
O        6.30136252       6.85988298      12.89161552       0.03234541       0.00753576      -0.00292790
C        5.70843922       6.46325333      10.33447926       0.00860751       0.00694294       0.00451696
C        6.92375167       4.52769623      11.78291197      -0.00067593      -0.00285816       0.00144971
H        5.51149703       7.52466281      10.18938721       0.02358435       0.00919431       0.00093393
H        4.79342246       5.96500657      10.63964084       0.00456275       0.02254975       0.01481768
H        6.09392424       6.00987795       9.42353317      -0.00609127      -0.00184517       0.00282340
H        7.33998021       4.10247222      10.87020302      -0.01067349      -0.00992212       0.00057463
H        5.91079626       4.18232129      11.98476223      -0.00213423       0.00724053       0.00986782
H        7.56739079       4.28390967      12.62686917       0.00296950      -0.00594107      -0.00172287
S        7.91633189       5.56340209       4.93949479       0.00775492      -0.00173640      -0.00463435
O        6.59385155       4.88050041       5.06731770       0.00328088       0.00097847      -0.00212424
C        8.69024576       4.93267806       3.44237920      -0.00125280       0.00386336      -0.01116669
C        9.06053381       4.79254663       6.09672372       0.00826716      -0.01271522      -0.01367331
H        8.09882650       5.30731647       2.60765680      -0.00365107       0.00932826      -0.00705823
H        8.67305822       3.84104992       3.48922210      -0.00145015       0.00394192      -0.01645885
H        9.70382366       5.32943234       3.39588968      -0.00067092       0.00312404      -0.01273404
H       10.00043080       5.34264981       6.03439660       0.00909811      -0.01373378      -0.01301316
H        9.19834006       3.74279548       5.83856547       0.00540307      -0.01101038      -0.02225535
H        8.62727040       4.88740658       7.09130263       0.01140862      -0.01822035      -0.01176806
S        2.32996595       2.71935231      10.87724737      -0.00263166       0.00703901      -0.00273597
O        1.23924369       3.06293566       9.89881850       0.00081301       0.00887799      -0.00411928
C        2.81034708       4.31703071      11.55317531       0.00503641       0.00702626      -0.00667889
C        3.81101643       2.41559381       9.91919558      -0.00104713      -0.00286660       0.00235456
H        1.95923632       4.68465235      12.12358089       0.00386551       0.01501601      -0.01365908
H        3.01387818       4.97758151      10.71086534       0.01422277       0.00220598      -0.00833347
H        3.65411352       4.20046356      12.22829004       0.00028117       0.00446913      -0.00119336
H        4.64153275       2.22232334      10.59792141      -0.00407832      -0.00455505       0.00569519
H        4.00042228       3.26954278       9.26755484       0.00489605      -0.00707835      -0.00042371
H        3.65961490       1.51293532       9.33014086      -0.00509430      -0.00477985       0.00583169
S        9.00839337       8.60759147       6.87997667       0.00510418       0.00236702      -0.00230467
O        8.63822208       9.17913253       5.55485232       0.00888538       0.00250483      -0.00121975
C        7.48630088       8.33118815       7.80011190       0.00256658      -0.00354422      -0.00764632
C        9.62946487       9.97172940       7.88352572      -0.00188895       0.00319070       0.00158107
H        6.94019685       7.54068841       7.28752185       0.00806896      -0.00590827      -0.00992531
H        6.92944928       9.27096208       7.82676230      -0.00115974      -0.00593644      -0.00924928
H        7.75320999       8.00386688       8.80605552      -0.00027167      -0.00262577      -0.00672464
H        9.92340639       9.59502028       8.86406743      -0.00213459       0.00319588       0.00148404
H        8.85439927      10.73509971       7.96978528      -0.00451651       0.00036797       0.00121852
H       10.50973451      10.35942764       7.37340145      -0.00272763       0.00619241       0.00179470
S        5.36059547       9.42367335       3.87513566      -0.00929025       0.00645506      -0.00545096
O        5.40564691      10.60482917       2.96774997      -0.01838123       0.00296831      -0.00137079
C        6.43178105       8.16672256       3.16938912       0.00103295       0.01121199      -0.00083447
C        3.80801919       8.57205663       3.50664796      -0.00208730      -0.00748855      -0.00191084
H        7.45212233       8.41343109       3.45833500      -0.00117660       0.02063134      -0.00108895
H        6.29761590       8.15651602       2.08819822       0.00169008       0.00485635      -0.00124788
H        6.15941111       7.20046000       3.59563952       0.00802043       0.01209532       0.00436247
H        3.77737690       7.62583540       4.04604972       0.00585967      -0.00285246       0.00511644
H        3.73016341       8.41825325       2.43014525      -0.00153432      -0.01632537      -0.00090970
H        3.00304830       9.21854640       3.84945976      -0.00719807      -0.01155023      -0.00543791
S        2.55636495       3.18582178       2.61267770       0.00567436      -0.00540744      -0.00756049
O        3.45086964       2.81726952       1.48018961       0.00892532       0.00471300      -0.00950694
C        0.86022333       3.06589669       1.99742517       0.00697088      -0.01130570      -0.00870863
C        2.64384275       4.98917551       2.73483514      -0.00386314      -0.00580573      -0.00004846
H        0.67529889       2.01872906       1.73933793       0.00924417      -0.01167443      -0.00920646
H        0.74331150       3.69241549       1.11285907       0.00585674      -0.01037025      -0.00789633
H        0.17117327       3.38207653       2.78140192       0.00606710      -0.01389867      -0.00829088
H        1.89997410       5.35406911       3.44366051      -0.00660244      -0.01329514       0.00096562
H        2.49869125       5.43641936       1.75152259      -0.00598663      -0.00241981       0.00186418
H        3.64397208       5.21781492       3.09993141      -0.00579841      -0.00206305       0.00292119
S        2.69628700      12.31390900       4.75036885       0.00309829      -0.00462508       0.00163960
O        3.02480416      13.75064295       4.95054218       0.01455289      -0.01236677      -0.00232565
C        2.30135566      12.07274293       3.00975319       0.00144467      -0.00960257       0.00304329
C        1.02504350      12.11330214       5.40099977      -0.00008547       0.00950622      -0.00101623
H        3.19695304      12.32651308       2.44576944       0.00447096      -0.02117111       0.00293162
H        1.44687206      12.66841676       2.67901865       0.00635970      -0.00263591       0.00074753
H        2.07164432      11.02026567       2.83502759      -0.00966613      -0.00695820       0.00685978
H        0.64462927      11.12959589       5.14166562      -0.00755271       0.01107793       0.00619127
H        0.38681369      12.88842956       4.97730020       0.00585946       0.00986056      -0.00987069
H        1.08569878      12.21755538       6.48299092      -0.00104999       0.01793614      -0.00189814
S       12.07936096       8.41290902       3.78254158       0.01949167       0.00390291      -0.00516194
O       11.09177003       7.28223239       3.73219574       0.02903640      -0.00478041      -0.01630791
C       12.63676249       8.42018043       5.49669798      -0.00106686       0.00583679       0.00011522
C       11.15676449       9.95682469       3.73364943       0.00684935      -0.00507259      -0.01134042
H       13.07585236       7.43488807       5.64459367       0.00743860       0.01067400       0.00421874
H       11.79094941       8.55841538       6.17016140      -0.01013556      -0.00437920      -0.01032680
H       13.40385118       9.17667785       5.65328214      -0.01165747       0.01405601       0.00965732
H       11.84912005      10.77335372       3.52724120       0.00180809       0.00425182       0.01150976
H       10.55322523      10.09764081       4.62850578      -0.01305087      -0.01941885      -0.02313346
H       10.51200999       9.85192183       2.86503384       0.02775838      -0.00098655      -0.02695590
S       10.52030429       4.26924137       9.30480573      -0.00474954      -0.00963077      -0.00435042
O        9.03755914       4.09843846       9.38019724      -0.00952888      -0.00093800      -0.00707628
C       11.17225621       3.87696731      10.93312200      -0.01147018      -0.01629730      -0.00432944
C       10.78748716       6.05733301       9.39487581       0.00342311      -0.01182377      -0.00212173
H       11.12318847       2.79520011      11.04379486      -0.01751076      -0.01639590      -0.00854635
H       10.56162317       4.38494563      11.68082473      -0.00899374      -0.01554901      -0.00302999
H       12.22064828       4.16796031      10.95928156      -0.00928916      -0.02306095      -0.00312166
H       11.84636125       6.28202126       9.51793255       0.00463149      -0.01819536       0.00058452
H       10.20462248       6.45476773      10.22672013       0.00365378      -0.00903222      -0.00347370
H       10.42395013       6.47857968       8.45727209       0.00869593      -0.00931179      -0.00292252
S        7.83464537       0.84205126       4.84934006       0.00236309       0.00300241       0.01465821
O        8.76513726       1.76982671       4.12941977       0.00738657       0.00574219       0.02319574
C        6.23713080       0.95842628       4.04318117       0.00765365       0.00780195       0.00583023
C        7.35596601       1.63763282       6.38315839      -0.00544721      -0.00253356       0.01508695
H        6.27092463       0.38142058       3.12270496       0.01217577       0.01011337       0.00463145
H        6.02354449       2.00987306       3.85157520       0.01188796       0.00882374       0.00619308
H        5.48284732       0.54101229       4.70665502       0.00255169       0.00805587       0.00049090
H        6.61418428       1.01204247       6.88269309      -0.00610769      -0.00582972       0.01019391
H        6.96219247       2.62975208       6.15516522      -0.00698963      -0.00296547       0.01630700
H        8.24636701       1.70309271       7.00507441      -0.00828797      -0.00182224       0.01877702
S        2.88322759       5.97815645       7.29394116      -0.00196171       0.01449597      -0.00079715
O        3.93304103       5.33462937       8.13060981       0.00960815      -0.00135899       0.01358962
C        2.31355401       7.41101280       8.22710961      -0.00134197       0.00038773       0.01331162
C        1.40142180       4.96975772       7.46275078       0.00853145       0.00609648      -0.00999753
H        3.11273569       8.14869127       8.21044388      -0.00517744       0.00383894       0.02151868
H        2.12616251       7.11608146       9.25862787      -0.00808139      -0.00659783       0.00924408
H        1.41826228       7.82710910       7.76874059      -0.00141244       0.00012309       0.00936361
H        0.55521067       5.45985030       6.98077763       0.00918430       0.00767854      -0.01380343
H        1.21888079       4.76737141       8.51848841       0.00081964      -0.00348601      -0.01362878
H        1.61423952       4.02149431       6.97449512       0.01431836       0.01007405      -0.01513343
S        9.08759044      11.67219115      11.10890092      -0.00336862      -0.00238082       0.00726819
O       10.43068139      11.28088078      11.68740492      -0.01151752      -0.01406565       0.01424003
C        8.63809308      13.20890470      11.91397852       0.00426944       0.00215983       0.00323746
C        7.92895769      10.59310219      11.95778545      -0.01909736       0.00945410       0.00031984
H        9.21825751      13.98942700      11.42690362       0.00899485      -0.00356757       0.00049733
H        8.89079789      13.13799054      12.97094842       0.00795595       0.00535838       0.00264271
H        7.57748392      13.36894603      11.73185724       0.00506179       0.00692116       0.00283935
H        6.91719400      10.92081873      11.72708244      -0.01344784       0.01810661      -0.00983786
H        8.13991282      10.62098845      13.02649343      -0.03194533       0.01337600       0.00233412
H        8.09804063       9.59089070      11.56515210      -0.02526919       0.00598533       0.00760399
S       11.23706595       7.87219979       0.04091734      -0.00157933       0.00164902      -0.00271630
O       11.53150469       9.16908304       0.75931063       0.00386894      -0.00429678      -0.00009203
C        9.77090764       7.21318095       0.83047246      -0.00276428       0.00237998      -0.00235724
C       12.42831195       6.68111319       0.66676299      -0.00475213      -0.00533083      -0.00918597
H        8.92819961       7.84478679       0.55955850      -0.00257178       0.00326191      -0.00056667
H        9.94399857       7.21102260       1.90704817      -0.00117181       0.00102630      -0.00275186
H        9.60136100       6.20465298       0.45279844      -0.00548931       0.00300215      -0.00219523
H       12.28214745       5.74105112       0.13628677      -0.00298367      -0.00060616      -0.01668715
H       12.28045710       6.55754218       1.73848630      -0.00722195      -0.01235737      -0.01023614
H       13.40275294       7.11448321       0.44249307      -0.00352295      -0.00281537      -0.00321865
