142
Lattice="12.085077404281073 0.0 0.0 0.0 12.085077404281073 0.0 0.0 0.0 12.085077404281073" Properties=species:S:1:pos:R:3:forces:R:3 energy=-419205.5625 stress="7.447776442859322e-05 -0.0010697757825255394 0.0004364632477518171 -0.0010697757825255394 0.001057851011864841 0.0007728028576821089 0.0004364632477518171 0.0007728028576821089 -4.603534193847736e-07" pbc="T T T"
Gd       8.75983543      10.85059843       2.29830461       0.00611243       0.00791474       0.00240090
P        4.28729191       3.40020006       6.23034397       0.00337952       0.01205663      -0.00406121
O        5.37409721       3.47924537       5.01246579      -0.00233489      -0.00043681      -0.00577390
O        5.24721766       3.48847936       7.52866534       0.00118357       0.00124502      -0.00824630
O        3.45772661       4.64086295       6.23809856       0.00327146      -0.01000917      -0.00516483
O        3.66406795       2.05134410       6.14477088       0.00279218      -0.00615442      -0.00383610
H        5.46151905       4.39195124       4.72287561      -0.00314567       0.00063322      -0.00740387
H        5.98840095       2.84538865       7.48605405       0.00222305       0.00270684      -0.00484370
P        7.92540852      10.76813053       5.60749259      -0.00474533      -0.00004248       0.00003503
O        6.42492105      11.16163976       5.79655943      -0.00708729      -0.00420782      -0.00837852
O        8.17384972       9.59809291       6.60991488      -0.00622350       0.00163998       0.00158836
O        8.12659425      10.19213771       4.17571455       0.00421386       0.00204942       0.00026870
O        8.76445127      11.99440938       5.82912246      -0.00975394       0.00284269       0.00494441
H        5.81145029      10.40299430       5.61103511      -0.00424540      -0.00713369      -0.00722959
H        8.98109956       9.00396846       6.43756287      -0.00652112      -0.00048732       0.00382304
P        0.60276426       6.25846946       4.25442152      -0.00417086       0.00462702       0.00460729
O       -0.03382723       4.78966481       3.87561394      -0.00470771       0.00315642       0.01344427
O        1.26663969       6.05337698       5.67770775       0.00144529       0.00528032       0.00077593
O        1.56227161       6.62648503       3.17776734      -0.01035368       0.00310451      -0.00165176
O       -0.60292555       7.14139735       4.47524188      -0.00301862       0.00612968       0.00933687
H        0.63145990       4.29282711       3.38894457      -0.00531386       0.00193261       0.01405182
H        2.06837308       5.46989609       5.76559116       0.00191469       0.00545922      -0.00045107
O        3.40700871       0.52332368       4.06546012      -0.00495672       0.00337481      -0.00407553
C        2.70096644       1.18437225       3.04255970      -0.00952953       0.00360596      -0.00341141
C        1.21465393       1.27073035       3.36180513      -0.00921738      -0.00559239      -0.00155723
C        3.25772357       2.57038312       2.72475314      -0.01605055       0.00693166       0.00338154
H        2.81836688       0.55561353       2.14792157      -0.00733374       0.00805369      -0.00594348
H        0.67683496       1.71206138       2.51757596      -0.01167109      -0.00504474       0.00030572
H        0.80314448       0.28119240       3.56448426      -0.00441792      -0.00827542      -0.00524282
H        1.06248018       1.89470125       4.24546092      -0.01226087      -0.00963299       0.00090149
H        2.82728121       2.95305544       1.79587328      -0.02404975       0.01257823       0.00949511
H        4.34091115       2.54457134       2.62219477      -0.01678042       0.01154282      -0.00451800
H        3.03016908       3.27393998       3.52740235      -0.01265822       0.00028712       0.01025769
H        3.49455670       1.12386184       4.86389393      -0.00308713      -0.00046868      -0.00717521
O        3.08973452       9.38423117       9.99302147       0.00288475      -0.00997156       0.00168884
C        3.94092667       9.38072170       8.83311948       0.00186300      -0.00441082       0.00108655
C        4.70228908      10.68768606       8.84684385      -0.00600746      -0.00037247      -0.00176849
C        4.84426294       8.16056919       8.85115684       0.00860527       0.00047570      -0.00144662
H        3.31563650       9.35419605       7.93125613       0.00099552      -0.00349156       0.00253046
H        5.31425277      10.78840542       7.95239489      -0.01370443       0.00433590      -0.00654876
H        4.01919261      11.53524347       8.88609971      -0.01130877      -0.00489388       0.00377793
H        5.35998875      10.72996968       9.71728829      -0.00038934       0.00206796      -0.00673011
H        5.56291238       8.20231640       8.03210508       0.01410514       0.00889191       0.00377084
H        4.27715959       7.23314923       8.75583519       0.01643804      -0.00334533      -0.00959032
H        5.40838491       8.11842109       9.78492267       0.00310101      -0.00071349       0.00172652
H        2.67366923       8.51837979      10.04641759       0.00726721      -0.01225691       0.00130767
O        5.19100958       4.64701920      10.10014774       0.00042856      -0.00112674      -0.00503182
C        4.12388809       4.23562096      10.94114932       0.00048107      -0.00096145      -0.00582823
C        3.11942062       5.36925661      11.12681233      -0.00037885      -0.00127274      -0.00716783
C        3.45856698       2.97064397      10.42265482       0.00097793      -0.00182116      -0.00502545
H        4.57540714       4.02653721      11.92004867      -0.00014991      -0.00019000      -0.00523841
H        2.37618553       5.11766606      11.88698166      -0.00130287      -0.00121459      -0.00810480
H        3.63569355       6.27531319      11.44676135      -0.00073774      -0.00114827      -0.00687908
H        2.60602795       5.56965963      10.18320095       0.00079954      -0.00159291      -0.00793695
H        2.67777494       2.63519344      11.10859785       0.00094840      -0.00159409      -0.00490087
H        4.19044975       2.16972918      10.30820061       0.00146028      -0.00147937      -0.00423761
H        3.00601423       3.14882560       9.44507078       0.00115873      -0.00264663      -0.00528346
H        5.05083184       4.30409427       9.20003839       0.00083180      -0.00106487      -0.00589713
O       10.66317714       9.73366361       8.44937385       0.00071418      -0.00558500       0.00350475
C       11.57479495       9.35613067       9.46637871       0.00602347      -0.00073266       0.00055528
C       11.36415192      10.31984818      10.62052051       0.00799663       0.00178188      -0.00108969
C       11.36692689       7.90046210       9.86116349       0.01226623      -0.00056833       0.00461237
H       12.60838363       9.47912204       9.11346593       0.00436050       0.00098860      -0.00373277
H       12.07124068      10.11844795      11.42681752       0.01003981       0.00482513      -0.00214716
H       11.50309745      11.34634502      10.28104209       0.00595470       0.00100960      -0.00428078
H       10.33853200      10.22845431      10.99824713       0.00908417       0.00167147       0.00194544
H       12.02663458       7.60657045      10.68134330       0.01379711       0.00457318       0.00528184
H       11.57300769       7.24738019       9.01207195       0.01502348      -0.00199726       0.00634393
H       10.32895250       7.73809722      10.16436044       0.01311898      -0.00423960       0.00549786
H       10.62819642       9.02564755       7.78474111      -0.00233637      -0.00769722       0.00582890
O       10.03513653       7.83311604       6.40806890      -0.00985479      -0.00007132       0.00660075
C        9.20771672       6.66448436       6.57578267      -0.01084056      -0.00011617       0.00569469
C        8.36479323       6.45036214       5.32460450      -0.00790176      -0.00089805       0.00402087
C       10.04073377       5.43797664       6.89483734      -0.01033455       0.00083464       0.00839299
H        8.55035598       6.89472981       7.42093964      -0.01351738       0.00033636       0.00392729
H        7.67009113       5.61992192       5.46472325      -0.00591302      -0.00281246       0.00240070
H        7.79611627       7.35163624       5.08382550      -0.01010454      -0.00227645       0.00406003
H        9.02693515       6.21260751       4.48918542      -0.00618304       0.00141148       0.00466692
H        9.38515403       4.57644573       7.02523285      -0.00954893      -0.00015537       0.00592384
H       10.61797126       5.57662008       7.80776552      -0.01395021       0.00177136       0.01057339
H       10.73595168       5.22406831       6.08463483      -0.00701064       0.00191132       0.01076487
H       10.69847767       7.60395162       5.65350619      -0.00863314       0.00108556       0.00790244
O        7.20944236      11.17909318       0.51472284       0.00291809       0.00088704       0.00384027
C        5.97360928      11.03033691       1.35095022       0.00041552       0.00432143       0.00082076
C        5.93538402      12.22467692       2.27152567      -0.00067927       0.00689751      -0.00238052
C        4.75151111      10.89234335       0.48113139       0.00337362       0.00325814      -0.00308979
H        6.11835833      10.10463181       1.93152647      -0.00220145       0.00596836       0.00390299
H        5.10901079      12.14603665       2.98636779      -0.00256574       0.00927510      -0.00447559
H        6.84389038      12.33304583       2.88366787      -0.00189746       0.00649497      -0.00035653
H        5.81167340      13.13881565       1.69064067       0.00206849       0.00588857      -0.00468776
H        3.87877594      10.76202686       1.11986503       0.00071448       0.00626848      -0.00608438
H        4.80130454      10.02445473      -0.17708182       0.00473636       0.00101995      -0.00016794
H        4.60129367      11.78863204      -0.12193724       0.00689299       0.00146115      -0.00657747
H        7.04893119      10.80572378      -0.36056420       0.00648692      -0.00703064       0.00644517
O        5.26033321       8.87607835       5.34240266      -0.01048192      -0.00290318       0.00269738
C        4.19113335       8.15539049       4.66811941      -0.00923787      -0.00081997      -0.00085682
C        3.72364522       9.00838571       3.51743905      -0.00878848       0.00524446       0.00377238
C        4.71303615       6.80694239       4.23007010      -0.01016927       0.00096697      -0.00792018
H        3.37197701       8.00845879       5.37790227      -0.00898796      -0.00355470      -0.00128371
H        2.84208571       8.53232506       3.08790070      -0.00957644       0.00774042       0.00276367
H        3.48682770      10.02338835       3.84111730      -0.00668057       0.00426963       0.00827628
H        4.50457339       9.04733569       2.75610738      -0.00973707       0.00816656       0.00296992
H        3.91343759       6.25844588       3.73207500      -0.01160061       0.00297303      -0.00810312
H        5.01578138       6.23838203       5.11183552      -0.00793768      -0.00296149      -0.01150383
H        5.56128374       6.93295085       3.55108643      -0.01245157       0.00287367      -0.01051821
H        5.72962280       8.25891596       5.91288114      -0.02644017       0.00000915       0.01865666
O        7.53518279       1.95519090       7.61117894       0.00095072       0.00032440      -0.00109780
C        7.99466283       1.76444297       8.95590619      -0.00204599      -0.00531691      -0.00130925
C        8.41729245       0.32623335       9.18854105      -0.00135094      -0.00606835      -0.00657900
C        9.11038307       2.74844562       9.27065354      -0.00285816      -0.00613540       0.00470873
H        7.13802857       2.00725943       9.59529878      -0.00323886      -0.00860794      -0.00150001
H        8.74911799       0.20524331      10.22153480      -0.00358685      -0.01074078      -0.00632787
H        7.59201816      -0.36125754       8.99537174      -0.00032014      -0.00593144      -0.01143959
H        9.24524702       0.03910587       8.53847063       0.00039427      -0.00257935      -0.00581442
H        9.42788890       2.64746285      10.31151355      -0.00478854      -0.00978945       0.00497897
H        8.76920448       3.77133792       9.11802428      -0.00310511      -0.00582144       0.00768602
H        9.97326638       2.56707103       8.62718101      -0.00143865      -0.00353988       0.00580306
H        7.90994202       1.27071883       7.03163528      -0.00288967      -0.00065471      -0.00214951
O        8.61373054       8.50980017       1.80000984       0.02470344       0.00850701       0.00000459
C        9.96638411       8.14406625       1.30583768       0.02186489      -0.00043128      -0.00192577
C       10.99569490       8.98377852       2.06154826       0.02575392       0.00067881      -0.01202369
C       10.17192271       6.65608774       1.42391754       0.01631318       0.00014001       0.01166512
H        9.93468430       8.43500259       0.25403165       0.01921725      -0.00929679      -0.00396356
H       11.03839875      10.03005781       1.69790346       0.00820777       0.00472540      -0.00114573
H       10.81327052       8.94359061       3.14127252       0.04533652      -0.01184348      -0.00997347
H       11.99992786       8.57326057       1.93622401       0.02718332       0.01260941      -0.03529434
H       11.13455865       6.39094633       0.98758683       0.01689610      -0.00792980       0.01830339
H        9.38155397       6.12520775       0.89109322       0.01615115      -0.00270649       0.01506248
H       10.20727428       6.34894592       2.46977677       0.01243831       0.01077621       0.01470301
H        8.45309393       7.99573007       2.60763300       0.02042556       0.00622135      -0.00237900
O        9.56356300       0.53476319       3.49286192       0.00466692       0.00156827       0.01305333
C        9.73867238       1.96594118       3.21683495       0.00393978      -0.00002351       0.00704959
C        9.12033187       2.25697428       1.86324159       0.01298466      -0.01099084       0.00061178
C        9.14464858       2.78661848       4.33628835      -0.00425479       0.00609571      -0.00212145
H       10.81374386       2.14121413       3.17343490       0.00379539       0.00209501       0.01329524
H        9.36238605       3.27532540       1.55597793       0.01892276      -0.01567647      -0.00962449
H        9.50771023       1.58070864       1.08987815       0.01498903      -0.02125928       0.01033785
H        8.03259838       2.16659990       1.90044461       0.01240028      -0.00692392      -0.00554933
H        9.36389868       3.83800985       4.15629980      -0.00329007       0.00520571      -0.00649596
H        9.59990633       2.52054722       5.28947723      -0.00964977       0.01191558       0.00208372
H        8.06440510       2.64796190       4.41599631      -0.00466761       0.00642923      -0.00737067
H        9.34402979       0.38653413       4.49131043      -0.00174008       0.00333945       0.01242265
