141
Lattice="12.530362212729202 0.0 0.0 0.0 12.530362212729202 0.0 0.0 0.0 12.530362212729202" Properties=species:S:1:pos:R:3:forces:R:3 energy=-397663.0 stress="-0.0005033743800595403 -0.00021198877220740542 -2.325178593309829e-05 -0.00021198877220740542 -0.0004192330816294998 0.00032320480386260897 -2.325178593309829e-05 0.00032320480386260897 -0.00023392598086502403" pbc="T T T"
Gd      11.35801336      11.25073467       0.98131235      -0.01385859      -0.00094062       0.00758386
P       12.22335232       8.98308986       0.57943863       0.02493982      -0.00415235      -0.01118712
O       12.91019513       9.96825020       1.66109910       0.00683880       0.00947171       0.00311530
O       10.69316749       9.23428962       1.03604860       0.01247990      -0.01339780      -0.00625288
O       12.24090198       9.97020277      -0.66289389       0.00590026       0.02389258      -0.00003123
O       12.72254366       7.60071330       0.47319459       0.02917314       0.02667081      -0.02310096
C        4.68614158       4.18471056       5.44431647       0.00351940      -0.00160783      -0.00288382
C        5.15439771       2.87004726       5.43516746       0.00482698      -0.00110523       0.00060080
C        5.47909172       5.17308001       4.85999924       0.00236678      -0.00243965      -0.00533808
C        3.37309854       4.53324972       6.07744189       0.00291419      -0.00115894      -0.00419468
C        6.38120825       2.55052078       4.86607907       0.00500351      -0.00136872       0.00122161
C        6.70402787       4.85710098       4.28654198       0.00265685      -0.00257392      -0.00475622
C        7.16207757       3.54504205       4.28970270       0.00396737      -0.00214346      -0.00150581
H        4.54167921       2.08975361       5.87366711       0.00579851      -0.00047582       0.00284370
H        5.12158029       6.19630398       4.83744719       0.00136876      -0.00290579      -0.00817068
H        2.91796148       5.39263295       5.58504383       0.00106034      -0.00482504      -0.00866674
H        2.67420153       3.69774669       6.03118369       0.00478958      -0.00287402       0.00027417
H        3.50806026       4.78440311       7.13242590       0.00252496       0.00468872      -0.00556481
H        6.72118119       1.52158605       4.85777581       0.00627851      -0.00090389       0.00420233
H        7.29676466       5.63718398       3.82694765       0.00159533      -0.00327562      -0.00692206
H        8.11749641       3.30121709       3.84126229       0.00408929      -0.00225882      -0.00077453
C        9.35954429       9.34154912       3.97358630      -0.00562548       0.00179873      -0.00355895
C        8.60826561      10.45202773       3.58141709      -0.00447553      -0.00149684      -0.01487206
C       10.71028072       9.51491455       4.26078969      -0.00802509       0.00609013       0.00698064
C        8.73344352       7.98689425       4.01962425      -0.00325318       0.00118750      -0.00087714
C        9.19538925      11.70168812       3.44578694      -0.00647858      -0.00061017      -0.01363138
C       11.31094045      10.75828173       4.12552857      -0.01042806       0.00701274       0.00886914
C       10.56624549      11.85785814       3.69380517      -0.00945426       0.00409979      -0.00063443
H        7.55038022      10.32848403       3.38615438      -0.00199901      -0.00491507      -0.02487580
H       11.30507603       8.66206053       4.57036063      -0.00895889       0.00917694       0.01589440
H        9.34430955       7.28356120       4.58418741      -0.00552924       0.00496854       0.00584337
H        7.73611467       8.02052144       4.46022652      -0.00549781       0.00211627      -0.00603329
H        8.64004152       7.60354419       2.99998328       0.00229785      -0.00408509       0.00075698
H        8.58788381      12.56027543       3.17471708      -0.00612593      -0.00303230      -0.02213964
H       12.36831878      10.86272740       4.32448360      -0.01308361       0.01075070       0.01958025
H       11.02020611      12.84749244       3.66609304      -0.01159042       0.00481638       0.00074296
C        1.06604677      10.49398827       7.39571257       0.00068203       0.00070365       0.00515969
C        1.00012366      10.01869219       8.70706434      -0.00033427      -0.00027765       0.00505453
C        1.42690335       9.60246827       6.38627737       0.00140771       0.00211901       0.00492862
C        0.80028114      11.94237414       7.09966824       0.00056205       0.00104055       0.00661954
C        1.29096806       8.69376129       9.00484799       0.00036140      -0.00060879       0.00388205
C        1.71540749       8.27437025       6.67691381       0.00221720       0.00178066       0.00358479
C        1.64732116       7.81552767       7.98625992       0.00182784       0.00104570       0.00328477
H        0.70549829      10.67538595       9.51652478      -0.00140392      -0.00166881       0.00585321
H        1.49970095       9.94585487       5.36053933       0.00166820       0.00298430       0.00500273
H        0.61359547      12.11073423       6.04000732       0.00657952       0.00285749       0.00586605
H       -0.06104996      12.30951809       7.65936647      -0.00292684      -0.00078840       0.00233020
H        1.65595793      12.56152832       7.38388335      -0.00178337       0.00139415       0.01246199
H        1.20577325       8.35896214      10.03181106       0.00033650      -0.00159497       0.00351009
H        1.99271898       7.60312553       5.87344212       0.00332385       0.00280540       0.00334416
H        1.84927102       6.77460356       8.20463704       0.00317423       0.00089484       0.00274783
C       10.36407009       5.42025790       8.02724394       0.00095803      -0.00524789      -0.00510357
C       10.36804546       6.76229876       8.40927826       0.00029435      -0.00621709      -0.00059352
C       10.94757477       4.48979253       8.88579190      -0.00015276      -0.00709465      -0.00636673
C        9.75071553       4.99181503       6.72571946       0.00408438      -0.00127906      -0.00750029
C       10.92475124       7.16415730       9.61720005      -0.00123880      -0.00991350       0.00041832
C       11.51514066       4.89113299      10.08998320      -0.00165374      -0.01084429      -0.00521279
C       11.50320692       6.22833294      10.46839836      -0.00156435      -0.01169990      -0.00143345
H        9.93231733       7.49824153       7.74339048       0.00066572      -0.00436892       0.00068827
H       10.95038374       3.44080987       8.60820249       0.00009574      -0.00669514      -0.00968502
H        9.37499300       3.96952808       6.78033513       0.00454087      -0.00167733      -0.01191963
H        8.91709992       5.63750860       6.44614943       0.00414096      -0.00105228      -0.00732341
H       10.47876427       5.02868170       5.91018462       0.00575519       0.00186738      -0.00580585
H       10.93042519       8.21082122       9.90038683      -0.00198394      -0.01024166       0.00333091
H       11.96700334       4.15243674      10.74163545      -0.00197119      -0.01281039      -0.00670169
H       11.94107953       6.55482479      11.40794318      -0.00039552      -0.01300716      -0.00126457
C        5.77952421       4.26258169       9.68342395      -0.00261678      -0.00011198      -0.00448032
C        5.33188850       2.94794594       9.54087036      -0.00301361       0.00074849      -0.00936716
C        4.82650256       5.26390467       9.87734318      -0.00220409      -0.00124034       0.00266186
C        7.24038582       4.58871908       9.59561108      -0.00304678       0.00077444      -0.00664857
C        3.97654206       2.64364511       9.57892852      -0.00268990       0.00014400      -0.00606961
C        3.47019712       4.96338863       9.92297869      -0.00213555      -0.00134937       0.00485222
C        3.03893126       3.65162013       9.76814494      -0.00229549      -0.00084521       0.00105827
H        6.05857894       2.15610155       9.39431319      -0.00353190       0.00142409      -0.01594431
H        5.15296865       6.29166857       9.99002839      -0.00214494      -0.00179966       0.00663308
H        7.48453496       5.51379193      10.11694712      -0.00310311       0.00083432      -0.00713517
H        7.85762151       3.79313530      10.01353270      -0.00196515       0.00105014      -0.00757999
H        7.54473301       4.71588624       8.55424489      -0.00480995       0.00075886      -0.00721288
H        3.65302175       1.61479877       9.47219383      -0.00308458       0.00054590      -0.00920256
H        2.74828481       5.75345533      10.09051936      -0.00229833      -0.00173935       0.01033560
H        1.98226087       3.42050513       9.80737860      -0.00215167      -0.00122285       0.00353405
C        5.87952834      10.84394159       7.07442991       0.00550838       0.00527944       0.00106079
C        6.91123599      11.77519499       6.97337374       0.00698565       0.00362879       0.00394195
C        6.21137717       9.50889023       7.30809304       0.00370340       0.00392994      -0.00182146
C        4.44489573      11.25550649       6.94916215       0.00620359       0.00753641       0.00106692
C        8.24027587      11.38569491       7.09415269       0.00617522       0.00177975       0.00392013
C        7.53552309       9.11852438       7.44442306       0.00274072       0.00226463      -0.00200336
C        8.55763484      10.05599410       7.33634888       0.00422476       0.00032422       0.00113144
H        6.66549590      12.81868333       6.81053699       0.00870545       0.00449683       0.00617471
H        5.41747990       8.77581407       7.40582159       0.00245435       0.00500850      -0.00442897
H        3.83044504      10.78019969       7.71497221       0.00533710       0.00824688       0.00089277
H        4.33553868      12.33692379       7.03615780       0.00789572       0.00747623       0.00129623
H        4.02744601      10.94962170       5.98601393       0.00582432       0.00833949       0.00094125
H        9.03005623      12.12087028       6.99611184       0.00737070       0.00075908       0.00670419
H        7.76799462       8.08150780       7.65461169       0.00116701       0.00090826      -0.00449769
H        9.59345153       9.75732025       7.43929859       0.00365739      -0.00099377       0.00149545
C        4.36812822       9.23376470       2.16512178       0.00527886      -0.00199178       0.00430992
C        3.11147501       9.10095101       2.75240610       0.00088480      -0.00071162      -0.00399649
C        5.00468664       8.08875832       1.68976930       0.01074582      -0.00357633       0.01669525
C        4.98775613      10.58949435       2.00882150       0.00389805      -0.00152114       0.00153243
C        2.49817099       7.86224523       2.85772491       0.00255419      -0.00089433      -0.00176267
C        4.39714033       6.84401869       1.80231568       0.01274249      -0.00396089       0.02029699
C        3.14331436       6.72566309       2.38859726       0.00823878      -0.00261517       0.01101985
H        2.57725540       9.98587745       3.07338497      -0.00254066       0.00003514      -0.01272929
H        5.96707621       8.18273161       1.20050914       0.01458006      -0.00497065       0.02354907
H        5.79888716      10.57777847       1.28038709       0.01555283      -0.00610481       0.01493803
H        4.24290453      11.30951226       1.67070641       0.00812213      -0.00642623      -0.01741377
H        5.38434800      10.96366150       2.95770239      -0.01290915       0.00802455       0.00441083
H        1.49118477       7.79505210       3.24747483      -0.00031260       0.00004700      -0.00908630
H        4.90044527       5.96749885       1.41440961       0.01784131      -0.00562093       0.03166857
H        2.65663026       5.76149211       2.44835363       0.01054949      -0.00342260       0.01402156
C        3.49120593       2.13588554       1.32328764      -0.00571305       0.00338851      -0.00423660
C        2.33809720       1.36727416       1.49201885      -0.00125781      -0.00323710      -0.00541580
C        3.35627428       3.41767047       0.79467248      -0.01288386       0.00490206       0.00163763
C        4.84109172       1.59269570       1.68969217      -0.00221238       0.00870508      -0.00938603
C        1.09312675       1.87804298       1.14369458      -0.00434786      -0.00806628      -0.00137271
C        2.10920497       3.94185475       0.47557931      -0.01592766       0.00038625       0.00574978
C        0.96669704       3.17277151       0.65206824      -0.01153132      -0.00664383       0.00414112
H        2.41466293       0.36300250       1.89596437       0.00434892      -0.00447261      -0.01042251
H        4.24655838       4.01328352       0.63256594      -0.01627161       0.01045988       0.00263249
H        5.56004302       2.39664883       1.84172602      -0.00467508       0.01113623      -0.01196406
H        4.79321024       1.01025179       2.60974047       0.00433157       0.00831302      -0.00953190
H        5.22891367       0.93207329       0.90913446      -0.00219808       0.01048337      -0.01056817
H        0.19990100       1.25326910       1.25742887      -0.00060040      -0.01332794      -0.00235631
H        2.02477935       4.95402041       0.10022713      -0.02156236       0.00162411       0.01057852
H       -0.00553042       3.58603272       0.41703995      -0.01406604      -0.01162599       0.00618193
C        7.80259368      10.87202668      10.95527070      -0.00487220      -0.00033763       0.00070875
C        7.82842020       9.48658320      11.10052670      -0.00466985       0.00051756       0.00636955
C        6.57439688      11.50669589      10.76949345      -0.00511200      -0.00117931      -0.00255010
C        9.08423457      11.65702932      10.97638192      -0.00554091       0.00084999       0.00106695
C        6.65113322       8.75188170      11.03275283      -0.00437331      -0.00011531       0.00997598
C        5.39742771      10.77207314      10.70802951      -0.00477262      -0.00190204       0.00100443
C        5.43249064       9.38808093      10.83279668      -0.00477803      -0.00127816       0.00762959
H        8.77404371       8.98712029      11.27913312      -0.00435001       0.00136597       0.00787460
H        6.54114503      12.58661571      10.67111565      -0.00534664      -0.00184777      -0.00813081
H        9.03302289      12.49430447      11.68729908      -0.00145170      -0.00919563       0.01319617
H        9.92911579      11.00223168      11.22045887      -0.00258994      -0.00016664      -0.01329632
H        9.29055081      12.08923117       9.99325506      -0.01342611       0.01538678       0.00611889
H        6.68974548       7.67512326      11.14603659      -0.00424658       0.00045490       0.01467868
H        4.44967085      11.27646865      10.56473328      -0.00479092      -0.00285278      -0.00158121
H        4.51387522       8.81644530      10.78595447      -0.00447397      -0.00157090       0.01080954
