147
Lattice="11.727822192615113 0.0 0.0 0.0 11.727822192615113 0.0 0.0 0.0 11.727822192615113" Properties=species:S:1:pos:R:3:forces:R:3 energy=-551840.125 stress="-0.004408832639455795 0.001428241201210767 0.0006461962766479701 0.001428241201210767 -0.0043646530248224735 -0.0014710300019942224 0.0006461962766479701 -0.0014710300019942224 -0.004805919714272022" pbc="T T T"
Hf      10.96960088      12.90723158      -0.06019942       0.00270885       0.00385405      -0.00824919
O        5.46738921      11.19872898      10.35172876       0.00981808      -0.00761700      -0.00056076
O        5.14796260       9.05869460      10.95719740       0.00116724      -0.00486612       0.00153387
C        3.66513599      10.00352115       9.40555283       0.00453281       0.00091714       0.00179362
C        3.00650152       8.78313260       9.28063744       0.00364604       0.00252929      -0.00405490
C        3.23547339      11.08684616       8.64490846       0.00392231       0.00495237       0.00850145
C        1.91899115       8.64736365       8.43793581       0.00385772       0.00733538      -0.00428573
C        2.16566264      10.94970173       7.77364976       0.00261045       0.01062438       0.01010054
C        1.50710309       9.73197032       7.67708810       0.00293681       0.01142529       0.00285095
C        4.85866222      10.10436484      10.32072614       0.00561571      -0.00318079       0.00040567
H        3.40149602       7.95132998       9.84502295       0.00248933      -0.00033979      -0.00775555
H        3.77233835      12.02297413       8.72011464       0.00424416       0.00395912       0.01269379
H        1.40334082       7.70000012       8.33152208       0.00426796       0.00813572      -0.00988488
H        1.86698422      11.77218050       7.13426633       0.00107142       0.01473384       0.01671623
H        0.69155094       9.61359845       6.98202613       0.00296606       0.01567082       0.00265792
O        3.78934802      12.50621963       4.32975869       0.00242949       0.01371861      -0.01358938
O        5.85414791      11.88860039       4.94853473      -0.00502229       0.03051084       0.02168444
C        4.09081888      10.29340110       5.09969557       0.00525719       0.02023280      -0.00000688
C        4.86871059       9.38034685       5.80528282       0.01027718       0.01803661      -0.00893587
C        2.80329198       9.91919627       4.71499793       0.00514065       0.02059294       0.00288658
C        4.37475895       8.11934093       6.10701275       0.01480645       0.01541319      -0.01588935
C        2.32165257       8.64708893       4.98610461       0.00803596       0.01951606      -0.00088181
C        3.11010687       7.73994749       5.67707518       0.01288271       0.01663226      -0.01070567
C        4.62319508      11.67058778       4.77119708       0.00055712       0.02169931       0.00377703
H        5.85477977       9.67167525       6.13880419       0.01062196       0.01812853      -0.01161864
H        2.17530474      10.65116635       4.22500110       0.00380776       0.02349463       0.00942568
H        4.98381828       7.43748287       6.68195061       0.01867998       0.01200388      -0.02453558
H        1.31086539       8.37255015       4.70337759       0.00704835       0.02037571       0.00340487
H        2.72333020       6.75509892       5.91189985       0.01554709       0.01567645      -0.01453296
O       10.94174799       8.82332278      11.25967752       0.00390558       0.00650656      -0.00698841
O       11.17172216      11.03368083      11.16187016       0.00248968       0.00573635      -0.01287204
C       10.55295911       9.89029735       9.15941178      -0.00264034       0.00153528      -0.00726771
C       10.60785588      11.06801905       8.41607780      -0.00949230       0.00046286      -0.00880144
C       10.14978584       8.71097950       8.53214762       0.00150345      -0.00071064      -0.00456354
C       10.21320864      11.08582940       7.08820284      -0.00974294      -0.00395834      -0.00816675
C        9.74245161       8.73024612       7.21080924       0.00119589      -0.00491808      -0.00372800
C        9.76022620       9.91967758       6.48801367      -0.00360447      -0.00680101      -0.00609025
C       10.90679909       9.83163147      10.59398847       0.00132889       0.00510269      -0.00882781
H       11.00041887      11.97413255       8.85310665      -0.01490692       0.00298891      -0.01034456
H       10.14269342       7.79244378       9.09803928       0.00568616       0.00069366      -0.00287922
H       10.27296308      12.00906810       6.52567098      -0.01476855      -0.00486371      -0.00956497
H        9.36729635       7.82349316       6.75713427       0.00483159      -0.00696078      -0.00169739
H        9.41657441       9.93574816       5.46087453      -0.00260863      -0.01038558      -0.00599833
O       10.67380292       3.07178041       0.44481810       0.00566299       0.00158888       0.00088298
O        8.99178335       4.31484694      -0.31660647       0.00186068      -0.00159842       0.00628972
C        9.94424233       4.87123180       1.80399744       0.00348781      -0.00232929       0.00481832
C        8.92580451       5.75364249       2.17747227       0.00163281      -0.00587887       0.00638712
C       11.07805545       4.74378633       2.61236743       0.00402869      -0.00038123       0.00358941
C        9.04825487       6.50255233       3.33740358      -0.00019026      -0.00766529       0.00720362
C       11.20424231       5.50317749       3.76624536       0.00248416      -0.00152540       0.00407670
C       10.19073230       6.38392943       4.12532818       0.00029317      -0.00519912       0.00573155
C        9.81011580       4.09393281       0.55074773       0.00398451      -0.00093327       0.00448394
H        8.04022296       5.83480662       1.56188053       0.00167643      -0.00746015       0.00688794
H       11.87425106       4.07431248       2.31936354       0.00549296       0.00201464       0.00277925
H        8.24688475       7.16468591       3.63382033      -0.00191824      -0.01075208       0.00879546
H       12.09085921       5.41370169       4.38128620       0.00228211       0.00010307       0.00375053
H       10.29379283       6.97979783       5.02313823      -0.00044200      -0.00653104       0.00614914
O        8.82244363       1.25316881       1.82165968      -0.01660541       0.01796342       0.00360358
O        9.69366911       1.16908586       3.84309051      -0.00809151      -0.02948457      -0.00438452
O       10.94960272       0.71699360       2.03037394      -0.02130067      -0.01041061      -0.01611027
C        7.65140722       1.48312464       2.71433511      -0.00961995       0.00694058       0.01393071
C        8.34180901       1.78088667       4.02632059      -0.00189823      -0.02278268       0.01465023
C        9.87209390       1.03043618       2.57249840      -0.01704149      -0.00672844      -0.00687727
H        7.05931219       0.57174499       2.74166641      -0.01473084       0.01055095      -0.00237803
H        7.09394541       2.29612818       2.26599927      -0.00626558       0.01852572       0.03360610
H        8.51812215       2.83752630       4.19306012       0.00731900      -0.02789873       0.03198916
H        7.85369152       1.28894305       4.86105499      -0.00164892      -0.03343919       0.00776690
O        5.91002362      10.51441196       1.53986325       0.00209367      -0.00940078       0.00582996
O        6.78186224       8.55980238       2.13862414       0.00465009      -0.00930873      -0.00037451
O        4.55638253       8.89318993       2.34016475      -0.00117385      -0.01509148       0.00394052
C        7.19131826      10.41906852       0.88683376       0.00188148      -0.00545517       0.00575310
C        7.88670831       9.40841402       1.76673117       0.00282785      -0.00721431       0.00125280
C        5.63373403       9.29215880       2.02125563       0.01205134      -0.00700474      -0.00044040
H        7.62855214      11.40517759       0.84353285       0.00159992      -0.00423783       0.01060092
H        7.01283130      10.04988792      -0.11850240       0.00252172      -0.00040135       0.00386620
H        8.64286923       8.81119406       1.26064804       0.00284579      -0.00517628      -0.00185402
H        8.30269293       9.84354029       2.68307370       0.00433089      -0.01044144       0.00182468
O        2.92308205       2.74892219      10.36741515       0.00113094       0.00567889      -0.00994671
O        1.05533075       3.90815140      10.22783527       0.00098896       0.00452739      -0.00329624
O        0.98769409       1.72623958      10.72807317       0.00261526       0.00413859      -0.00760630
C        3.38133900       4.14452278      10.24976990      -0.00028449       0.00614017      -0.00529251
C        2.10639357       4.87838243       9.86225582      -0.00039586       0.00556982      -0.00312257
C        1.62708590       2.76375465      10.45024653       0.00220119       0.00545903      -0.00738657
H        4.13627834       4.16190113       9.47295425      -0.00020462       0.01006741      -0.00484997
H        3.80428396       4.41624648      11.21772470      -0.00120937       0.00315297      -0.00450948
H        1.92053926       5.77327294      10.44265230      -0.00040381       0.00432387      -0.00180231
H        1.98737452       5.06196489       8.79964733      -0.00150859       0.00701671      -0.00237507
O        3.63622636       0.68784305       0.91575361      -0.00452465      -0.00308767      -0.01057700
O        3.21478674       2.63110078       1.90555721      -0.01391961      -0.00940317      -0.00404797
O        5.13907774       2.35198717       0.78305408      -0.02209306       0.00001007      -0.00088432
C        2.45126836       0.43875854       1.68126366      -0.00299234      -0.01185286      -0.01177029
C        2.08637941       1.81626944       2.24130921      -0.00930062      -0.01591952      -0.00614369
C        4.09768283       1.90992831       1.17664124       0.00080103       0.00330739      -0.01025817
H        2.70574543      -0.25895321       2.47214655       0.00088479      -0.01397568      -0.01549137
H        1.70787846       0.00146240       1.01024783      -0.00077091      -0.01196297      -0.01307218
H        1.20907095       2.27347703       1.77483009      -0.01147313      -0.01847556      -0.00352311
H        1.98071404       1.79937903       3.32236557      -0.00738426      -0.02021004      -0.00687879
O        6.46011830       3.90188496       4.78370470       0.00167747       0.00330171      -0.01919697
O        4.91641995       5.48388182       4.92423365      -0.00444010      -0.01170296       0.03117563
O        7.00408791       5.90685350       5.64840581       0.00010908      -0.01247519       0.01848161
C        5.32001513       3.40220807       4.02000184      -0.00437833       0.00973833      -0.01453176
C        4.20471597       4.30231360       4.49205049      -0.00318855      -0.00409009       0.00843640
C        6.19159837       5.17286717       5.15516598      -0.00801289      -0.01289704       0.00659987
H        5.16237753       2.34596947       4.24395799       0.00100178       0.00612861      -0.02474135
H        5.52707183       3.57277578       2.96427216      -0.01516631       0.02253166      -0.01431334
H        3.52645115       4.59148647       3.69759221      -0.00817800       0.01031022       0.01618952
H        3.66084172       3.89829231       5.34828173      -0.00048931      -0.02396867       0.00065541
O        8.10450867       1.23990838       8.63198549      -0.00113684       0.00255558       0.00099146
O        7.23075868       1.82696758      10.56746833      -0.00165665       0.00170761       0.00001347
O        9.37872827       1.28217170      10.44733930      -0.00026742       0.00850612      -0.00033064
C        6.64671785       1.28678196       8.37482026      -0.00125438      -0.00176288       0.00104642
C        6.14435744       2.02922866       9.60270557      -0.00274301      -0.00328934       0.00057352
C        8.26729753       1.44372921       9.90375614      -0.00226751       0.00441392       0.00014554
H        6.30876335       0.25411117       8.34917582       0.00165352      -0.00235927       0.00127032
H        6.50410572       1.79242333       7.42370453      -0.00301500      -0.00333926       0.00087747
H        6.06974088       3.10820869       9.47199378      -0.00713414      -0.00396052      -0.00000681
H        5.26930953       1.57502859      10.04911752      -0.00043070      -0.00563523       0.00174613
O        9.83146035       5.54615794       8.06339284       0.01355316      -0.00191766       0.00481918
O       10.64240607       3.91511906       6.79070498      -0.00076118      -0.00051710      -0.00403977
O       12.01544897       5.53573264       7.52922374      -0.00457644      -0.00907968      -0.01618749
C        8.73013200       4.62784696       7.88344196       0.01039129       0.00083887       0.01336911
C        9.20417935       3.79233931       6.70943297      -0.00117323       0.00045690       0.00892141
C       10.92425697       5.04395630       7.46687185       0.02220982       0.00443816      -0.00510385
H        7.84288277       5.20946510       7.64738405       0.01071179       0.00268880       0.02089106
H        8.61819535       4.06762728       8.81360223       0.01720379       0.00114965       0.01358014
H        8.94923438       2.73847978       6.77532882      -0.00055755       0.00165921       0.01153938
H        8.87433573       4.22810147       5.76698743      -0.00884272       0.00136381       0.01266089
O        2.65255849       6.60577280       2.37193163      -0.00603737       0.00169826       0.00022230
O        3.23108228       6.91666692       0.25429659      -0.00249909      -0.00033641       0.00154141
O        4.39537939       5.46853370       1.50538258      -0.00853699      -0.00439847       0.00294213
C        1.72207999       7.59266950       1.87472516      -0.00119424       0.00500470      -0.00020355
C        2.29105312       7.97813632       0.51991470       0.00066277       0.00190523       0.00002289
C        3.51789589       6.27973956       1.40511548      -0.00751692      -0.00014567       0.00152208
H        1.71263279       8.41997754       2.57481300       0.00220036       0.00511116      -0.00048539
H        0.73750426       7.13115702       1.81020013      -0.00298387       0.00949088      -0.00015860
H        1.54018095       7.99182066      -0.26514218       0.00136694       0.00334213      -0.00036070
H        2.85856616       8.90570439       0.53122287       0.00308177       0.00017464      -0.00090276
O        7.76107329       8.42949234      10.14412896      -0.00092252      -0.00833202      -0.00460923
O        6.32957416       7.37128039       8.81232212      -0.00509815      -0.01227951       0.00357358
O        7.00172867       9.46220625       8.30059871      -0.00341804      -0.02710319       0.00133318
C        7.49226498       7.19703441      10.82281756       0.00204876      -0.00701892      -0.00041392
C        6.38075651       6.56036610       9.99090434      -0.00330800      -0.00736323       0.00726679
C        7.00999253       8.51930807       9.03229586      -0.00300636       0.00043076      -0.01308990
H        7.14693377       7.42731929      11.82632799       0.00814365      -0.00457291       0.00025505
H        8.40719027       6.60926207      10.85169751       0.00120097      -0.00728619      -0.00526107
H        6.61063520       5.53584701       9.70081011      -0.00765777      -0.00839451       0.01083335
H        5.41850860       6.62520294      10.49482532      -0.00070775      -0.00077683       0.01009724
