147
Lattice="12.318678462870384 0.0 0.0 0.0 12.318678462870384 0.0 0.0 0.0 12.318678462870384" Properties=species:S:1:pos:R:3:forces:R:3 energy=-502889.25 stress="0.002280710730701685 0.0006613382429350168 -9.330876491731033e-05 0.0006613382429350168 0.0009690170409157872 0.00031965597008820623 -9.330876491731033e-05 0.00031965597008820623 0.0008009974262677133" pbc="T T T"
Hf      12.90793100      13.32047761      -0.46059905       0.01224306       0.02022696      -0.00305459
O       11.72483901      12.92770610      10.57761552       0.00764281       0.02060760       0.00159225
H        9.96824835      12.92185913      11.22455143       0.02018958       0.00341915       0.01105803
O        9.42006739      13.00791993      12.03484393       0.01478212      -0.00651479       0.01666012
H        8.91501912      12.19553070      12.15095028       0.02924705       0.00048274       0.01515662
O        4.25682515      10.96675493       3.21922900      -0.01201797       0.00224024      -0.01816261
H        4.19267337      11.13360027       2.27448367      -0.01080360      -0.00177867      -0.01913750
O        2.33949992      10.68245254       8.96017808      -0.04748286      -0.00676215       0.00730559
H        2.26052688      11.29793472       8.20336393      -0.01775200      -0.00723252       0.01459163
O        9.36229833       8.63278897       7.93298277       0.00227364       0.00311074      -0.00590169
C        9.57878055       9.89887117       7.31629608       0.00270211       0.00319546      -0.00608088
H       10.57706390      10.27897723       7.55120508       0.00233942       0.00371180      -0.00473201
H        8.83433435      10.63574965       7.63446287       0.00153503       0.00261037      -0.00719805
H        9.50072389       9.75038296       6.24113329       0.00407956       0.00268891      -0.00621286
H        9.58692274       8.72231860       8.87647241       0.00032786       0.00324560      -0.00524390
O        6.02673111       9.20807726       2.97606625      -0.00293320       0.00627625      -0.00874586
C        5.71060010       7.87051157       3.26456587      -0.01609672       0.01028496      -0.00224264
H        5.38674051       7.74024444       4.30432186      -0.01941735       0.01967176      -0.00201172
H        6.60587752       7.25880096       3.11308417      -0.02195495       0.00071608       0.00203275
H        4.92302980       7.47157699       2.61134091      -0.01954013       0.01527655      -0.00118685
H        5.24886652       9.87381441       3.19112246      -0.00130282       0.00776967      -0.01359282
O        2.86233475       2.54523644       1.18926912      -0.01357460      -0.00628838      -0.00495967
C        3.16684867       2.67850509       2.60466981      -0.00871427      -0.00218412      -0.00582516
H        3.82281091       3.53470475       2.75825951      -0.00782898      -0.00168070      -0.01151574
H        3.65364794       1.77400615       2.96863616      -0.00745544      -0.00087723      -0.00380705
H        2.21871714       2.85137085       3.10775957      -0.00691232       0.00030896      -0.00297187
H        3.69297883       2.48986528       0.70198825      -0.01358742      -0.01090727      -0.00498971
O        1.87160071      12.26153607       6.73371408       0.00456417      -0.00287712       0.00437610
C        2.74285481      12.02188280       5.60930764       0.00690234      -0.00269610       0.00587239
H        2.21088861      12.11730952       4.66316071       0.00913939      -0.00180462       0.00460258
H        3.19292969      11.03037797       5.65393904       0.00549318      -0.00354958       0.00619358
H        3.53386560      12.76665885       5.64001787       0.00746422      -0.00299838       0.00826570
H        1.01377184      11.88294441       6.52660065       0.00278732       0.00305183       0.00059596
O        9.32532369       7.83720981       4.46103254       0.00380975      -0.00010949      -0.00692504
C       10.06951348       6.68632602       4.82220821       0.00565314       0.00129738      -0.00509707
H        9.67186962       5.77416200       4.36251406       0.00734852       0.00005475      -0.00428948
H       10.10168534       6.54102566       5.90581678       0.00551628       0.00284405      -0.00474200
H       11.09010913       6.82706875       4.46663492       0.00562513       0.00245858      -0.00505866
H        8.46994091       7.77235665       4.91168453       0.00385512      -0.00052826      -0.00686928
O        9.75835942       5.48251044       9.14913442      -0.00150394      -0.00160047       0.01815542
C       11.04408421       5.88463838       8.71744169      -0.00747332       0.00119026       0.00163251
H       11.64216574       5.04056212       8.35226741      -0.01125534       0.00223070      -0.00740270
H       11.55437914       6.32391445       9.57717929       0.00356703       0.00123017      -0.00490603
H       11.00172060       6.64817954       7.93560009      -0.01929260       0.00179824       0.00287572
H        9.28829731       5.07150916       8.40035485      -0.01019394       0.00196557       0.02151482
O        8.15906795       4.63969304       7.01634055      -0.00204262       0.00787973       0.01257214
C        7.68390268       3.72092960       6.04410284       0.00665431       0.00517696       0.01049495
H        8.20439764       3.82721585       5.08676640       0.00739959       0.01081982       0.01134071
H        6.61042289       3.84136192       5.86573365       0.00591329      -0.00315932       0.00871103
H        7.85415772       2.71206975       6.41496903       0.01424877       0.00597811       0.00945458
H        7.90347844       5.55115185       6.75783142       0.00010522       0.00720520       0.00728397
O        3.48562114       8.20321230       8.51502747      -0.00341964       0.01082081      -0.01672891
C        2.38595719       7.35706108       8.26946056      -0.00286338       0.00814909      -0.00171429
H        2.70148234       6.56665944       7.58425504      -0.00101194      -0.00482616       0.01214378
H        1.54723989       7.89304969       7.81321462      -0.00298700      -0.00145108      -0.01239423
H        2.02210257       6.87672326       9.18981179      -0.00386699       0.02327210       0.00626820
H        3.13789789       9.08325424       8.75075303      -0.00752984       0.00946261      -0.00444367
O        5.84735097       0.81359748       3.50988689      -0.04244243       0.00054947       0.01280463
C        6.32548281       1.14082320       2.23017928      -0.01337984      -0.00712764       0.02198887
H        6.18615120       2.21405909       2.03873443      -0.01216095      -0.00904623       0.00961318
H        5.81404405       0.58294585       1.43458214       0.00627144      -0.01465797       0.01432490
H        7.40082589       0.93782128       2.12115804      -0.01017511      -0.00500804       0.04860630
H        5.31514759      -0.03070983       3.45948751      -0.04073432      -0.00212118       0.00316069
O       10.03137984       9.40254281      10.54721414       0.00243792      -0.00517100      -0.00569323
C        8.75197953       9.59120821      11.17603138       0.00480406       0.00349689      -0.00355191
H        8.08621216      10.20674425      10.56577403       0.00798836       0.01149495       0.00074150
H        8.85997406      10.02256645      12.17327916       0.00804694      -0.00286879      -0.00086281
H        8.29996253       8.60781975      11.27865455      -0.00277826       0.00641650      -0.00768504
H       10.46563303      10.26008241      10.46209914       0.01231366      -0.00934011      -0.00460751
O       11.77199571       7.16312739       0.49842088       0.00215998       0.00219101      -0.00844795
C       11.30899203       8.12530120       1.46504936       0.00049622      -0.00267904      -0.00429148
H       10.61101682       8.81967570       0.99674519      -0.00201347      -0.00281671      -0.00091401
H       12.14956170       8.67555494       1.90040252      -0.00047016      -0.00188072      -0.00309697
H       10.78139123       7.57555849       2.24046943       0.00261019      -0.00711384      -0.00583628
H       12.00366670       7.64731001      -0.29951945      -0.00642164       0.00523430      -0.00947261
O       11.50342545       0.82595872       1.12520556       0.02339184      -0.00042780       0.00464073
C       11.23992065       1.60998079       2.32429884       0.02942953      -0.00850087       0.01103884
H       10.65071555       2.48358626       2.04820327       0.03090961      -0.00413358       0.02083246
H       12.18257412       1.93259462       2.75378565       0.03139651      -0.01362629       0.01025418
H       10.68449756       0.98493959       3.01770217       0.03044671      -0.01246411       0.00866120
H       10.58286429       0.64625354       0.66695429       0.01965421       0.00132656       0.00813755
O        8.27632787       5.29840348      12.29489249       0.00761081       0.00153422      -0.00992692
C        9.25775406       4.26944051      12.18978771      -0.00308231      -0.01128262       0.01361450
H       10.10193637       4.47405097      12.85819205      -0.00031775      -0.00455444       0.00836453
H        9.61622475       4.17825876      11.16203197      -0.00405037      -0.03774572       0.01563364
H        8.78543763       3.33595539      12.48813623      -0.01140599      -0.00051403       0.03449325
H        8.59016527       6.04880448      11.78154185       0.00971156      -0.01910774      -0.03853686
O        1.28573476       5.51430595       1.72707260       0.00067061      -0.00536962      -0.01360387
C        2.52781976       6.22369184       1.86600412      -0.00239189      -0.00202405       0.00137480
H        3.08401977       5.76011973       2.67976121      -0.01286182       0.00273655       0.01160778
H        2.36358284       7.27618976       2.11104166      -0.00847355      -0.00134701      -0.00525366
H        3.12856925       6.14420834       0.95493813       0.01060963      -0.00459297       0.01010945
H        0.65707374       6.11044201       1.27430256       0.00208537      -0.00313520      -0.01312165
O        5.38597944       2.83672143       9.40177305       0.00326604      -0.00253223       0.00888935
C        6.74218953       3.11971140       9.73394135       0.00311461      -0.00750232       0.01329385
H        6.91881148       2.70305990      10.72445446       0.00130919      -0.01839010       0.00933158
H        6.93909557       4.19282737       9.76897131       0.00433650      -0.00795975       0.02514162
H        7.43803334       2.65788057       9.02639055       0.00358242      -0.00094843       0.00942197
H        5.15530350       3.36964279       8.63762724       0.00785560      -0.00146493       0.00695463
O        5.62155436       9.96045405       0.40392673      -0.00135177      -0.00880501      -0.01415611
C        4.29687422       9.52921041       0.14051985      -0.00080645      -0.01293819      -0.01155549
H        4.10522388       8.53137412       0.54589220       0.00237573      -0.01246956      -0.00849611
H        4.15261511       9.49273141      -0.94067635      -0.00195363      -0.01653015      -0.01131719
H        3.53646121      10.20203279       0.55995427      -0.00198576      -0.01368719      -0.01252176
H        5.84330812       9.66777776       1.32125321      -0.00056787      -0.00374499      -0.01292856
O        0.98725580       3.05742990      11.94930142       0.00097424       0.02426583      -0.01364809
C        0.61554738       4.25773915      11.21885284      -0.01006134       0.01536834      -0.02140924
H       -0.06126831       4.84605117      11.83048460      -0.00755754       0.01815687      -0.02090275
H        0.12514998       3.93352836      10.30655483      -0.01629744       0.00429031      -0.01426505
H        1.52556177       4.81100730      10.99737349      -0.01345663       0.01618178      -0.03346679
H        1.72093667       3.19735037      12.64145740      -0.00338262       0.03317314      -0.01451659
O        7.50098319       7.22934786       6.58980543       0.00230664       0.00579785      -0.00551158
C        6.18501203       7.42441468       7.12149759       0.00295602       0.01162406      -0.00568781
H        5.87358335       8.46681121       7.05314911       0.00672831       0.01270387      -0.00811442
H        6.12547011       7.10408041       8.16249460       0.00206687       0.01413949      -0.00474283
H        5.49762935       6.82068282       6.53173248       0.00048475       0.01269075      -0.00419988
H        8.13876173       7.70574242       7.16925913       0.00360208       0.00690322      -0.00713342
O        2.25806375       0.11801820      11.43838382       0.00628960       0.00873720      -0.00320484
C        3.66755915       0.25940554      11.34321622       0.00794577      -0.00715264       0.00098448
H        4.12937131       0.13621908      12.32415047       0.00430516      -0.01192389       0.00269887
H        3.92431185       1.23744738      10.92436064       0.02043740      -0.01039577       0.00027932
H        4.07693636      -0.50219325      10.68023696       0.00046653      -0.01386258       0.00369409
H        2.14291742      -1.11454420       9.74751848      -0.01367704       0.00187228       0.01207252
O        2.01981607       9.55058366       3.14144319      -0.00736403       0.00275606      -0.00236440
C        1.66189350       8.95871066       4.36119254       0.00853303       0.00224566       0.00198555
H        2.52566949       8.56568922       4.91312881       0.01681146       0.00828815      -0.00632261
H        0.98352892       8.12236244       4.16159018       0.01138979      -0.00224864       0.01048458
H        1.12919761       9.65114720       5.03190031       0.01156321       0.00020954       0.00672144
H        2.85543330      10.10530580       3.26062866      -0.00689664       0.00480486      -0.01089442
O        5.47237262       5.50892687      11.82442596      -0.00350717      -0.00187558       0.01699901
C        5.74018145       6.71614702      11.12501919      -0.00426995      -0.01093546       0.00008062
H        6.52931291       6.57825278      10.37476045      -0.01048866      -0.02300503      -0.00425056
H        6.04124910       7.52390289      11.80176716       0.00380822      -0.00399730      -0.01174015
H        4.83349988       7.02464328      10.60520788      -0.00727975      -0.01373078       0.00337793
H        6.33511966       5.20232213      12.13951445      -0.00198402       0.00143561       0.01664343
O        0.32917084       4.08583964       3.85606898      -0.01153983       0.00585301      -0.00695240
C        0.75604055       4.62795367       5.09699498      -0.00372699      -0.00215086      -0.00622311
H        1.30461323       5.56496531       4.96380709      -0.00303315      -0.00201699      -0.00310105
H        1.40827987       3.91995966       5.61884070      -0.00187863      -0.00600481      -0.01316848
H       -0.10896468       4.82735658       5.73522327      -0.00029495      -0.00464211      -0.00066110
H        0.64572432       4.66608784       3.13675049      -0.00537223       0.00239040      -0.00713500
O        9.68745528      11.13093351       1.97690728       0.00979197      -0.00117305       0.00601587
C        8.52754768      10.47608149       2.52375862       0.00468101       0.00322355       0.00018217
H        8.52050291       9.40859533       2.30408548       0.00767022       0.00154212       0.00885775
H        7.65993672      10.93662407       2.06212359       0.00817257      -0.00152777      -0.01133165
H        8.45728499      10.61095343       3.60363100      -0.00529749       0.01287257      -0.00154385
H       10.46803538      10.71700216       2.35387331       0.00472683      -0.00713809       0.01165000
