141
Lattice="13.340329078498227 0.0 0.0 0.0 13.340329078498227 0.0 0.0 0.0 13.340329078498227" Properties=species:S:1:pos:R:3:forces:R:3 energy=-507118.34375 stress="0.00061339809326455 8.888623415259644e-05 2.2554443603439722e-05 8.888623415259644e-05 -0.00021669418492820114 -0.0004696084215538576 2.2554443603439722e-05 -0.0004696084215538576 0.00011619900033110753" pbc="T T T"
Hf      13.00193613      11.75592938       1.04907154      -0.00962529      -0.02391914       0.00657000
B        4.48774424       7.02251925       2.19450313      -0.00307017       0.00796433      -0.00156038
F        4.77547557       8.11307339       1.34566536      -0.00386268       0.00142217      -0.00990558
F        4.43638902       7.48550768       3.52587131       0.00346777       0.01655573      -0.00421166
F        3.25764723       6.47011651       1.83735381      -0.00638866       0.00926775       0.00742906
F        5.51120231       6.06616129       2.08041266      -0.00612724       0.00465405       0.00068854
B        0.16846441      12.12614737       5.36766658      -0.01268094      -0.00306354       0.00147688
F       -0.58388093      11.80292079       2.96474325      -0.00054595      -0.02438720       0.00803441
F       -0.17870224      10.89058961       5.65306933       0.00206128       0.00060809       0.01862303
F        1.38082800      12.38169815       4.92719078      -0.01840657       0.00346104      -0.01440789
F       -0.67295968      13.11230639       5.58184367      -0.02208930      -0.00474536       0.00608144
B        2.92939013      12.60462722      10.65093056      -0.01689741      -0.00315594       0.03562142
F        3.58392288      13.29696262      11.55425480      -0.00675997      -0.00243285       0.01290810
F        3.13534719      12.80954983       9.37320565      -0.02133279      -0.02247283       0.01717055
F        2.04676628      11.70419739      11.04136833      -0.02234399       0.01332432       0.04222807
F        0.31699553      13.46448322      13.98356736      -0.00665072      -0.02127492       0.02257201
B       11.32165233      10.91200473       9.79581609       0.00903061      -0.00380809       0.01028561
F       10.84059151       9.90133312      10.48269950       0.00506596      -0.00529903       0.00699180
F       12.32457982      11.23267261      12.67365606       0.01437265      -0.00359543      -0.01136601
F       12.60311137      10.98967635       9.53368830       0.00687879      -0.00984323       0.00625469
F       10.50589430      11.83906771       9.34569673       0.01088810       0.00220418       0.01715887
C       11.65774510       9.22042661       1.64649945       0.01594079       0.00114468      -0.00830227
C       10.37000738       9.94425304       1.24913832       0.01953572       0.00257167      -0.02027981
C       11.65032773       7.74959428       1.22184269       0.01096100      -0.00244310       0.00230350
C       10.20552986      11.40391606       1.66745017       0.01149444       0.00372507      -0.02211469
C       12.96861263       7.03790487       1.49465234       0.00989321      -0.00200282       0.00765347
C        8.85472042      11.97406323       1.25117232       0.00179085      -0.01086646      -0.01492328
H       12.56325764       9.61807662       1.12393517       0.02281079      -0.01471286      -0.00897019
H       11.84555558       9.31127774       2.72171731       0.01147217       0.00817615      -0.00796488
H        9.53923576       9.40250684       1.71633029       0.01715061       0.00177218      -0.02561030
H       10.22090491       9.85734024       0.16886416       0.02819843       0.00149779      -0.02096701
H       10.82801283       7.25312894       1.74553075       0.00975415       0.00373814       0.00617416
H       11.40813797       7.69907130       0.15518834       0.01103147      -0.00863441       0.00265664
H       10.37774184      11.53439239       2.73748288       0.01460538       0.00685367      -0.02298632
H       10.92638512      12.12121431       1.15734167      -0.00252661       0.01118669      -0.03081234
H       13.79721290       7.48556524       0.94164747       0.01086582      -0.00588739       0.00576009
H       12.91962124       5.99134301       1.19474038       0.00927978      -0.00367540       0.01375064
H       13.23063760       7.06592112       2.55319247       0.00903269       0.00421637       0.00770739
H        8.69984484      11.86457122       0.17666803      -0.00599814      -0.01930357      -0.01278944
H        8.05615598      11.43836915       1.76504738       0.01176763      -0.01586470      -0.00485426
H        8.77223619      13.02752934       1.50877616      -0.00638886      -0.01001176      -0.02051902
C       10.02372551       1.76203295       3.18554200      -0.00226097       0.00517783      -0.00501460
C        8.67986064       2.28543008       3.68181417      -0.00323457       0.00122422      -0.00350934
C       11.22726136       2.49640506       3.76636288      -0.00470950       0.00624889      -0.00134864
C        7.48943584       1.52022323       3.11255044      -0.00245333       0.00072438      -0.00442201
C       12.54065632       2.07027029       3.12477461      -0.00200695       0.00795239       0.00329855
C        6.14184056       2.07368835       3.54855316      -0.00285316      -0.00155905      -0.00216110
H       10.11104154       0.69452337       3.42686150      -0.00013124       0.00466907      -0.00792030
H       10.05223846       1.83359833       2.09020348      -0.00135109       0.00843896      -0.00479954
H        8.58687482       3.34567423       3.42309600      -0.00518733       0.00182599      -0.00034539
H        8.65273697       2.23705445       4.77692592      -0.00237995      -0.00195803      -0.00358281
H       11.08858650       3.57535312       3.64179452      -0.00593951       0.00616491      -0.00121263
H       11.27094793       2.31282011       4.84441964      -0.00837935       0.00594793      -0.00108993
H        7.54714708       1.53658650       2.01883787      -0.00329820       0.00279363      -0.00448593
H        7.56790997       0.46827029       3.40679242      -0.00089207       0.00033852      -0.00626616
H       12.69220010       0.99590960       3.23983582       0.00141303       0.00852518       0.00661094
H       13.39735084       2.57165501       3.57709504      -0.00490922       0.01234907       0.00384276
H       12.54875922       2.29617046       2.05650421      -0.00012377       0.00444185       0.00257847
H        6.05960095       2.09581507       4.63615583      -0.00184827      -0.00331674      -0.00198442
H        5.99755480       3.09239175       3.18777639      -0.00438662      -0.00102234      -0.00026809
H        5.32028532       1.46458541       3.16746767      -0.00261320      -0.00181738      -0.00230284
C        5.55496587       5.65741016       6.01493111      -0.00649445       0.00521272      -0.00123942
C        6.73207051       5.48127409       5.06531117      -0.00457615       0.00448966       0.00119692
C        4.65267085       4.43191500       6.08413074      -0.00495824       0.00414443       0.00079837
C        7.55101110       6.75106349       4.87836509      -0.00551078       0.00511241       0.00069268
C        3.47520474       4.62313814       7.02929311      -0.00537485       0.00432681       0.00035384
C        8.72744720       6.55234757       3.93229961      -0.00531203       0.00609994       0.00072065
H        5.91828617       5.89225127       7.02272092      -0.00842871       0.00868013      -0.00126874
H        4.96515064       6.51348869       5.67809989      -0.00716624       0.00356966      -0.00447072
H        6.34956181       5.18658528       4.08534811      -0.00262281       0.00238563       0.00094780
H        7.37917456       4.66813587       5.41950285      -0.00450569       0.00562437       0.00373806
H        4.28527602       4.20951994       5.07867126      -0.00451225       0.00183120       0.00112680
H        5.23823046       3.56144719       6.39936042      -0.00391611       0.00535506       0.00247626
H        6.88856752       7.52189553       4.47794720      -0.00625107       0.00436139       0.00031219
H        7.91087471       7.11149158       5.84798908      -0.00598571       0.00576270       0.00066027
H        3.81653092       4.82403501       8.04735967      -0.00570813       0.00463087       0.00044386
H        2.83118754       3.74264073       7.06101395      -0.00532299       0.00424780       0.00043660
H        2.86638108       5.47157406       6.71351556      -0.00546034       0.00420438       0.00004356
H        9.40771567       5.77734785       4.29736265      -0.00450265       0.00663185       0.00068732
H        8.36937063       6.25067145       2.94589466      -0.00505476       0.00584562       0.00067300
H        9.30820673       7.47006990       3.81409524      -0.00620581       0.00669388       0.00087178
C        9.04918865       4.28471861      11.65263995      -0.00217161       0.00300497       0.00427726
C        7.52564827       4.31440262      11.62363109      -0.00210464       0.00355384       0.00051641
C        9.64423562       3.13230932      10.85038138      -0.00020173       0.00468743       0.00335315
C        6.90661155       5.48291260      12.38227635      -0.00322413       0.00241426       0.00140113
C       11.16736541       3.12270117      10.84861871      -0.00014937       0.00566800       0.00618061
C        5.38949466       5.52317886      12.27765551      -0.00307095       0.00317893      -0.00143960
H        9.43743797       5.23291386      11.26096986      -0.00099878       0.00383854       0.00734474
H        9.39656656       4.22521851      12.69120880      -0.00487725       0.00065226       0.00510788
H        7.13900308       3.37251532      12.03150210      -0.00356793       0.00285053      -0.00231443
H        7.19192888       4.34528348      10.57881282       0.00048542       0.00582522      -0.00024042
H        9.26895703       2.18541386      11.25334037      -0.00037464       0.00379446       0.00109078
H        9.27547697       3.18743613       9.82031814       0.00154068       0.00617094       0.00280243
H        7.18590349       5.43599337      13.43832582      -0.00513855       0.00054528       0.00188369
H        7.32624023       6.42001761      12.00024095      -0.00219767       0.00295976       0.00381701
H       11.56343138       4.04986987      10.42772429      -0.00011992       0.00671405       0.00848354
H       11.56678425       2.29481107      10.26027503       0.00148822       0.00695555       0.00551549
H       11.56292641       3.03139260      11.86289957      -0.00208705       0.00420853       0.00680369
H        5.07201213       5.54899245      11.23158321      -0.00098346       0.00539847      -0.00209141
H        4.94452707       4.64333357      12.74438188      -0.00424930       0.00225863      -0.00429583
H        4.98323208       6.39358094      12.78893229      -0.00356486       0.00239658      -0.00046656
C        9.47409940       7.47613422       8.27552942       0.00078857      -0.00160146       0.00249046
C       10.05585418       6.11909796       7.90223326       0.00055188      -0.00015879      -0.00078795
C        8.09359099       7.39454161       8.91512310       0.00090265      -0.00070339       0.00234452
C       11.43836448       6.21440238       7.26778318       0.00042510      -0.00280848       0.00435824
C        7.50987068       8.75992885       9.25063198       0.00359218      -0.00028056       0.00463855
C       12.03587444       4.85455671       6.93573270      -0.00040039      -0.00021869      -0.00084256
H       10.15847651       7.97904884       8.96645275       0.00199239      -0.00284444       0.00348383
H        9.42229769       8.10797623       7.38027249       0.00196736      -0.00056179       0.00370228
H        9.37370244       5.60477761       7.21460628       0.00114001       0.00006370       0.00000098
H       10.10997524       5.49078638       8.79974329       0.00112503      -0.00106166      -0.00309634
H        7.41745424       6.86159237       8.24048237      -0.00039586       0.00197764       0.00057331
H        8.15369177       6.78633250       9.82325570      -0.00038773      -0.00281221       0.00082901
H       11.37254757       6.82046564       6.35806473       0.00271743      -0.00037752       0.00312269
H       12.10525204       6.75768300       7.94581218       0.00139263      -0.00225034       0.00189450
H        8.15357841       9.30182484       9.94602089       0.00387895      -0.00209019       0.00576152
H        6.52413574       8.67159215       9.70907329       0.00313841       0.00055534       0.00470643
H        7.40712732       9.37190531       8.35197532       0.00400572       0.00127537       0.00564528
H       12.13342566       4.23898619       7.83298695      -0.00159901       0.00040214      -0.00129105
H       11.40059035       4.31104187       6.23456168      -0.00046015      -0.00036019       0.00114806
H       13.02558333       4.94395108       6.48613063      -0.00036645      -0.00357218       0.00027761
C        3.79998650      10.73631905       2.79727017       0.00628313      -0.00326680      -0.00474933
C        5.29487879      10.87039924       3.04598667       0.00674492      -0.00280154      -0.00721756
C        3.41055966      11.00383086       1.34650959      -0.00073254      -0.00448117      -0.00263777
C        5.66919019      10.53921853       4.48614460       0.00584075      -0.00019118      -0.00626460
C        1.90751441      10.74257066       1.16500056       0.00048751      -0.01674226       0.00314504
C        7.17048375      10.59911983       4.73416691       0.00544977       0.00012954      -0.00411548
H        3.50064927       9.71896199       3.06647529       0.00855253      -0.00370181      -0.00411040
H        3.25578239      11.42432700       3.45690351       0.00692052      -0.00458594      -0.00291671
H        5.62780420      11.88715553       2.79771037       0.00812377      -0.00373191      -0.00939563
H        5.81421194      10.18057050       2.37406241       0.00590724      -0.00484037      -0.00578311
H        3.64184436      12.03463106       1.06067046      -0.00914065      -0.00297770      -0.00363473
H        3.95865446      10.32594370       0.69142091       0.00083137      -0.00098169      -0.00521690
H        5.15465824      11.22688684       5.16653842       0.00480938       0.00119486      -0.00841060
H        5.29671667       9.53689165       4.71132660       0.00536557       0.00039846      -0.00492948
H        1.67055254       9.67888690       1.27053024       0.01207431      -0.01994357      -0.00511049
H        1.58566697      11.09230287       0.15674195      -0.00687353      -0.01329605       0.00745162
H        1.45473418      11.27907870       2.02960947      -0.00498962      -0.03003634       0.00908330
H        7.69443178       9.90290991       4.07416778       0.00654452      -0.00109725      -0.00195692
H        7.56568937      11.60102400       4.54464913       0.00562997      -0.00007914      -0.00515099
H        7.42388464      10.33131226       5.76170593       0.00349041       0.00207966      -0.00314185
