146
Lattice="12.84977000138696 0.0 0.0 0.0 12.84977000138696 0.0 0.0 0.0 12.84977000138696" Properties=species:S:1:pos:R:3:forces:R:3 energy=-544490.5625 stress="0.00044867864926345646 0.00027781567769125104 0.000167313584825024 0.00027781567769125104 0.0006964579806663096 -0.000734703557100147 0.000167313584825024 -0.000734703557100147 0.0007906951941549778" pbc="T T T"
Hf      14.82321576      12.29226417      -0.34179894      -0.00282267       0.00135455      -0.00220475
S       11.87714729      11.71154855       5.69157976       0.00674421      -0.00357981      -0.00055064
S       13.94026434      12.04670078       6.13018255       0.01212078      -0.02167866      -0.00567277
O       11.08955819      12.76528280       6.29043105       0.01525337       0.00001240       0.01078939
O       11.57872998      10.37879699       6.17990054      -0.00137362      -0.00214398      -0.00953257
O       12.09863037      11.82685727       4.25032350       0.00125995       0.00791784      -0.00029826
S        2.22570776      12.35156421       8.70800988       0.01834494      -0.02973640      -0.01217526
S        2.02650894      11.06275379      10.39520769      -0.00330435      -0.01057935       0.00369820
O        1.87256942      13.70807985       9.03278136      -0.04202434      -0.01145026      -0.00733167
O        1.08083883      11.67090855       7.85306438       0.02145452      -0.04240750      -0.01254070
O        3.49869617      12.12349851       8.08639112      -0.00856197       0.01406476       0.02731273
C        4.96305297       4.82838917       8.55607784       0.00020356      -0.00433046       0.00389483
C        6.30738429       5.15174417       8.36325844       0.00012018      -0.00448328       0.00146513
C        4.53478182       3.54525530       8.21365596      -0.00053471      -0.00388928       0.00305936
C        4.00057278       5.84870461       9.09167347       0.00158018      -0.00437465       0.00642395
C        7.19528025       4.22609176       7.82997402      -0.00125594      -0.00410739      -0.00130349
C        5.42122116       2.61304033       7.68245296      -0.00189721      -0.00372866       0.00019876
C        6.75513078       2.95246428       7.48608490      -0.00210075      -0.00348915      -0.00189178
H        6.66614725       6.13741513       8.64112422       0.00078800      -0.00456771       0.00154701
H        3.49832761       3.26561597       8.37085918      -0.00072405      -0.00358090       0.00426289
H        3.12441395       5.37138584       9.53210999       0.00144114      -0.00413387       0.00669245
H        4.46833730       6.48151693       9.84782578       0.00275359      -0.00582710       0.00702448
H        3.64969233       6.50914769       8.29437027       0.00144096      -0.00281993       0.00768507
H        8.23405126       4.50006214       7.69283973      -0.00126360      -0.00401501      -0.00318255
H        5.07078796       1.61706799       7.43603385      -0.00260537      -0.00329179      -0.00010410
H        7.45011759       2.22583357       7.08366264      -0.00299527      -0.00334795      -0.00425839
C        5.92583380      10.15620394       6.68522657       0.00205256       0.00161284      -0.00405358
C        7.27401302      10.10018651       7.04365013       0.00219852      -0.00137798      -0.00482285
C        5.50837200      11.18868566       5.84453330       0.00322843       0.00504045      -0.00095946
C        4.94460534       9.15507011       7.21936874       0.00085682       0.00122279      -0.00688529
C        8.17953007      11.05193773       6.58982662       0.00366461      -0.00164504      -0.00240793
C        6.40835925      12.14732286       5.39471826       0.00476225       0.00467166       0.00118434
C        7.74757261      12.08655872       5.76712885       0.00499232       0.00146127       0.00025831
H        7.61948288       9.29790123       7.68832405       0.00113435      -0.00382303      -0.00720410
H        4.46323166      11.24831174       5.56252795       0.00326075       0.00743655      -0.00035227
H        4.13483009       8.97079635       6.51231994      -0.00045304       0.00553799      -0.00656651
H        5.43192542       8.20575257       7.44278567      -0.00069375      -0.00064570      -0.01151022
H        4.48474339       9.52288671       8.14054348       0.00288916      -0.00164843      -0.00468183
H        9.22596312      10.98905585       6.85969248       0.00365797      -0.00419090      -0.00297876
H        6.05899667      12.94683898       4.74992428       0.00591702       0.00705718       0.00346879
H        8.46125704      12.82657185       5.42475580       0.00591634       0.00117904       0.00187406
C        1.03503938       7.27880598       4.46053682       0.00332811       0.00014826      -0.00168264
C        1.17098282       7.00692434       5.82432135       0.00180777       0.00115953      -0.00123307
C        1.22927723       6.22901731       3.56351222       0.00426792      -0.00058367      -0.00071260
C        0.69182093       8.65794216       3.98710807       0.00417794      -0.00031871      -0.00383683
C        1.49344627       5.73085341       6.26891653       0.00156527       0.00148016      -0.00002387
C        1.55759793       4.95117307       4.00321659       0.00386796      -0.00049169       0.00047413
C        1.69071661       4.69500677       5.36135335       0.00259839       0.00065757       0.00104732
H        1.01254748       7.80869584       6.53768859       0.00101369       0.00167629      -0.00181814
H        1.10753398       6.41971230       2.50312082       0.00546800      -0.00112262      -0.00087270
H        0.40067949       8.65503456       2.93661014       0.00320857      -0.00217173      -0.00368585
H       -0.11838997       9.09347287       4.57146167       0.00489223       0.00137085      -0.00401258
H        1.54152524       9.33737717       4.09802028       0.00489178      -0.00084059      -0.00563771
H        1.58277563       5.53819168       7.33090005       0.00058163       0.00226702       0.00035435
H        1.70079663       4.15246738       3.28407253       0.00458063      -0.00090192       0.00117791
H        1.94083109       3.70153229       5.71094398       0.00246453       0.00092955       0.00199404
C        2.55296213      10.28045340       0.93105208      -0.00355021       0.00403675      -0.00005200
C        1.17345854      10.27322335       0.65549203      -0.00388566       0.00404127       0.00130169
C        3.11250941      11.44631163       1.53473301      -0.00272355       0.00432572      -0.00116472
C        3.41222023       9.10268148       0.59607877      -0.00419246       0.00323316       0.00075838
C        0.34133840      11.36661465       1.02594250      -0.00323191       0.00495797       0.00010781
C        2.26033795      12.46384535       2.05905944      -0.00207269       0.00571874      -0.00259548
C        0.88667287      12.42313376       1.80594972      -0.00224821       0.00626425      -0.00211918
H        0.74039142       9.42266594       0.14352094      -0.00461766       0.00354602       0.00267244
H        4.17230741      11.46624938       1.75146684      -0.00257686       0.00411295      -0.00165159
H        4.41838571       9.22751663       0.99118600       0.00012642       0.00953502      -0.01277299
H        2.98143081       8.19874012       1.03171467       0.00399610       0.00643353       0.01520889
H        3.47993776       8.95205432      -0.48422600      -0.01724418      -0.00750736       0.00176701
H       -0.72065699      11.33144655       0.83859883      -0.00339782       0.00512651       0.00080387
H        2.68785152      13.29142814       2.60638679      -0.00135831       0.00616019      -0.00371194
H        0.23292508      13.19014116       2.18637052      -0.00171497       0.00755148      -0.00332076
C       10.53266409       8.38508181       9.64976930      -0.00041161       0.00059918       0.00046929
C       11.27461273       7.76657373       8.64045702      -0.00310388       0.00186136      -0.00274631
C        9.76550765       7.58037903      10.49406988       0.00350831      -0.00082302       0.00289989
C       10.54411735       9.87804222       9.79373704      -0.00186170       0.00056827       0.00093862
C       11.25575595       6.38585672       8.48643079      -0.00230113       0.00173497      -0.00307954
C        9.73855697       6.19793743      10.33761255       0.00467046      -0.00070258       0.00226393
C       10.48959149       5.59378229       9.33662664       0.00179628       0.00055757      -0.00069589
H       11.85175226       8.38427029       7.96177494      -0.00654301       0.00275703      -0.00453396
H        9.18485630       8.04730049      11.28271686       0.00587711      -0.00165149       0.00515454
H       10.17705705      10.19186496      10.77115416       0.00320558      -0.00029170       0.00316761
H       11.54495648      10.28427207       9.64284990      -0.00329238       0.00211132      -0.00442870
H        9.90783293      10.34584130       9.03909874      -0.00695595       0.00037610       0.00498995
H       11.83454031       5.92674387       7.69421986      -0.00398546       0.00274791      -0.00517756
H        9.12764239       5.58849756      10.99282921       0.00798598      -0.00184255       0.00463551
H       10.46983904       4.51709727       9.21680394       0.00281070       0.00043100      -0.00093322
C        7.85509305       7.89232840       1.38818864       0.00042807       0.00139636      -0.00438885
C        7.25493579       8.83512347       0.55427719       0.00356665       0.00284546      -0.00512087
C        8.36475818       8.32359346       2.61452924      -0.00198324      -0.00001108      -0.00278720
C        7.97674255       6.45618137       0.97121258      -0.00017273       0.00142908      -0.00486711
C        7.17104194      10.17160056       0.93210061       0.00439516       0.00281211      -0.00429430
C        8.28144260       9.65457559       3.00031725      -0.00106075      -0.00024955      -0.00204310
C        7.68079526      10.58348031       2.15701699       0.00213486       0.00119647      -0.00282419
H        6.84788125       8.51738116      -0.39986249       0.00554748       0.00407590      -0.00650498
H        8.83505864       7.60419532       3.27597254      -0.00444219      -0.00132675      -0.00220645
H        7.83713202       5.78266150       1.81634815      -0.01060169       0.00083740      -0.00712705
H        7.24530943       6.20220839       0.20328415       0.00663930       0.00455907      -0.01225959
H        8.96997624       6.25028561       0.56376402       0.00314412      -0.00143719       0.00479270
H        6.71300990      10.89117105       0.26272724       0.00708356       0.00391553      -0.00498231
H        8.67559292       9.96899928       3.95835905      -0.00264925      -0.00136444      -0.00084892
H        7.61143664      11.61982206       2.46131648       0.00304389       0.00125483      -0.00227290
C        7.60455047       0.67019224      10.72625309       0.00350934      -0.00220217      -0.00025959
C        8.28674855       1.17121126      11.83502798       0.00552402      -0.00374648      -0.00063041
C        8.33101413       0.37810467       9.57134688       0.00156455       0.00014742      -0.00242019
C        6.11552931       0.48288527      10.74971385       0.00361997      -0.00285645       0.00234267
C        9.66045760       1.38487758      11.78908963       0.00558044      -0.00260329      -0.00312382
C        9.70238367       0.59250038       9.51308239       0.00120241       0.00131638      -0.00465219
C       10.36684891       1.09835385      10.62578553       0.00318739      -0.00006726      -0.00540066
H        7.74173568       1.39647664      12.74628235       0.00725926      -0.00585641       0.00075801
H        7.81490821      -0.02345592       8.70675567      -0.00002170       0.00112614      -0.00196661
H        5.80273615      -0.33345571      10.09712781       0.00279769      -0.00475244       0.00514473
H        5.76283392       0.27793175      11.76407798       0.00488186       0.00052384       0.00351304
H        5.61358982       1.38635650      10.38875462       0.00300942      -0.00394845      -0.00011466
H       10.16845478       1.76997785      12.66658512       0.00682605      -0.00376037      -0.00349934
H       10.24876921       0.36389098       8.60462161      -0.00010717       0.00295489      -0.00615820
H       11.43498949       1.26679875      10.57394900       0.00302908       0.00094142      -0.00765950
C        8.54038677       3.08859795       3.37913722      -0.00421135       0.00406732       0.00341884
C        9.57037614       4.02078785       3.49267089      -0.00538803       0.00506064       0.00663884
C        8.87838167       1.76122818       3.10761934      -0.00217680       0.00440463       0.00373169
C        7.10567370       3.49451478       3.55339335      -0.00516230       0.00234699       0.00017253
C       10.89939679       3.64058668       3.34710806      -0.00441566       0.00628813       0.01091620
C       10.20387961       1.36821099       2.97669533      -0.00138357       0.00561121       0.00770822
C       11.21731924       2.31237294       3.09998610      -0.00250804       0.00652587       0.01162037
H        9.33030888       5.05306706       3.72092665      -0.00708560       0.00481018       0.00597364
H        8.08850167       1.02155234       3.03083312      -0.00122098       0.00364231       0.00101071
H        6.55096160       2.74831692       4.12349556      -0.00493609       0.00272202       0.00100973
H        7.02547423       4.44353363       4.08306706      -0.00746424       0.00339420      -0.00185357
H        6.60446649       3.60751891       2.58757836      -0.00396033      -0.00059184      -0.00086680
H       11.68752347       4.37522047       3.45672341      -0.00535108       0.00690715       0.01367688
H       10.45027362       0.32402298       2.82947645       0.00024071       0.00593433       0.00804642
H       12.25582274       2.01313701       3.04397177      -0.00214087       0.00726294       0.01504312
C        1.52676471       4.01486219      12.28378122      -0.00523341      -0.00100118       0.00429694
C        2.91393207       3.90186451      12.48410777      -0.00413740      -0.00074310       0.00393975
C        0.79718989       2.86368055      12.00195259      -0.00432047      -0.00146666       0.00166098
C        0.86917719       5.35807872      12.30351624      -0.00646383      -0.00212565       0.01182782
C        3.56974875       2.69464559      12.33064177      -0.00310458       0.00055912      -0.00359927
C        1.44068704       1.64071885      11.82334969      -0.00241331       0.00047239      -0.00555305
C        2.84919770       1.55554232      11.96128170      -0.00207426       0.00140072      -0.00758231
H        3.48596049       4.79441581      12.71154543      -0.00555982      -0.00120568       0.00818449
H       -0.27340888       2.93272501      11.85334018      -0.00463568      -0.00160782       0.00441498
H       -0.20648303       5.28745360      12.15414297      -0.00785220      -0.00326298       0.02071513
H        1.05937237       5.87455854      13.24638448       0.00236526      -0.00395098       0.01117039
H        1.27562809       5.98513669      11.50448264      -0.01482213      -0.00063007       0.00871927
H        4.64606822       2.63894357      12.43431916      -0.00345268       0.00125260      -0.00370948
H        0.86424698       0.87989674      11.26579586      -0.00203682       0.00133783      -0.00650591
H        3.43448578       0.75327401      11.47864541      -0.00287759       0.00253285      -0.00942189
