143
Lattice="12.67401158785951 0.0 0.0 0.0 12.67401158785951 0.0 0.0 0.0 12.67401158785951" Properties=species:S:1:pos:R:3:forces:R:3 energy=-610087.9375 stress="-0.0023662960156798363 -0.0005008142325095832 -2.3747715658828383e-05 -0.0005008142325095832 -0.00029737839940935373 9.08650727069471e-05 -2.3747715658828383e-05 9.08650727069471e-05 -0.001298633636906743" pbc="T T T"
Hf      11.97261600      12.29134361       0.60447874       0.00665241      -0.00249308       0.00652811
Cl       8.63980067      11.52276040       6.49796477       0.00171597      -0.00418252      -0.00192559
O        9.43967841      12.74231083       6.81594841       0.00659049      -0.00885868       0.00330454
O        7.74854506      11.06578869       7.60830787       0.00491124      -0.00964811      -0.00201821
Cl       8.64175021      11.99615634      10.57023720       0.00579870      -0.00074920       0.00662667
O        7.49349985      12.95832224      10.60505589       0.00623214      -0.00026047       0.00731734
O        8.38315840      10.71222534      11.28049925      -0.00242949      -0.01021469      -0.01401991
Cl       9.42980926      13.75658853       0.91729939       0.00593740       0.00871082       0.01203436
O       11.13644009      10.73339646       0.38985555      -0.01497760       0.00714785       0.02068612
O       10.76023671      13.80989576      -0.12571610       0.01795021       0.01467791       0.02809703
Cl      11.89731928      11.49859466       3.85773903       0.01059377       0.02470692       0.01143615
O       10.43307209      11.22273794       4.18515357       0.00713027       0.01436445      -0.01404032
O       12.04539084      12.59662004       2.65744051       0.02240665       0.01328346       0.00265619
O       10.15092279       4.08527960       3.14065790      -0.00351450       0.00390364      -0.00533823
O        8.82760938       2.42493461       3.78126888      -0.01066288       0.01735589       0.01263139
O        7.93334930       4.26561954       2.85744626      -0.00378454       0.02091879       0.01379561
C       11.05470571       3.02858248       3.54083056      -0.00713867       0.00109257      -0.00516260
C       10.13330572       2.07737882       4.29144483      -0.00862560       0.00498378      -0.00157705
C        8.89040475       3.63358878       3.21959788      -0.00507039       0.01412651       0.00757667
H       11.84004536       3.47485342       4.14524804      -0.00510222      -0.00080602      -0.00676760
H       11.47750310       2.58616424       2.64076389      -0.01016809      -0.00150423      -0.00484076
H       10.30331397       1.02649527       4.08498434      -0.01919808       0.00468343      -0.00858190
H       10.11671541       2.24549900       5.36922096       0.00253762      -0.00097844      -0.00072008
O        7.40779083      12.27251078       2.38159532       0.00111994       0.00128729       0.00370315
O        6.18785137      11.16593180       0.88690306       0.00330827       0.01124847      -0.00486088
O        5.72525369      13.32533189       1.32228640       0.01078546       0.01155627      -0.00046162
C        8.08113389      11.01014256       2.21091880      -0.00310546      -0.00114772       0.00287822
C        7.04416383      10.17783487       1.47980209      -0.00240469       0.00576898      -0.00595018
C        6.37844670      12.34242683       1.51131066       0.00573146       0.00770783       0.00006753
H        8.34107862      10.63791146       3.19673949      -0.01078502      -0.00586963       0.00316778
H        8.98859098      11.16212750       1.62580836       0.00147921      -0.00211985       0.01014122
H        7.45891015       9.56414568       0.68471789      -0.00029513       0.00945404      -0.00758928
H        6.43913287       9.57994995       2.16198119      -0.00708941       0.00397217      -0.01199627
O        4.86982244       2.09206183       4.93608379       0.00774807      -0.00524423      -0.00036636
O        6.69129784       3.04983416       5.78778728      -0.01036060       0.00721416       0.02277041
O        6.45568360       0.81106217       5.89014784       0.00078863       0.00764966       0.02630347
C        4.74022875       3.47460224       4.58081005       0.00466001      -0.00667422      -0.00482988
C        5.90559461       4.14799088       5.30991570      -0.01108930       0.00157526       0.01175380
C        6.04537367       1.87777645       5.55981098      -0.00021136       0.00241357       0.01778308
H        3.76679794       3.82994165       4.91432330      -0.00224665      -0.01175219      -0.02045918
H        4.81891807       3.55906628       3.49800405       0.02115203      -0.00825632      -0.00339156
H        6.52244977       4.74103554       4.63725993      -0.00548247       0.00552279       0.02093986
H        5.58581905       4.73973894       6.16816681      -0.02677861      -0.00083937       0.00715125
O       11.82023535       0.32988929       9.57430446      -0.01643114       0.00375563      -0.00784563
O       13.06250219       2.09954610      10.01304955       0.00949511      -0.01678348      -0.00152349
O       13.00118882       0.42551564      11.47256571      -0.00804481      -0.02423064      -0.01177521
C       11.59993272       1.19984777       8.43169100      -0.00301379       0.01032982      -0.00528133
C       12.53491761       2.38033697       8.69562975       0.00580810       0.00094682       0.00384787
C       12.62784319       0.92970486      10.42140485      -0.00481601      -0.01340328      -0.00696352
H       10.55043091       1.46732955       8.42801131      -0.00046521       0.01963063      -0.00988038
H       11.83179734       0.62719984       7.53873506      -0.00377984       0.01201944      -0.00636131
H       13.38030231       2.43079165       8.01265141       0.00325316       0.00231111       0.00111219
H       12.01957090       3.33351622       8.74352269       0.01292226       0.00384855       0.01609075
O        9.99822045       3.20973853      10.19647033      -0.00357026       0.00110006      -0.00452784
O        9.08470924       4.19417985      11.97051800       0.00857964       0.00516845      -0.00128055
O       11.31949187       4.24851166      11.69873493       0.00536084       0.00720137      -0.01919645
C        8.57969308       3.22530011       9.93401085      -0.00496147       0.00392596       0.00341302
C        7.99702971       3.51957514      11.30549648       0.00427055       0.00346128       0.00706244
C       10.23714139       3.90926018      11.33413019       0.00603050       0.00558732      -0.00820160
H        8.28747517       2.26050151       9.53125599      -0.00861727       0.00502777       0.00381953
H        8.37186861       4.02982339       9.22880662      -0.00735172       0.00522959       0.00577739
H        7.15428536       4.20437565      11.26666444       0.00280139       0.00180602       0.01315088
H        7.75544222       2.61663898      11.86534132       0.00954484       0.00336039       0.00902009
O       10.47244128       5.90798951       6.75408137      -0.00328661      -0.01524705       0.00833424
O        9.29581883       7.80160585       6.81033923      -0.00194815      -0.01056369      -0.00488172
O       11.51999194       7.86167073       7.15975724      -0.00456619      -0.01562464       0.00130004
C        9.13938010       5.51903766       6.41439688      -0.00081307      -0.01062226      -0.00209972
C        8.30944101       6.76599608       6.72038325      -0.00088164      -0.01103178       0.00093670
C       10.53118246       7.24559084       6.92644621       0.00104630      -0.01110196       0.00270674
H        8.85896919       4.66025791       7.02048925      -0.00551955      -0.01411971      -0.01037186
H        9.11811094       5.24968823       5.35747333       0.00469101      -0.00216890      -0.00360936
H        7.61881703       7.01873034       5.91631288      -0.00541772      -0.01280089       0.00484392
H        7.77473737       6.70588684       7.66843860       0.00371659      -0.01140514       0.00296056
O        4.87326630       6.93667728       2.12574490      -0.00111543       0.00020039      -0.00949326
O        5.30330637       7.83813104       0.14256283      -0.00390811      -0.00279622      -0.01090436
O        4.11176863       8.99319626       1.65134725      -0.00457603      -0.00288808      -0.01295945
C        5.68215914       5.94340339       1.45708855      -0.00483741      -0.00227308      -0.00986597
C        5.89425260       6.52575171       0.06040360       0.00539418       0.00181828      -0.00656575
C        4.70412026       8.00519787       1.32635691      -0.00374657      -0.00107473      -0.01058529
H        5.13199229       5.00766160       1.43844164      -0.01119849       0.00197145      -0.01566919
H        6.60515264       5.81697942       2.01556682      -0.00829688      -0.00979737      -0.00662607
H        6.93996636       6.63972886      -0.21283916       0.00719780       0.00902315       0.00428499
H        5.36396362       5.97903211      -0.71279833       0.01849028      -0.00025627      -0.01364589
O        5.48994470       8.32530767       9.00108918      -0.00639993       0.00551194      -0.01070428
O        3.99981270       9.87510062       9.56657548       0.00385442       0.01228583      -0.00232965
O        3.32885697       8.02387597       8.45859705      -0.00263858       0.03300035      -0.03038126
C        6.22395340       9.28631582       9.78841158      -0.00070566      -0.00860286      -0.00035523
C        5.28899710      10.48402719       9.79521811       0.00717786      -0.00228792       0.01356776
C        4.18150640       8.68467450       8.97004458      -0.00345010       0.01835060      -0.01883358
H        7.17594308       9.47500247       9.30136717      -0.00087288      -0.00887588      -0.00013900
H        6.38305119       8.87369698      10.78107776      -0.00040318      -0.02027354      -0.00551367
H        5.26284644      11.01268812      10.74293763       0.00824354      -0.01484218       0.02043796
H        5.49043829      11.17406802       8.97422608       0.01523599       0.00687432       0.02411222
O        1.53998668      10.15379209       2.49409720      -0.00523526      -0.02360237      -0.00965014
O        1.37014046       9.28889096       0.47502553      -0.01022610      -0.02612194      -0.00793085
O        1.33288150      11.50472421       0.73681364      -0.00278538      -0.02577558      -0.01103175
C        1.47903707       8.72036960       2.74896159      -0.00383939      -0.02281341      -0.00745267
C        1.26978033       8.13276781       1.35445243       0.00182403      -0.02629334      -0.00657754
C        1.42413388      10.36576928       1.21071802      -0.00594795      -0.02559114      -0.00911991
H        0.65767881       8.56294313       3.44050907      -0.00539774      -0.02285114      -0.00962850
H        2.41378083       8.43224908       3.20678587      -0.00513798      -0.02068604      -0.00344686
H        2.02621084       7.41683670       1.05470683       0.01008412      -0.01762757      -0.00569810
H        0.27954189       7.71906161       1.20009492       0.00706172      -0.03850098      -0.00542534
O        2.93430521       3.63434658      10.55188934       0.00376111      -0.00315379       0.02524450
O        4.22833278       3.54892894      12.35632323       0.01867540      -0.02077734       0.01220462
O        2.98388052       5.38041894      11.98589711       0.00970054      -0.01730371       0.03430265
C        3.41275456       2.27339501      10.61336406       0.00256094      -0.00340340       0.00648528
C        4.54757431       2.35004593      11.61632885       0.01185471      -0.01465298      -0.00380832
C        3.34096086       4.28886276      11.65766044       0.01027635      -0.01431692       0.02925377
H        3.73241852       1.97534036       9.61737071      -0.00717801       0.00535166       0.00088489
H        2.59682902       1.64017925      10.95384085       0.00405839      -0.00407028       0.00806904
H        4.60745512       1.52311481      12.31589179       0.01677680      -0.02069297      -0.01175928
H        5.51603077       2.48907683      11.13911506       0.00852653      -0.01187286      -0.01026358
O        4.28918718       9.93307991       6.13515761      -0.00487846       0.01355568      -0.02137938
O        3.44479610       8.03899462       5.31998161      -0.00511806       0.00973862      -0.01312016
O        2.11716125       9.84743470       5.52303411      -0.00365782       0.01033098      -0.01936822
C        5.42298378       9.09123718       5.88527980      -0.00601181       0.00934607      -0.00824133
C        4.78726992       7.71755245       5.70707279      -0.00720699       0.00957066      -0.00838576
C        3.17570632       9.32243693       5.66300029      -0.00580257       0.01162195      -0.01806883
H        6.10316356       9.15731042       6.72908271      -0.01282570       0.01020415      -0.00317630
H        5.91591153       9.44758157       4.97706160       0.00301623       0.00433959      -0.00475526
H        5.23446079       7.13202185       4.90505482      -0.00472622       0.00808299      -0.00558466
H        4.75103987       7.15732339       6.64163484      -0.01091538       0.01115841      -0.00810456
O        9.15681589       7.52533866      11.37159672       0.00769338       0.00507502       0.00883687
O        9.97702204       6.40547989       9.64032750       0.00480026       0.01393460       0.00218782
O        7.76546509       6.39815777      10.01233954       0.00418031       0.00751793       0.00736329
C       10.60084024       7.60969097      11.52746876       0.00779489       0.00723700       0.00481254
C       11.12670980       7.09818673      10.19585772       0.00420624       0.01537793       0.00078219
C        8.87192752       6.75225968      10.32196515       0.00940353       0.01010385       0.00723416
H       10.87771113       6.94784981      12.34282366       0.01149463       0.00382775       0.00067532
H       10.84898244       8.64622633      11.75540528       0.00616180       0.00660455       0.00940855
H       11.41381727       7.87682066       9.49393385      -0.00106215       0.01932162       0.00299534
H       11.92524189       6.37031877      10.31010133       0.00685093       0.01747319      -0.00628474
O       10.93397368       6.79404966       1.87709354       0.01007909       0.01881742       0.00690147
O       10.91599009       7.19558525       4.05977426      -0.02872175      -0.01575136       0.01169007
O       12.55631799       5.93381346       3.17236975      -0.01455152      -0.00314170       0.02104679
C        9.83183403       7.69953198       2.05048847       0.00562218       0.01432300       0.00052106
C        9.74680794       7.86750411       3.56960431      -0.01198052       0.00434178       0.00054437
C       11.55270101       6.56629501       3.05134635      -0.01072186      -0.00055403       0.01395044
H        8.94617086       7.23016728       1.62392604       0.01184037       0.01441327      -0.01195608
H       10.06518256       8.62863028       1.52485685       0.00859787       0.01766264       0.00859284
H        9.79480673       8.90547926       3.89554142      -0.00093503       0.00130093       0.00766626
H        8.87162469       7.37206743       3.99057282      -0.02422810       0.01451936      -0.01429531
