149
Lattice="11.942449414275085 0.0 0.0 0.0 11.942449414275085 0.0 0.0 0.0 11.942449414275085" Properties=species:S:1:pos:R:3:forces:R:3 energy=-763237.375 stress="0.00031619996298104525 0.0003256554628023878 -0.00042751451837830245 0.0003256554628023878 0.0009341128752566874 -3.5875650610250887e-05 -0.00042751451837830245 -3.5875650610250887e-05 0.0010777044808492064" pbc="T T T"
Hf       9.98685471      10.83028634       2.23830284      -0.00238091      -0.00165813      -0.00069582
Br       5.30037540      12.19268419       1.07676793       0.00409853       0.00222928       0.00349369
Br      -0.45488837      10.83369838      12.14791919       0.00287220       0.00162767       0.00274414
Br       6.70438772      11.86959283       6.73157489      -0.00502332       0.01231587      -0.00014624
Br       1.81745406      11.00244264       8.17992506      -0.00040689      -0.01332848       0.00177533
N        3.16595508       7.86661672       3.04338030       0.01282024       0.00202354      -0.01984736
H        3.85559203       7.85974418       2.29845540      -0.00219450       0.00832350      -0.03397859
H        2.70869065       8.77744246       2.95997774       0.00934642       0.00152506      -0.00519377
H        2.49602383       7.13262792       2.79069699       0.00949722       0.00186368      -0.01126594
N        0.56019306       4.67352541      10.38086592       0.00786829       0.01127067       0.00184615
H       -0.07061567       5.01269693       9.65251434       0.00173682      -0.00299017      -0.00002608
H        0.94972137       5.49940068      10.83379357       0.00630628       0.02039202      -0.01355195
H       -0.03014262       4.21742508      11.06950276       0.01272648       0.02132138       0.01354859
N        8.16285889      10.65495128       1.10163473      -0.00007589      -0.00310953      -0.00281449
H        8.25816574      10.63894181       0.06725181      -0.00052161      -0.00030313      -0.00352716
H        7.37267365      11.31030682       1.25091051      -0.00212973      -0.00524971      -0.00162685
H        7.75803069       9.71000846       1.31949002       0.00148842      -0.00521028      -0.00533007
N        2.33834283      10.86315703       2.52741957       0.00318997       0.00471482       0.00774819
H        3.17276214      11.09615531       1.99014324       0.00315152       0.00510806       0.00735994
H        2.27230674      11.58375988       3.24544901       0.00453122       0.00449587       0.00943911
H        1.56009595      10.97377806       1.88621285       0.00283570       0.00527103       0.00954843
N        9.77396534       1.88764397       5.46881577       0.00237644      -0.00598866       0.00397611
H       10.51785920       2.22649706       6.07688395       0.00363943      -0.00746307       0.00261417
H        9.04974239       1.51768865       6.07791861       0.00042877      -0.00080530       0.00423622
H        9.37294096       2.68360871       4.98434508       0.00623472      -0.00499114       0.00076853
N        4.26761975       0.53875816       9.83856560      -0.00674234      -0.00565153       0.00631522
H        3.57107037       1.24550808      10.20119807      -0.00731114      -0.00349885       0.00258230
H        4.77373098       0.21300330      10.67057936      -0.01090679      -0.00598311       0.00921899
H        3.70232076      -0.20840978       9.41283628      -0.00563225      -0.00523102       0.00386819
N        1.42035689       5.50396968       1.99699223      -0.00182265      -0.00032645       0.00119561
H        1.38819939       5.80944898       1.02965587      -0.01190165      -0.01162371       0.00059896
H        0.47037428       5.55454628       2.34821487       0.00527051       0.00123788       0.01280123
H        1.72196663       4.53320383       2.02184219      -0.00195900      -0.00537093       0.00549119
N        1.13077397       3.88066523       5.16110821      -0.00554678      -0.00251573       0.00939146
H        1.14761740       3.30306525       4.32976481      -0.00105917      -0.02246165      -0.00169981
H        0.85530982       3.30004960       5.95229562      -0.00264032       0.00274123       0.00021298
H        2.08306024       4.19849267       5.30899667      -0.01550594       0.00250581      -0.00659162
N        3.85635425       5.89742804       9.44961025       0.00768331      -0.00096559       0.00591636
H        4.11832385       5.70792739      10.41904091       0.00771776       0.00887358       0.00834551
H        3.04137726       5.31408365       9.27938635       0.00773884      -0.00250620       0.01248813
H        3.50453663       6.84926156       9.43831471       0.00834378      -0.00084709      -0.00409702
N        5.67790884       9.85945091       3.95150111       0.00454962       0.00232936      -0.00658983
H        5.59069473      10.35276756       4.83500558      -0.00651102       0.00013781      -0.00537445
H        4.99351586       9.10626092       4.00429040       0.00835869      -0.00056042      -0.01581563
H        5.34093506      10.50206066       3.23395148       0.00759503       0.00357886      -0.00764320
N       10.37331841       5.34288114       8.15014809       0.00358140      -0.00625126      -0.00164509
H       10.08906069       6.13302991       7.58258658       0.01731916      -0.00478084      -0.00132918
H        9.54462294       4.95112952       8.58181992      -0.00516790       0.00361791      -0.00426173
H       10.75889102       4.64100588       7.52617176      -0.00360944      -0.01357912       0.00086170
N        6.06068644       1.39935094       7.77853931       0.00097607       0.00511843       0.01396669
H        6.95641623       1.84555263       8.08950935       0.00318387       0.00181120       0.01244052
H        4.92587423       0.90971897       9.11355030      -0.00293055      -0.00568007       0.01059273
H        5.59617896       2.05729116       7.13167706      -0.00129130       0.00852105       0.01855999
N       -0.15485935       8.19935164       8.35474642      -0.01026350      -0.01017593      -0.00259185
H        0.80008640       7.85717045       8.32422539      -0.00575933       0.00255927      -0.00392425
H       -0.65148028       7.61040577       9.01305470       0.00002110      -0.00482848       0.00007227
H       -0.07346781       9.14251082       8.72328752      -0.01445726      -0.00176735      -0.00540060
N        4.89300964       5.67716379       4.51237347       0.00181675       0.00671473       0.00435707
H        4.26294569       6.38675833       4.13589290       0.00988991       0.00660491      -0.01031795
H        5.49313621       5.37473457       3.75367277       0.01026811      -0.00333676       0.01470669
H        5.48343771       6.16654173       5.18008230      -0.00424264       0.00882909       0.00781411
N        3.21467734       2.81504127       2.52856955      -0.00449461      -0.00851071       0.00175264
H        3.65340390       3.49283055       3.14726833      -0.00720537      -0.00071177      -0.00390060
H        3.97429301       2.36179841       2.02075899      -0.00300913      -0.00688002       0.00342627
H        2.86329639       2.07913518       3.13728998       0.00208913      -0.00624613       0.00844537
N        8.62943337       2.31563477       8.67142577       0.00672227       0.00120527       0.00897756
H        9.17745956       1.45453729       8.73673203       0.00515015       0.00024102       0.00924120
H        8.63365847       2.78169156       9.57950295       0.00684407       0.00156639       0.00915030
H        9.10561563       2.91879671       8.01294278       0.00762869      -0.00013454       0.00881522
N        6.88614545       8.09637952       1.62480764       0.01476163      -0.01116562       0.01835361
H        6.54070393       8.19002253       2.57560441       0.01333784      -0.01774810      -0.02494693
H        7.29966608       7.18177519       1.49165981       0.01710695      -0.00410697      -0.01194625
H        6.09964057       8.18499186       0.99344471      -0.00120899      -0.01706747      -0.01780054
N        4.42613911       3.71910750       6.92094487      -0.00947365      -0.00162143      -0.00030902
H        4.45021183       4.24205285       6.04354688      -0.00652094      -0.00030728       0.00051262
H        4.59543029       4.40238967       7.65595937      -0.01143000      -0.00185406       0.00049619
H        3.47289423       3.40446936       7.06311022      -0.01071833       0.00048611      -0.00390991
N        7.50695598      10.24781753      10.19460892      -0.00363028       0.00616844      -0.00276965
H        7.49471765       9.26792716       9.90208506      -0.00931732       0.00506763       0.00145243
H        7.55881979      10.81168076       9.35193697      -0.00268387       0.00277727      -0.00566632
H        6.59388483      10.43556899      10.59772631      -0.00106999       0.01306967      -0.00111221
N        9.47984240       8.58092657       6.13745254      -0.00677513       0.00078487      -0.00753644
H        8.59907608       8.31321577       6.56517118      -0.00910088      -0.00245868      -0.01292427
H       10.19599575       8.60120100       6.86704866      -0.01059444      -0.00148337      -0.00386330
H        9.75850637       7.82551699       5.51792452      -0.00329433       0.00437760      -0.00975078
N        9.84566628       6.70446542      -0.15156232      -0.00422442       0.00439304      -0.00387391
H       10.11846129       6.64249087       0.83076381      -0.00153483       0.00368650      -0.00427254
H        9.84517111       7.69524255      -0.37499023      -0.00682729       0.00472823      -0.00213009
H       10.61340918       6.29706341      -0.67854685      -0.00457636       0.00714296      -0.00610845
N        8.12104739       4.00073582      11.32836171      -0.00464976       0.00221473       0.00624269
H        7.96923497       3.48261298      12.18744971      -0.00972178       0.00464424       0.00740664
H        7.20730805       4.21349685      10.94394238      -0.00217311       0.00271109       0.00151381
H        8.54759572       4.89129745      11.58073609      -0.00374965       0.00209521       0.00512922
N        7.35789470       7.07920076       9.60167535      -0.00573222       0.00444847       0.00532121
H        8.05839931       6.74256683      10.25825537      -0.00682968       0.00453548       0.00555004
H        7.55883099       6.66745185       8.69718483       0.00395002       0.01563326       0.00150627
H        6.46356287       6.68675746       9.88150306      -0.00419165      -0.00675222      -0.00486009
N       11.17444108       0.09687955       3.62380239      -0.00136060      -0.00155160      -0.00107987
H       11.92349454       0.64238642       3.20668451      -0.00316244       0.00025311      -0.00244901
H       10.66799107       0.73613788       4.27827337      -0.00100511      -0.00325704       0.00101760
H       11.67054351      -0.66355449       4.23867105       0.00051986      -0.00137362      -0.00295234
N        9.90100223       3.63684635       2.25824882       0.00192446      -0.00244195       0.00002927
H       10.09730042       3.43590895       1.28342952      -0.00849558      -0.00966539      -0.00074252
H       10.55558155       3.07581022       2.79206156       0.01315850       0.00808191      -0.00306145
H       10.17063905       4.60694078       2.40696880      -0.00322059       0.00115161      -0.01159685
N        1.41641049       7.69254207      11.56274607      -0.00027388       0.00244051      -0.00329955
H        0.84501805       8.19063370      10.88773264       0.01402147       0.02344500       0.00003457
H        2.36937329       7.98298799      11.37458421       0.00705960      -0.01555796       0.00595552
H        1.18542248       8.08972889      12.46805454       0.00272537      -0.00495084       0.00099480
N        5.44148069       7.94095249       7.14809045       0.01281634      -0.00908895      -0.00039870
H        5.92839001       8.50164018       7.84051642       0.00532584      -0.00322893      -0.00036129
H        5.00379504       7.18780470       7.67395081       0.01179969      -0.00759766       0.00105369
H        4.68050267       8.51937315       6.80564235       0.01233709      -0.01396610      -0.00911240
N        0.13227747       2.36008470       7.86311090       0.01037357      -0.00288960       0.00526625
H       -0.68302276       1.95454851       8.31645628       0.00872069      -0.00109404       0.00616233
H        0.51857201       3.01659854       8.53876361       0.00998577      -0.00183790       0.00350463
H        0.79187406       1.58251298       7.81434788       0.00882202      -0.00413534       0.00700169
N        2.81013012       0.76593694       5.08260940       0.00443584       0.00223057       0.01076040
H        3.80159912       0.60473774       4.93112810       0.00541915       0.00116772       0.01503512
H        2.54793589       0.18605588       5.88087704       0.00042072      -0.00036205       0.00745980
H        2.73856329       1.72311586       5.41160768       0.00532226       0.00092728       0.01418026
N        8.67510214      10.53888617       4.05666961      -0.00394025       0.00482476      -0.00181818
H        7.71603340      10.18491100       3.88270647      -0.00472271       0.00570622      -0.00129329
H        8.53733532      11.43318025       4.53210107      -0.00199991       0.00636631      -0.00355089
H        9.05836620       9.90724721       4.79870923      -0.00490221       0.00526878      -0.00080729
N        0.51026418      10.04403487       5.02374929       0.00216621      -0.00267822      -0.00412294
H        0.73311097      10.28693372       5.99034782       0.00405718      -0.00370682      -0.00406633
H        0.12739071       9.10291435       5.02824428       0.00195063      -0.00229758      -0.00459997
H        1.39252941       9.99461547       4.52094634       0.00119144      -0.00149206      -0.00647241
N        2.19972946       1.94074336      11.12552220      -0.00737870       0.01318453      -0.01219720
H        2.40884706       1.87222276      12.11627104      -0.00529004       0.04901353      -0.00555152
H        1.43618515       1.30126937      10.92976191       0.00043674      -0.00626463       0.01493424
H        1.85163133       2.87918560      10.94482681      -0.01989933      -0.00119473      -0.04026822
N       10.36305985       6.97693253       2.99583725      -0.00667323       0.00331213      -0.00565517
H       11.03680831       6.93334666       3.77060220      -0.00720758       0.00290456      -0.00534901
H        9.44511174       6.80878392       3.39683016      -0.00676504       0.00109391      -0.00638057
H       10.36060711       7.97269097       2.69394426      -0.00782684       0.00433304      -0.00385177
N        0.52003530       6.91325192       5.30299708      -0.00789925      -0.00415564      -0.00432587
H        1.44504545       7.24306577       5.04296325      -0.00445098      -0.00744080      -0.00276589
H        0.57350202       5.89300217       5.27802203      -0.01144347      -0.00390117      -0.00521065
H        0.37030939       7.19524734       6.26720407      -0.00849199      -0.00315327      -0.00609435
N        4.73758029       5.21533056       0.57980720       0.00097185       0.00303620       0.00952941
H        5.39672753       4.44797552       0.66416807      -0.00644918      -0.00542496      -0.00633954
H        3.86389739       4.88022908       0.97582973      -0.00330940       0.00203545       0.00023064
H        5.06649047       5.94250844       1.20471289       0.00636671      -0.01561062       0.02801016
N       10.21401921      11.54310669       8.58791880       0.00074202      -0.00098336       0.00051156
H        9.78987619      10.99467171       7.84758608       0.00038131       0.00269391      -0.00021262
H        9.94484955      11.10681086       9.46402331      -0.00243486      -0.00192210       0.00042747
H       11.22366208      11.42786703       8.49608389       0.00082901      -0.00379916       0.00266554
