146
Lattice="12.761624735690859 0.0 0.0 0.0 12.761624735690859 0.0 0.0 0.0 12.761624735690859" Properties=species:S:1:pos:R:3:forces:R:3 energy=-690372.125 stress="-0.000764101161621511 0.00041011611756403 0.0005167141498532146 0.00041011611756403 0.0007561863167211413 -0.0003543484926922247 0.0005167141498532146 -0.0003543484926922247 0.0005361952935345471" pbc="T T T"
Hg      12.46427717      12.27306690       0.06240275       0.00072750      -0.02027826       0.00123056
O        9.66706013      11.65719478       6.64706877      -0.02909398      -0.01407695       0.02117598
O       11.83144347      10.95309294       7.89028688      -0.01005363       0.01553679      -0.00372493
O       10.56504076      13.10993166       8.62233294      -0.00894600       0.02092004      -0.01336741
O       11.83595559      13.05278907       6.33868829      -0.03675652      -0.00771797      -0.03282297
Mn      10.97630003      12.20024009       7.38081428      -0.01732577      -0.00707432      -0.00368534
O        5.05818100      11.57751434       7.21137080      -0.00170124       0.00732259       0.03128266
O        3.18634660      11.69039289       9.01996045      -0.02784848       0.03776176       0.01122630
O        5.30868074      13.20198674       9.25891408       0.00127578       0.00931406       0.03152251
O        5.47619778      10.61271824       9.58628014      -0.03428686       0.03502679       0.00506759
Mn       4.75349633      11.78537443       8.76977101       0.01505378      -0.01577910       0.03244560
O        4.65952669       7.07549871       7.39425605       0.00201893       0.00761390       0.00421457
C        4.96513813       8.47471491       7.32256796       0.00113797       0.00956330       0.00786994
C        3.33018820       6.88750614       7.83750291       0.00392270       0.00272268       0.00444233
C        6.39150951       8.69187369       6.89380022      -0.00090045       0.00949118       0.00611840
C        3.02159977       5.41281978       7.92381108       0.00841355       0.00108784       0.00219982
H        4.27060938       8.95646458       6.61945386      -0.00143194       0.01015633       0.01041651
H        4.80004436       8.93574327       8.30251246       0.00211202       0.00580686       0.01031345
H        3.19303108       7.37369574       8.81360228       0.00196248       0.00186738       0.00558704
H        2.63692315       7.38549340       7.14087377       0.00143796       0.00093931       0.00605437
H        6.55633340       9.76666304       6.80883237       0.00479608       0.01072082       0.00683502
H        7.09577853       8.30167956       7.62682078       0.00032479       0.00678141       0.00272486
H        6.59449140       8.22670466       5.92657959      -0.00226904       0.01201887       0.00492254
H        1.98955595       5.27075204       8.24559263       0.00892326      -0.00360200       0.00121961
H        3.14426443       4.93458590       6.95143761       0.01052371       0.00323607       0.00093666
H        3.66835261       4.91363122       8.64528387       0.00964458       0.00132234       0.00097938
O        0.73903140       8.80655046       4.33781972      -0.00542104       0.00008872       0.00491439
C        1.67491576       9.84338393       4.61062358      -0.00456520       0.00020516       0.00258058
C        1.38307227       7.64626110       3.86552744      -0.00927237       0.00110781       0.00027424
C        0.96035284      11.03493974       5.18195526      -0.00094140       0.00079042       0.00560561
C        0.35745395       6.57401642       3.59700425      -0.01244658       0.00459644       0.00042202
H        2.43084052       9.47111074       5.31834940      -0.00489235       0.00021634       0.00657606
H        2.20243597      10.10033871       3.67949410      -0.00315168      -0.00002028       0.00523454
H        1.95408714       7.86816633       2.95497072      -0.01114213       0.00441021      -0.00039083
H        2.11509227       7.30077672       4.61286928      -0.00641268      -0.00132120      -0.00305039
H        1.67605065      11.82328465       5.41329561      -0.00387457       0.00022914       0.00343123
H        0.22388914      11.42810767       4.48146233      -0.00261045       0.00270259       0.00233221
H        0.44523655      10.77285257       6.10603366      -0.00132649       0.00403753       0.00484893
H        0.84589855       5.68669287       3.19314416      -0.01596953       0.00602382      -0.00539619
H       -0.16537405       6.29398544       4.51190023      -0.00792860       0.00244278       0.00146092
H       -0.38003653       6.91700280       2.87138855      -0.01435530       0.00976829       0.00555436
O        9.38390672       9.90753552      10.70750001       0.00972742       0.00645459      -0.00103939
C       10.53947464       9.20590249      11.10737071       0.01334134       0.01124805      -0.00630815
C        9.49709349      11.30462951      10.93435425       0.00519726       0.00810635      -0.00766014
C       10.33092047       7.73968200      10.81433769       0.01379457       0.00954956       0.00148575
C        8.25763485      11.99494718      10.42980129       0.00163388       0.00014862      -0.00877762
H       11.41650980       9.59474088      10.56995016       0.00952828       0.01023909      -0.01330289
H       10.71631008       9.36481636      12.18647233       0.02010925       0.01577596      -0.00791419
H        9.63688613      11.47875679      12.01868803       0.00656654       0.01364695      -0.00863975
H       10.39080447      11.69214822      10.42574689       0.00307024       0.00891814      -0.01056665
H       11.18557962       7.15573360      11.15962533       0.01770701       0.01196454      -0.00369051
H        9.43715260       7.37710784      11.32368063       0.01906642       0.01062085       0.01039213
H       10.19370722       7.57461627       9.74723116       0.00517172       0.00534851       0.00307959
H        8.32191883      13.06371912      10.63283594      -0.00280241       0.00168329      -0.01481665
H        8.16015509      11.86834687       9.35359365      -0.00004359      -0.00473513      -0.00819662
H        7.35577280      11.59534675      10.89533021       0.00455961      -0.00103426      -0.00438759
O        9.15711572       6.73505609       7.78988646       0.00080791       0.00200167       0.00407982
C        8.19041894       5.70783969       7.73537725       0.00202811       0.00133431       0.00017136
C        9.75829653       6.98999482       6.53161891       0.00239789       0.00610486       0.00560488
C        7.54966882       5.57745810       9.09414529       0.00288394      -0.00475082       0.00012344
C       10.73338352       8.13178028       6.66366688       0.00223529       0.00578552       0.01096168
H        7.42340263       5.95776252       6.98881819       0.00151214       0.00351223       0.00121865
H        8.66278257       4.76284723       7.42455381       0.00298861       0.00293249      -0.00300917
H       10.25674890       6.07223568       6.18087178       0.00341040       0.00748158       0.00327986
H        8.97407042       7.22949475       5.79821130       0.00345796       0.00835690       0.00537384
H        6.77793471       4.80765394       9.07371995       0.00483397      -0.00639503      -0.00195522
H        8.29211140       5.31260938       9.84743342       0.00386524      -0.00349920      -0.00079416
H        7.08458240       6.52158571       9.37953361      -0.00015131      -0.00661957       0.00253976
H       11.21878672       8.33088197       5.70739836       0.00275965       0.01003649       0.01227450
H       10.23596272       9.04688386       6.98647832       0.00071131       0.00408867       0.01431122
H       11.51278110       7.89857840       7.38934979       0.00137798       0.00304189       0.01066424
O        4.48991190       7.34737911       2.84002777       0.00167286       0.00884670      -0.01482922
C        4.89080321       6.68221374       4.02401116      -0.00089118       0.00989604      -0.01390374
C        4.81930807       8.72746545       2.88113219      -0.00437123       0.01846001       0.00588989
C        4.38208541       5.26208730       3.99473508       0.00156017       0.00594509      -0.00873583
C        4.25001198       9.40597201       1.65802123       0.00685985      -0.00224978      -0.01819444
H        5.98666764       6.70576360       4.10536896      -0.00484914       0.00659839      -0.01615094
H        4.50041792       7.20557491       4.90555279       0.00100905      -0.00171161      -0.00983357
H        4.40576972       9.17459951       3.79536235      -0.00225180      -0.00177747      -0.00213635
H        5.91072400       8.84955401       2.93348243       0.00146317      -0.00281836      -0.00824925
H        4.74207791       4.72402051       4.87214278       0.00332190       0.00172976      -0.00804727
H        3.29226242       5.24269571       4.00255014      -0.00581104       0.00285489      -0.01272759
H        4.72561040       4.74056527       3.10157186       0.00206296       0.00400357      -0.01718490
H        4.47450660      10.47236366       1.68967989      -0.00286256       0.01852496      -0.00245397
H        4.66737716       8.99781141       0.73744198      -0.00692196      -0.00885412       0.02679111
H        3.16731035       9.28675244       1.62508235      -0.01043811      -0.00210818      -0.00973072
O       10.77266336       2.92005172       2.26880292       0.00334719      -0.01119369      -0.00257988
C       10.07237790       2.17601417       1.29944696       0.00376737      -0.00974186      -0.00418532
C       11.51112068       2.10043114       3.16609289      -0.00414625      -0.01281245       0.00183707
C        9.05455851       3.06578441       0.62426663       0.00948477      -0.00668654      -0.00858589
C       11.97468938       2.92754140       4.33711170       0.00119747      -0.00955328      -0.00231767
H       10.77252766       1.75643999       0.55814458       0.00451922      -0.01305830      -0.00156820
H        9.56748326       1.32357065       1.77885540      -0.00086442      -0.00731242      -0.00502551
H       10.87379988       1.28087561       3.52169517      -0.01013848      -0.00571856       0.00615111
H       12.36445524       1.64712196       2.63739958      -0.00741506      -0.02249151       0.00521335
H        8.54410328       2.52030617      -0.17001859       0.01144371      -0.00488040      -0.01085456
H        8.31178414       3.40317506       1.34716838       0.00684237      -0.00448678      -0.01220059
H        9.53569844       3.94304780       0.18963509       0.01361828      -0.00774169      -0.00608014
H       12.49676395       2.28846781       5.04925741      -0.00689960      -0.00922562       0.00282773
H       12.63404893       3.73126507       4.01088136       0.00841945      -0.01740070      -0.00562929
H       11.11192859       3.36279371       4.84114916       0.00353235       0.00123426      -0.00732011
O        8.49395426       3.52843054       4.26806035      -0.00095230      -0.00501046       0.00474285
C        7.55599148       2.69727608       4.93367909      -0.00548202       0.00038248       0.00387233
C        7.95688730       4.79494146       3.95332492       0.00294846      -0.00441098      -0.00166556
C        8.19252351       1.36537530       5.23399564      -0.00836754       0.00063020       0.01291074
C        9.00846363       5.66452799       3.30774663       0.00745279      -0.00892094       0.00112632
H        7.22706421       3.18691336       5.86295537      -0.00882819       0.00454330      -0.00024581
H        6.66319581       2.57558136       4.30008937      -0.00271004      -0.00192078       0.00058120
H        7.09314735       4.67490994       3.28066457       0.00591147      -0.00518568      -0.00534108
H        7.57828073       5.26722564       4.87180515      -0.00045066      -0.00084406      -0.00490004
H        7.50844227       0.72734572       5.79352847      -0.01277754       0.00589682       0.01540799
H        8.46685554       0.85125080       4.31149035      -0.00717756      -0.00557251       0.01775028
H        9.09627503       1.48913456       5.82907019      -0.01071790       0.00291181       0.01483838
H        8.61998595       6.67162564       3.14542217       0.00976969      -0.00994521      -0.00703734
H        9.88871455       5.73422079       3.94393193       0.00360602      -0.00608155       0.00668642
H        9.32569812       5.25110723       2.35350205       0.01430450      -0.01544757       0.00585955
O        8.51047460       9.15605954       2.02839459      -0.00126615      -0.00014859       0.00234103
C        8.95086230      10.45563541       2.39099603       0.00263193      -0.00365016       0.00633121
C        7.73107553       9.17999778       0.84145344       0.00570357       0.00127971      -0.00237560
C        9.88725057      10.36504750       3.56737080      -0.00358170      -0.00549912       0.01198131
C        7.27421292       7.77765891       0.52213539       0.00587294       0.00189024      -0.00382464
H        9.44902846      10.92125223       1.52710474       0.00899544      -0.00433242       0.00986266
H        8.07813924      11.08254260       2.63266228       0.00285769      -0.00271520       0.00129214
H        6.86904585       9.84761670       0.98167080       0.00470608       0.00469446      -0.02315566
H        8.31598506       9.58440403       0.00750555       0.01291400       0.00000483       0.00389630
H       10.22485739      11.35787643       3.86642842      -0.00296137      -0.00453712       0.00977968
H        9.39196835       9.93138982       4.43490987      -0.00889081      -0.00984854       0.00740029
H       10.76294353       9.76292414       3.32206717      -0.00228275      -0.00327837       0.01379652
H        6.73007630       7.77621351      -0.42287777       0.01088582       0.00598991      -0.00623302
H        8.13462520       7.11494072       0.42488836       0.00333637      -0.00016416      -0.00083273
H        6.61978506       7.37783949       1.29818008       0.00040156       0.00244615      -0.00804172
O        3.54667013       3.64837974      11.55706839      -0.00068611      -0.01115650      -0.00353140
C        2.92440148       2.38435313      11.36502357       0.00163198      -0.01002093      -0.01201546
C        4.95114573       3.54327925      11.66500237      -0.00017875      -0.00982344      -0.00067559
C        1.43568774       2.61335641      11.26757585       0.00136966      -0.01275253      -0.01561217
C        5.50559278       4.92711365      11.90521595      -0.00177673      -0.00935048       0.00228021
H        3.32073772       1.89641747      10.46564260       0.00443390      -0.00530690      -0.01495761
H        3.16034293       1.72788326      12.21581664       0.00100346      -0.01460639      -0.01624382
H        5.21218302       2.87345062      12.49979718      -0.00080441      -0.01122093      -0.00136197
H        5.36617685       3.08667557      10.75440665       0.00064456      -0.00833449      -0.00081420
H        0.91730195       1.67169606      11.08446956       0.00545641      -0.01436128      -0.02169731
H        1.05250086       3.05154888      12.19068949      -0.00301603      -0.02043676      -0.01442084
H        1.21058553       3.29600829      10.44819664       0.00086063      -0.01081555      -0.01373579
H        6.59348992       4.89962733      11.97948490      -0.00287051      -0.00874921       0.00602704
H        5.23668796       5.59463338      11.08610838      -0.00127323      -0.00845265       0.00324285
H        5.10481414       5.34761610      12.82847398      -0.00600529      -0.01134541       0.00244232
