142
Lattice="12.930005352099426 0.0 0.0 0.0 12.930005352099426 0.0 0.0 0.0 12.930005352099426" Properties=species:S:1:pos:R:3:forces:R:3 energy=-653321.0 stress="-0.00039081249269656837 -0.00013627617590827867 5.6806647990015335e-05 -0.00013627617590827867 -0.000674871145747602 4.245676791470032e-06 5.6806647990015335e-05 4.245676791470032e-06 -0.0017884589033201337" pbc="T T T"
Hg      12.37326700      13.31144930      -0.43968129       0.01103562       0.00978805       0.00489969
Cl      11.48534802      12.11898896       6.02152296      -0.01726997       0.00071430       0.00634032
O       10.46501884      12.16006417       7.13300625      -0.00782859       0.01018938       0.01446748
O       10.96567428      11.59986004       4.70488262      -0.01896203      -0.03743792       0.02338660
Cl       7.32040954      11.71503683      10.31666456       0.01355493      -0.00455165       0.03437442
O        5.94726105      11.76431337      10.92740930       0.01786327       0.02116148       0.04107386
O        8.03878891      10.40402110      10.44352523       0.00243914      -0.01017904       0.04586056
C        4.64595062       9.32564033       8.47887884       0.00306480       0.02555592       0.01230203
C        3.69627821      10.31211043       8.22014380       0.01097947       0.02260026       0.00447615
C        5.95432311       9.52716632       8.04721372       0.01319253       0.02803215       0.01220763
C        4.25857140       8.06085917       9.17784448       0.00883949       0.02655342       0.01337340
C        4.04031904      11.46684832       7.53078273       0.00170563       0.01985416       0.00613155
C        6.30540129      10.68228290       7.36139671       0.00401069       0.02584951       0.01566938
C        5.34723095      11.65345938       7.09633621       0.01296754       0.02361298       0.00722539
H        2.67564987      10.16674706       8.55817523       0.00468577       0.02053486       0.00343497
H        6.70483135       8.77112745       8.24460044       0.00850738       0.02899106       0.01870042
H        5.11427450       7.61124652       9.67938183       0.00600380       0.02922557       0.01877432
H        3.47888867       8.23793886       9.91872811       0.00477231       0.02752200       0.01018552
H        3.87529952       7.32766741       8.46200985       0.01161504       0.02436265       0.01418848
H        3.28778438      12.22044094       7.33252308       0.00590903       0.01679625      -0.00282921
H        7.32872395      10.82076721       7.03407129       0.01020655       0.02848394       0.01675868
H        5.61758085      12.54938575       6.55114981       0.00646910       0.02329575       0.00998925
C        3.18305891       7.54153670       5.71255525       0.01298437      -0.00891948       0.00014344
C        4.08983256       6.48516998       5.82450902      -0.03400600      -0.01159719       0.01701111
C        3.65532484       8.76912483       5.25002171      -0.03979913      -0.01531252       0.01280744
C        1.75274126       7.38234779       6.13677183      -0.00996605      -0.01438236      -0.00319995
C        5.43359199       6.66086767       5.51585754       0.02885056       0.00483213       0.00577294
C        4.99297435       8.94547537       4.93250874       0.03329830      -0.00806567       0.00214955
C        5.88948927       7.89624890       5.07420696      -0.03313272      -0.01227090       0.02197209
H        3.73712962       5.51720094       6.16730988      -0.00033829      -0.00516988       0.00813932
H        2.96294487       9.59516656       5.13657461      -0.00090619      -0.01634573       0.00027051
H        1.10069775       8.06794187       5.59780996      -0.00575519      -0.02021641      -0.01056895
H        1.39146858       6.36572614       5.97955651      -0.00103152      -0.01606008      -0.00109179
H        1.63720191       7.60371268       7.20209517      -0.01536787      -0.01005336      -0.00550377
H        6.12595895       5.83300614       5.62049684      -0.00483318      -0.00312199       0.01924280
H        5.33837165       9.90483103       4.57267986      -0.00890647      -0.01295754       0.01123569
H        6.93256389       8.03825256       4.83061796       0.00696053      -0.00428413       0.01691707
C        2.15459120       3.10753009       2.38362668       0.00820914       0.01460360       0.01199308
C        3.01396433       3.80050920       3.23763296      -0.00769045       0.00953633       0.00248970
C        2.55202227       1.85621065       1.92259257      -0.00863738       0.00908269       0.00452717
C        0.85522587       3.69801183       1.92484888       0.00489059       0.01599224       0.00480193
C        4.24047068       3.25913584       3.60461063       0.00953064       0.00616093       0.01768453
C        3.77471923       1.31048055       2.28357393       0.00664404       0.00842202       0.01927998
C        4.62664266       2.01152350       3.12570938      -0.01258430       0.00093363       0.00748775
H        2.72490282       4.77683944       3.61186773       0.00797167       0.01051398       0.00778133
H        1.89458319       1.31970952       1.24916920      -0.00090329       0.01240743       0.00977117
H        0.11278468       2.91949766       1.73919023       0.00232272       0.01963183       0.00913361
H        0.44886989       4.39623745       2.65651230       0.00949104       0.02133675       0.00193074
H        0.99561632       4.24087327       0.98632920       0.00752587       0.01060788       0.00261235
H        4.89627639       3.81901838       4.26130276      -0.00157161       0.00024043       0.01221088
H        4.07247677       0.34424896       1.89338477      -0.00772801       0.00303261       0.01334670
H        5.58595893       1.58847310       3.39522638      -0.00315163       0.00393932       0.02074347
C        1.07961028      11.09493238       3.01201008      -0.01224741      -0.00964755       0.00053591
C        1.43891319      11.24943293       1.67141446      -0.01364173      -0.00497043       0.00004594
C        0.46125818       9.90415993       3.39075971      -0.01110306      -0.01062736      -0.00311571
C        1.34118205      12.17687886       4.01649817      -0.01285851      -0.01176217       0.00247729
C        1.19996457      10.24394039       0.74184162      -0.01626396      -0.00172803      -0.00208372
C        0.23270206       8.89016066       2.46991776      -0.01195078      -0.00752552      -0.00534301
C        0.60232359       9.05463911       1.14038027      -0.01581581      -0.00296341      -0.00648724
H        1.93749915      12.15743959       1.35540515      -0.01666298      -0.00296672       0.00306124
H        0.14548428       9.78273887       4.41924645      -0.00971720      -0.01327327      -0.00295739
H        1.23499370      11.80089866       5.03326752      -0.01549063      -0.01286282       0.00169681
H        2.34155867      12.59561328       3.90552154      -0.01242253      -0.01321997       0.00454702
H        0.63520465      13.00223691       3.89337309      -0.01093940      -0.01055160       0.00195905
H        1.50746201      10.38013591      -0.28839788      -0.02056241       0.00277461      -0.00314933
H       -0.23185642       7.96698213       2.79465645      -0.01290563      -0.00827210      -0.00881038
H        0.43672502       8.26036846       0.42335050      -0.01839228       0.00005656      -0.00856533
C       10.08001849       7.50590920       6.23432057       0.00183593       0.00005770      -0.00641340
C       10.30787892       8.61406657       7.05096848      -0.00562737       0.00017866      -0.00643199
C       10.22572539       6.23008812       6.78264345       0.00622921       0.00049445      -0.00824759
C        9.71410834       7.68203456       4.78957110       0.00441010      -0.00054377      -0.00766709
C       10.69084855       8.45670458       8.37815539      -0.00747081       0.00082499      -0.00398269
C       10.61042277       6.06871687       8.10739528       0.00450886       0.00075559      -0.00664910
C       10.84940884       7.18139106       8.90819972      -0.00228523       0.00141996      -0.00721672
H       10.17279038       9.61102668       6.64898789      -0.00809136      -0.00063334      -0.00628313
H       10.03480861       5.35690928       6.16774678       0.01202063       0.00046419      -0.00905505
H        8.99413570       6.92820487       4.46601326       0.00492676      -0.00035915      -0.00847814
H        9.30284587       8.67376658       4.60337051       0.00527250      -0.00037944      -0.00973991
H       10.59635166       7.57810298       4.15218457       0.00533178      -0.00117985      -0.00625016
H       10.85001955       9.33245376       8.99470939      -0.01422026       0.00105646      -0.00378308
H       10.71417007       5.07118553       8.51708102       0.00747077       0.00156683      -0.00824827
H       11.15159359       7.05469838       9.94124518      -0.00157436       0.00133671      -0.00645000
C        6.71822173       8.53340939       1.52294286       0.00933360      -0.01787638      -0.00421270
C        6.33713722       7.22443501       1.81651134       0.02624048       0.01941973      -0.00913647
C        5.72632294       9.51491078       1.49274073       0.02208827       0.00999555      -0.01816501
C        8.14655451       8.88095247       1.22571005       0.01268411       0.00464582      -0.00924230
C        5.00969880       6.89994540       2.06844884       0.00469197      -0.01865923      -0.00384046
C        4.40057755       9.19497851       1.74469246      -0.00387265      -0.02447496      -0.01453522
C        4.03493243       7.88491614       2.03105428       0.01777741       0.01542056      -0.02089430
H        7.09457675       6.45061813       1.85837576       0.01499800      -0.00070219       0.00064792
H        6.00017535      10.53995766       1.26827324       0.00821542      -0.01184250      -0.02059021
H        8.40564381       9.86047793       1.62863675       0.01511711      -0.00249013      -0.00288261
H        8.83159596       8.14594682       1.64939652       0.00789700      -0.00075987      -0.01037830
H        8.31689553       8.92294884       0.14678594       0.01172248       0.00293607      -0.00439781
H        4.73720527       5.87517638       2.29301960       0.01600680       0.00386652      -0.00255505
H        3.64681517       9.97002071       1.74333148       0.00637418      -0.00446142      -0.02793406
H        3.00013284       7.64883497       2.24540398       0.00432412      -0.00800577      -0.01759388
C        7.60438278       3.90192928      10.15087533       0.00617348       0.00070343      -0.00894153
C        6.72140466       4.84145294       9.61879011       0.00711410      -0.00319722      -0.00936756
C        7.30636432       2.54842860       9.99114036       0.00708236      -0.00159487      -0.01296821
C        8.81657187       4.34529879      10.91733031       0.00117660      -0.00389136      -0.00295275
C        5.56157035       4.44041011       8.96802462       0.01107596       0.00246081      -0.01675943
C        6.14839148       2.14335276       9.33947755       0.01200534      -0.00081582      -0.01992441
C        5.26929681       3.08978783       8.82959165       0.01141983      -0.00269786      -0.02271575
H        6.94703184       5.89692339       9.72479682       0.00483207      -0.00122513      -0.00754259
H        7.97888072       1.80304744      10.40122494       0.00611298      -0.00102661      -0.01336268
H        9.62425345       3.61652529      10.84370456       0.00358897      -0.00020570      -0.00110170
H        9.18248300       5.30577564      10.55599031      -0.00551253      -0.00202921       0.00588980
H        8.58260255       4.46397873      11.97916789      -0.00538427      -0.01354123      -0.00478941
H        4.88058836       5.18594011       8.57761604       0.01048096       0.00009602      -0.01713260
H        5.91133505       1.08984524       9.25923203       0.01209552      -0.00288329      -0.02378428
H        4.34961537       2.77498653       8.35288095       0.01442318       0.00065355      -0.02728860
C        8.96306955       3.29387735       3.29309609      -0.00007053       0.00058764       0.00484090
C       10.34665103       3.47569720       3.29085405      -0.00116895      -0.00059152       0.00664103
C        8.38028469       2.67205770       4.39781928      -0.00171122       0.00408507       0.00820456
C        8.13139259       3.72411264       2.11965091       0.00003685      -0.00423165       0.00390965
C       11.12385251       3.04326184       4.35882740      -0.00091240       0.00334689       0.00629592
C        9.15366532       2.23188831       5.46571936      -0.00228898       0.00872904       0.00906792
C       10.52949616       2.42271479       5.45069368      -0.00269547       0.00611696       0.01021612
H       10.81451500       3.96099130       2.44109531      -0.00002430      -0.00275703       0.00453466
H        7.30562514       2.53246777       4.42097311      -0.00118381       0.00512309       0.00730433
H        7.11088121       3.96778832       2.41779301       0.00023434      -0.00269743       0.00172521
H        8.56658209       4.59553016       1.62836850       0.00088282      -0.00618336       0.00066081
H        8.06725413       2.92944324       1.37047400       0.00069120      -0.00690374       0.00696965
H       12.19735629       3.18622819       4.33978787      -0.00203234       0.00275388       0.00731372
H        8.68896658       1.73461556       6.30775995      -0.00367774       0.01320624       0.01157373
H       11.13223220       2.07762106       6.27905317      -0.00306473       0.00996849       0.01051310
C        3.74324886       4.44790985      11.99732747      -0.00981905      -0.02276172      -0.01565184
C        4.75934155       3.57387140      12.37678485      -0.00611803       0.00504588      -0.01112115
C        2.55947758       3.90862507      11.49092853      -0.00457895      -0.00248326      -0.01517224
C        3.92645227       5.93112445      12.05094968      -0.01398837      -0.01269880      -0.01253337
C        4.61635646       2.20291977      12.21128515      -0.00759372      -0.02869579      -0.01302680
C        2.40824212       2.53850532      11.33452120      -0.00187188      -0.03567046      -0.01573503
C        3.44569723       1.67937374      11.67994054      -0.00064592      -0.00088871      -0.00880558
H        5.68212281       3.97866322      12.77920354      -0.01121347      -0.00990964      -0.01342988
H        1.75769158       4.58026910      11.20083999      -0.00576210      -0.02290981      -0.01860807
H        3.15597258       6.42529365      12.64608036      -0.00603522      -0.01947767       0.00146894
H        4.89011658       6.20741022      12.47170428      -0.00980663      -0.01159467      -0.02608995
H        3.87045296       6.34187222      11.04441740      -0.03145592      -0.00953308      -0.00943851
H        5.42444139       1.53658297      12.48568326      -0.00399897      -0.00719853      -0.00906905
H        1.48052595       2.14232931      10.93720838       0.00113606      -0.02009978      -0.01629601
H        3.34652547       0.61046068      11.53828329       0.00055911      -0.02048507      -0.00880729
