143
Lattice="12.170811255125981 0.0 0.0 0.0 12.170811255125981 0.0 0.0 0.0 12.170811255125981" Properties=species:S:1:pos:R:3:forces:R:3 energy=-651003.1875 stress="-0.0021689385175704956 -8.624914698884822e-05 0.0005530730413738638 -8.624914698884822e-05 -0.001604139688424766 -0.0004658846592064947 0.0005530730413738638 -0.0004658846592064947 -0.0011654077097773552" pbc="T T T"
Hg      13.30450022      12.67117965      -1.13041747       0.00697468       0.02155664      -0.04420590
B        7.94334648      11.92181914       9.99387687       0.00779897       0.01521992       0.00274857
F        8.34396676      12.34542709       8.70873897       0.00142509       0.00996351      -0.00047755
F        7.90231243      10.49423801       9.98495810       0.00168556       0.01634967       0.00786442
F        8.88968519      12.34837174      10.92940004       0.01628780       0.01385570      -0.00388825
F        6.68629924      12.40548276      10.31498177       0.01277089       0.02258527       0.00937623
B        4.68995847      11.49447474       4.05564892      -0.01093652       0.00206497      -0.00343675
F        5.85046313      12.25698116       3.88744004      -0.01716185       0.01113093      -0.00643962
F        4.97725583      10.34282606       4.79907300      -0.00135586       0.00771463       0.00080717
F        3.70839432      12.25316484       4.69370919      -0.01605475      -0.00272584      -0.00629550
F        4.21254366      11.11006083       2.78066681      -0.00798911      -0.00632536      -0.00158978
O        4.64248260       4.52599572       7.26741260      -0.00604129      -0.00479505       0.02322400
N        2.63624045       5.36915962       6.59236988      -0.00359255      -0.01418683       0.01120916
C        2.51744255       6.26021009       7.71714547      -0.01108950      -0.00951831       0.00702008
C        1.59037721       5.38385055       5.59790237       0.00141418      -0.02108018       0.00626718
C        3.71983660       4.56227541       6.47527021       0.00139570      -0.01098669       0.02253926
H        1.69217527       5.96509824       8.37299584      -0.01511818      -0.00770766       0.00277734
H        2.33150510       7.27801895       7.36934843      -0.01027533      -0.01126221       0.00139476
H        3.44651236       6.23062585       8.28145688      -0.01502296      -0.00629425       0.01281729
H        0.64774300       5.03773537       6.03181314       0.00005540      -0.02095289       0.00339267
H        1.86401257       4.72451551       4.77696150       0.00737245      -0.02428868       0.01081958
H        1.43242979       6.39062880       5.20345899       0.00158758      -0.02310443       0.00103191
H        3.66783445       3.94201326       5.56387473       0.00583479      -0.01579159       0.02309150
O        2.49558094       3.25218880       3.37438554       0.00719929       0.00707471      -0.01217610
N        3.43644377       2.59016872       1.40492774       0.01516504      -0.00089248      -0.00551635
C        2.67177139       3.51846784       0.60169337       0.02276213      -0.00012418      -0.01309735
C        4.33982297       1.68401359       0.72259570       0.01431900      -0.00607328      -0.00067472
C        3.27243243       2.54283115       2.73767823       0.01021248       0.00094491      -0.00965708
H        1.92037243       2.99107897       0.00681901       0.01719731       0.00233248      -0.00788330
H        3.33164507       4.07636693      -0.06199242       0.02766854      -0.01282077      -0.01854183
H        2.18012742       4.22524327       1.25723240       0.03090045       0.01056868      -0.01858342
H        3.78668803       1.05283736       0.02290084       0.01533705      -0.00490929      -0.00245026
H        4.83070272       1.04553688       1.45214784       0.00858451      -0.00656037       0.00340185
H        5.08781062       2.23848158       0.15430519       0.01977375      -0.01064605       0.00225922
H        3.90790437       1.79198857       3.22637691       0.00347996       0.00106066      -0.00358456
O        0.61319691       7.98500644       3.85820044       0.01759903       0.00088441       0.01376915
N        0.73940128      10.26944685       3.90281652       0.00281230       0.00290659       0.00235841
C        0.95640068      10.43362174       2.47835934       0.00780145      -0.00166242       0.00278535
C        0.67938569      11.47124802       4.70768647      -0.01181491       0.00622402      -0.00365805
C        0.57044517       9.06166616       4.44268220       0.00872345       0.00569308       0.00845423
H        1.94222510      10.86819077       2.30541304       0.00723416      -0.00014287       0.00487582
H        0.17894274      11.09245625       2.08692282       0.00776955      -0.00494701      -0.00221305
H        0.88844370       9.46216304       1.99306278       0.01138898      -0.00296521       0.00533318
H        1.60612404      12.03587255       4.60594647      -0.01914012       0.01698074      -0.00774443
H        0.55347628      11.19509460       5.75380102      -0.00614514       0.00958160      -0.00228718
H       -0.17199203      12.07603608       4.39408159      -0.02039143      -0.00726873      -0.00571100
H        0.38712786       9.12446924       5.53250232       0.00373669       0.00961294       0.00620401
O        5.08862993      12.11816288       7.49334971      -0.02524090       0.00403190       0.01277770
N        5.23189629       9.86440137       7.75640445      -0.01046830       0.00612873       0.00816437
C        3.81053437       9.68736818       7.65777763      -0.00890318      -0.00442986       0.00248308
C        6.06829904       8.69543032       7.81094708      -0.00299484       0.01199993       0.01290134
C        5.75321165      11.11113926       7.62034139      -0.02067477       0.01199067       0.01320322
H        3.43506609       9.12952705       8.51955715      -0.00706840      -0.00988267      -0.00032493
H        3.55487139       9.15130598       6.73915400      -0.00155338      -0.00460479       0.00060815
H        3.35699962      10.67556759       7.61863839      -0.01661989      -0.00815707       0.00396801
H        5.81157830       8.06881713       8.66934236      -0.00231971       0.01218700       0.01301751
H        7.10628104       9.00531680       7.92553431      -0.00552332       0.01888470       0.01617199
H        5.96277325       8.08553596       6.90773999       0.00374272       0.00968027       0.01378173
H        6.85170087      11.11113930       7.64817900      -0.01923168       0.01876233       0.01801290
O       12.41309610       8.28429058      11.90134298      -0.00832558       0.01958382       0.00848317
N       11.44150313       9.39243310      10.15882043       0.00165085       0.00357334      -0.00419241
C       11.58359759       8.29853301       9.23987398       0.00610035      -0.00545173       0.00642381
C       10.92252925      10.63144636       9.62174130       0.00291443      -0.00187258      -0.01723634
C       11.87983492       9.27461192      11.42942298      -0.00193346       0.01262438      -0.00108522
H       12.24627798       8.57469282       8.41261643       0.00331761      -0.00980285       0.00306544
H       10.60684968       8.04812631       8.81992955       0.00719905      -0.01541554       0.01001392
H       11.99965813       7.44249939       9.76660962       0.01132831       0.00265276       0.01458433
H       11.66481114      11.11400999       8.97694325       0.00332856      -0.00893795      -0.02175638
H       10.65172530      11.31117505      10.42477783       0.00353611       0.00625575      -0.02377889
H       10.01418600      10.44169733       9.05487182       0.00296429      -0.00692105      -0.01526271
H       11.68491866      10.18681496      12.01882227      -0.00089987       0.02161026      -0.01170415
O        7.42550008       5.50858887       5.84023889      -0.00681448       0.01974463      -0.01777430
N        9.58447583       6.04836484       6.37597191      -0.00852925       0.00402696      -0.00076151
C        9.96957199       4.70755754       6.75531369      -0.02041460      -0.00003219      -0.00309710
C       10.64068636       7.01408552       6.17308329      -0.00075221      -0.00398088       0.00279094
C        8.32766149       6.31823263       5.95479230      -0.00569379       0.01123887      -0.00880511
H       10.46783998       4.72761836       7.72760118      -0.02339688      -0.00641098      -0.00145829
H       10.66131951       4.27906343       6.02677214      -0.02162135      -0.00386336      -0.00184390
H        9.08095977       4.08493400       6.80951968      -0.02541718       0.00742882      -0.00739274
H       11.34170618       6.97322616       7.00590426       0.00064342      -0.01500301       0.00097567
H       10.21054385       8.01271115       6.11784459       0.00787163       0.00002572       0.01024988
H       11.18002116       6.83560619       5.24201948      -0.00406773      -0.00365596       0.00079131
H        8.20122551       7.38722612       5.72497585       0.00349732       0.01446158      -0.00431302
O        3.23824323       6.51562066       1.20728758       0.00065875       0.00048286      -0.00464869
N        4.42120060       6.69606176       3.14584045      -0.00773329      -0.00326599      -0.00018108
C        5.50888788       5.88556612       2.66684697      -0.00798886      -0.00713538       0.00492227
C        4.57452393       7.31132307       4.44416325      -0.01273876      -0.00132294      -0.00059346
C        3.36507932       6.95635484       2.33743657      -0.00339796      -0.00096279      -0.00545621
H        5.75930122       5.11808795       3.40161732      -0.00370706       0.00445631       0.01490313
H        6.39799373       6.49839012       2.50132363      -0.00968897      -0.00828835      -0.00810486
H        5.21007286       5.42982426       1.72626886      -0.01187214      -0.02063171       0.01301914
H        4.85904576       6.55922951       5.18243562      -0.01046114       0.00047910       0.00010526
H        3.63419506       7.77834224       4.73249168      -0.01612958      -0.00671314      -0.00274350
H        5.33385612       8.09455005       4.43106147      -0.01668745       0.00246540       0.00060446
H        2.61047125       7.59942920       2.81434450      -0.00434422       0.00035328      -0.00751162
O        9.43585244       7.32660847       3.44632618      -0.01522249      -0.02336657      -0.00044233
N        8.88562750       6.39691840       1.43473815      -0.00132777      -0.02139794      -0.00483850
C        9.55500043       7.40684662       0.64174537      -0.01043683      -0.01033168       0.00087775
C        8.29567568       5.27063792       0.74408936       0.00936682      -0.02338511      -0.01177011
C        8.93119519       6.43701524       2.77792588      -0.00694516      -0.02697974      -0.00648075
H        8.84572810       7.94298745       0.00687927      -0.01467237      -0.01761106       0.00004913
H       10.31607435       6.93941197       0.01610485      -0.00140876       0.00235385       0.00291006
H       10.05102427       8.10578099       1.30876519      -0.02330607      -0.00602712       0.00599784
H        7.45837366       5.60294611       0.12483402       0.00584736      -0.02802221      -0.00930764
H        7.94241433       4.54007453       1.47018265       0.01770336      -0.03185947      -0.01588711
H        9.03655381       4.78278941       0.10737548       0.01397938      -0.01158118      -0.01510218
H        8.44859939       5.55910797       3.23829930      -0.00049454      -0.03164142      -0.01012108
O       11.38609577       2.39767780       0.08870666       0.02362545       0.01867247      -0.00965977
N       11.38673092       3.11294382       2.25170635       0.00679494      -0.00461847      -0.01130199
C       11.72467503       4.48028888       1.93818049       0.02901288       0.00589238       0.00108770
C       11.23635977       2.77571502       3.64366836       0.00353021      -0.00038763      -0.01360136
C       11.19900027       2.19368864       1.28199786       0.01343027       0.01394030      -0.00676966
H       12.65044399       4.77341212       2.43387850       0.03680918      -0.01469900       0.00698000
H       10.93382053       5.14871381       2.28023260       0.03809118       0.01549216       0.01311535
H       11.83756126       4.57470238       0.86118333       0.02810851       0.01077730       0.00855747
H       12.17099250       2.97117174       4.17659955       0.00532788      -0.01620595      -0.00328662
H       10.97355813       1.72473689       3.72746419      -0.00928988      -0.00304013      -0.01761266
H       10.42323489       3.35166228       4.09009607       0.00566900       0.00360972      -0.00521772
H       10.86037076       1.22328661       1.67764420       0.00759339       0.01491016      -0.02147713
O        8.36455411       2.22460250       2.98908154      -0.01823652       0.03684789       0.00516748
N        7.71222842       1.98529487       5.18057438      -0.01206991       0.00788727       0.00280070
C        8.62299564       0.91548621       5.51453597      -0.01050906       0.00453638      -0.01194223
C        6.72755496       2.34350880       6.18454799      -0.00752284      -0.00223563       0.01084667
C        7.62616953       2.47050410       3.93475934      -0.01354003       0.02384189       0.00867569
H        8.04812390       0.04097233       5.82635507      -0.00930837       0.00137049      -0.01837574
H        9.25489678       1.20053418       6.35908240      -0.00701894      -0.00336553      -0.01192483
H        9.22001681       0.66384258       4.64180421      -0.01427618       0.01312406      -0.01663807
H        6.05424857       1.50956374       6.38898050      -0.01539305       0.00061405      -0.00447880
H        6.17249705       3.21490281       5.85446948       0.00082286       0.00953636       0.02802806
H        7.22461150       2.60171194       7.12038414      -0.00343597      -0.02691483       0.01515532
H        6.78054523       3.17429730       3.84320449      -0.01391417       0.02611202       0.02178507
O        9.93762393      11.43579550       2.69796101       0.00864387      -0.00067377       0.01266527
N        7.92250567      10.44199026       2.23844464       0.00922835       0.00415294       0.00361550
C        7.48567021      11.37074074       1.21465054       0.01553039       0.00891931       0.00477055
C        7.04167178       9.33007728       2.50127754       0.00305861       0.00787965       0.00020481
C        9.08746919      10.57007650       2.88663473       0.00702274      -0.00175679       0.00608352
H        6.48662598      11.71524435       1.47684398       0.01909006       0.01814811       0.00587392
H        7.45018782      10.87640464       0.24334474       0.01028050       0.00985819       0.00457501
H        8.16965992      12.20961211       1.16195471       0.02275053       0.00265208       0.00473399
H        6.02840553       9.68896721       2.67592912       0.00475645       0.01256527       0.00076820
H        7.39353711       8.78525005       3.37383274      -0.00005215       0.00373255      -0.00103498
H        7.02327198       8.64832581       1.64442631      -0.00030077       0.00995526      -0.00123835
H        9.22370041       9.77906695       3.64144172       0.00493015      -0.00594014       0.00147879
