143
Lattice="12.166269646587331 0.0 0.0 0.0 12.166269646587331 0.0 0.0 0.0 12.166269646587331" Properties=species:S:1:pos:R:3:forces:R:3 energy=-705760.3125 stress="0.00024345703423023224 0.00019408397929510102 0.00029630733479280025 0.00019408397929510102 -0.0004711772780865431 -0.0004246100870659575 0.00029630733479280025 -0.0004246100870659575 -0.0013085072860121727" pbc="T T T"
Hg      14.78972291      11.33448989      -0.57769458       0.00058481      -0.00428936       0.00513348
S       13.63037185      10.82216330       1.42716595       0.00720388      -0.01353130       0.00908774
S       11.68359017      10.52046531       1.15711286       0.00366080       0.00215608       0.00681305
O        5.75822121       8.85299225       9.12883550      -0.01600127       0.01958972       0.00404586
O        6.11317102      10.81257576      10.11942136      -0.00915216       0.02707329      -0.01394203
O        4.44663606       9.47744926      10.84443268      -0.01675606       0.04044275      -0.02151698
C        6.89615579       9.40658224       8.44489680      -0.00299591      -0.00486642       0.01255625
C        6.94142582      10.84701318       8.93737079       0.01460028      -0.00127023       0.00139867
C        5.36024299       9.68849225      10.10047047      -0.02442640       0.02934527      -0.00143537
H        6.72419509       9.31275424       7.37545416       0.00062651      -0.01818031       0.01435846
H        7.78063333       8.83556028       8.72294876      -0.01843539      -0.01853138       0.02876943
H        7.92774969      11.20776833       9.21409343       0.01629168      -0.02181228       0.01825938
H        6.47299039      11.52854795       8.22815643       0.03956042      -0.00186461      -0.01371840
O        4.80257282       1.59282934      10.41839077      -0.03127165       0.01763188      -0.00477487
O        4.82175177       1.06062200       8.27262026       0.01204880      -0.01935300       0.00587225
O        3.39460110       0.02579162       9.62862579      -0.00885954      -0.00079019      -0.00362259
C        5.95416336       2.31871860       9.88956585      -0.01831913       0.00312895       0.00533080
C        5.83645631       2.09661973       8.38379428      -0.00852296      -0.00031182       0.00627890
C        4.28895199       0.84540191       9.47088296      -0.01205122      -0.00475988      -0.00030465
H        6.84643765       1.87462126      10.32291455      -0.02677333      -0.00635216       0.01313439
H        5.84360581       3.35452682      10.19627106      -0.01055489       0.00431523       0.00234790
H        5.49959457       2.96542734       7.82288492      -0.02599882      -0.00874951       0.00441606
H        6.75138329       1.70336962       7.94267479      -0.00036776       0.01745553       0.00930048
O       10.37217132      10.42263550      10.05819891       0.00556673      -0.00012302       0.00453226
O       12.47594409       9.70883582      10.07186229       0.00850618       0.00959435       0.00493865
O       12.05286593      11.87750021       9.69558250      -0.00221705       0.00453991       0.00367145
C       10.27733149       9.04956078      10.48011288       0.01123792      -0.00128475       0.00240587
C       11.70033301       8.51952173      10.33189047       0.01475459       0.00604665       0.00724418
C       11.66759312      10.76809266       9.93560492       0.00522198       0.00886738       0.00325184
H        9.56008668       8.54050169       9.84109969       0.01560313      -0.00336105      -0.00042391
H        9.92667721       9.02786292      11.50983970       0.00815176      -0.00349771       0.00118652
H       12.08421553       8.05943766      11.23829091       0.01467468       0.01244751       0.01024187
H       11.83752131       7.83810599       9.49676649       0.02073413       0.00382149       0.01029313
O        8.03983442       7.14194549       6.41790345      -0.00321051      -0.01027625       0.00641724
O        9.56960029       5.54081505       6.19774372      -0.00881736      -0.01284054       0.00128056
O        7.44825950       4.98295132       6.68182873      -0.01295251      -0.01333117       0.00889163
C        9.22720249       7.82908193       5.98297808      -0.00260724      -0.01310921       0.00260799
C       10.31613841       6.76480336       6.12105388      -0.00571340      -0.01397415       0.00146723
C        8.27348763       5.81090279       6.43657431       0.00445437       0.00006455       0.00208580
H        9.38411730       8.68946399       6.63371675       0.00061951      -0.01063941       0.00151828
H        9.06441879       8.15582399       4.95848817      -0.00379315      -0.01246352       0.00203437
H       10.98939931       6.69664960       5.26922981      -0.00455740      -0.01431142       0.00027025
H       10.89811145       6.86443028       7.03993690      -0.00309733      -0.01568968       0.00112218
O        6.94712118      12.84476485       0.56721983       0.00838608       0.01006395       0.00298531
O        6.62462519      10.76204033       1.25952044       0.00717011       0.00698204      -0.00682964
O        4.85523120      12.05088219       0.77061627       0.01449627       0.00942801      -0.00136970
C        8.28445400      12.32503671       0.75330089       0.00795519       0.00751641      -0.00203852
C        8.04992679      10.92722249       1.32992251       0.00727728       0.00647947      -0.00448167
C        6.04172206      11.89744835       0.85279183      -0.00073206       0.01013260      -0.00179651
H        8.80403733      12.99028019       1.44092326       0.01047415       0.00501683      -0.00196886
H        8.78958228      12.32806422      -0.20862891       0.00437824       0.00860101      -0.00381428
H        8.50923967      10.13359643       0.74505084       0.00742561       0.00758490      -0.00527480
H        8.34798403      10.82816500       2.37279745       0.00545067       0.00511186      -0.00437343
O        3.00638473       7.41105872       6.25471227       0.00142264       0.00308536       0.00361505
O        1.95153253       7.74875709       4.32275749      -0.00200674      -0.00206977       0.00504909
O        3.88618118       6.58182017       4.35545204      -0.00669140       0.00372308       0.00759220
C        1.73982337       8.00277895       6.60389983       0.00220723       0.00447501       0.00479555
C        1.29485849       8.59510560       5.27820465      -0.00102288       0.00031051       0.00389245
C        3.02711901       7.17295237       4.92733769       0.00575399      -0.00421107      -0.00049970
H        1.90532077       8.73077234       7.39428584       0.00475869       0.00743213       0.00100768
H        1.09150258       7.20664767       6.96444496       0.00314832       0.00601110       0.00893682
H        0.22304412       8.55432899       5.09345727      -0.00081760      -0.00145223       0.00624431
H        1.64222581       9.62182227       5.13490512      -0.00167513      -0.00027129      -0.00007445
O        9.36930505       6.39463526       3.06563616       0.00082118      -0.00223166      -0.00509413
O       11.45378194       5.75790557       2.64511573       0.00258720       0.00103648      -0.00052209
O        9.96421500       4.25215686       3.38529964       0.00262883      -0.00256753      -0.00614312
C        9.94897173       7.52950609       2.38957791       0.00158420      -0.00001916      -0.00060943
C       11.40529232       7.11458921       2.16528044       0.00213909       0.00154356       0.00096601
C       10.24274500       5.36906595       3.04077900       0.00264464      -0.00010985      -0.00467094
H        9.84831392       8.40753407       3.02555946      -0.00012016      -0.00199524       0.00170952
H        9.38947895       7.67552957       1.47020177       0.00348514       0.00235509      -0.00132900
H       11.67888249       7.10307801       1.11480075       0.00354816       0.00293459       0.00128907
H       12.12762527       7.70463236       2.72286984       0.00085685       0.00142702       0.00280532
O       11.69346548       1.99852492       4.45569548       0.00960831       0.00928503      -0.00119762
O       12.77592149       3.09184287       2.85285944       0.00731289       0.00689091      -0.00283343
O       12.77492767       3.90531798       4.96140865       0.00541925       0.01038527      -0.00385809
C       11.57206117       1.16898923       3.28928895       0.00914593       0.00644362      -0.00380111
C       12.00619696       2.09176893       2.16199203       0.01291136       0.00424436      -0.00310385
C       12.44162044       3.09360944       4.15426414       0.00437225       0.00414741      -0.00656307
H       10.54053497       0.83626821       3.19479532       0.00563005       0.00953340      -0.00411385
H       12.22437029       0.30310062       3.39706221       0.00678235       0.00329909      -0.00141648
H       12.64458468       1.59077102       1.43767360       0.01448080       0.00268716      -0.00036076
H       11.16835994       2.58917733       1.67199040       0.01387393       0.00255603      -0.00688651
O        6.74891860       0.34837786       4.13643519       0.01171741       0.00286932      -0.00516944
O        6.44526837       2.43666126       4.85574932       0.00228438      -0.00151782       0.00032876
O        4.76131309       1.36507190       3.80331942       0.03183186      -0.00460008       0.00433341
C        7.90442341       0.65455326       4.93530585       0.00944191       0.00362051      -0.00144446
C        7.85399550       2.17042787       5.04106896       0.00279379       0.00363916       0.00401028
C        5.87238369       1.39164298       4.22750299      -0.02009767      -0.00291609      -0.01434827
H        8.78326292       0.27323985       4.42112498       0.01090625       0.00979692      -0.00113338
H        7.80415249       0.16194464       5.90575658       0.00826870       0.00001074      -0.00409275
H        8.14646365       2.56885791       6.00862093      -0.00305957       0.00046058       0.00609088
H        8.41645586       2.68130124       4.25844362       0.00207716       0.00866051       0.00741711
O        4.83009554       8.73197783       2.31559263       0.00109375       0.00415756      -0.01188494
O        6.64615153       8.73405667       3.60250529       0.00255372      -0.00013524      -0.01405928
O        6.67196310       7.62533850       1.64116804       0.00232154       0.00886399      -0.02220392
C        4.54584702       9.67498953       3.36163710       0.00061813      -0.00144249      -0.00713554
C        5.62491884       9.37322455       4.39282166       0.00327447      -0.00281300      -0.01054615
C        6.08805111       8.29897546       2.43753570      -0.00005162       0.00718054      -0.01333731
H        3.53287980       9.49403810       3.70613537       0.00159964      -0.00672424      -0.00666980
H        4.61981264      10.68302904       2.95487437      -0.00401627       0.00103259      -0.00215256
H        6.04345513      10.27505598       4.83326486       0.00297417      -0.00303289      -0.00930236
H        5.30232212       8.67066980       5.16198200       0.00531404      -0.00466132      -0.01148969
O        1.14650891       3.91376230       9.32810483      -0.00644824      -0.01789895       0.00520660
O        1.72661491       5.23893705      11.01290205      -0.02494270       0.00294512      -0.00589371
O        1.10443354       6.14429507       9.04969044      -0.02415858      -0.02069569      -0.01650006
C        1.23348892       3.05071708      10.48534449      -0.00820440      -0.00565195       0.01480182
C        2.04861380       3.89448324      11.44777884      -0.01888260       0.00925457       0.00979364
C        1.31461754       5.18651819       9.74058245      -0.01959864      -0.01319438      -0.00603670
H        1.70599321       2.12125334      10.17686748      -0.00044705      -0.00489610       0.02557018
H        0.21853031       2.85144879      10.83067784      -0.00912863      -0.00862132       0.01128072
H        1.76770657       3.79910267      12.49304756      -0.02510086       0.01865925       0.00853091
H        3.12359663       3.76380295      11.33030195      -0.01764327       0.01487836       0.01693512
O        6.75959929       4.35069389       0.54883969      -0.00370207       0.01409222      -0.00751728
O        4.74827680       4.84196431       1.35215730      -0.00035766       0.00876741       0.00240931
O        5.14299900       5.02752780      -0.85102016      -0.01454219       0.00545135      -0.00133431
C        6.81296923       3.96353866       1.94177001       0.00016659       0.00736362      -0.00847818
C        5.56432975       4.60496980       2.52644798       0.00179332       0.00545281       0.00043827
C        5.51549475       4.77829013       0.26660233      -0.00617653       0.00896637       0.00245678
H        7.74121134       4.33685145       2.36518069       0.00101256       0.00681984      -0.00575121
H        6.78176933       2.87300023       1.97460882      -0.00007229       0.00998700      -0.01144923
H        5.01040954       3.96112994       3.20077608       0.00580600       0.00166073      -0.00390944
H        5.75909097       5.56339409       2.99635283       0.00289159       0.00213253       0.00663243
O        9.62425933       0.60177744       7.92126618       0.00553726      -0.01545858      -0.01467614
O       10.68722370       2.31678151       8.85151556      -0.01434414      -0.00627970      -0.01037624
O        9.02108623       1.29803081       9.96809477      -0.02443397      -0.00936010      -0.02114612
C       10.73305801       0.87678873       7.04047355       0.01209429      -0.01118723      -0.00489762
C       11.21284024       2.24312653       7.50347832       0.00146207      -0.00857365      -0.00401917
C        9.73762353       1.39524182       9.01157897      -0.00556895      -0.00872856      -0.02326101
H       10.36890072       0.87860614       6.02145287       0.02084163      -0.01501499      -0.00887081
H       11.48184306       0.09916891       7.18385153       0.01452854      -0.00764000       0.00263689
H       12.29114745       2.34683451       7.54678300       0.00107229      -0.00461554       0.00794797
H       10.79455881       3.06634026       6.92382637       0.00576699      -0.01136911      -0.01154318
O        8.58875526       6.37936731      10.92946459       0.00910275      -0.00165723      -0.00502633
O        9.42705313       4.34208200      10.63356208      -0.00921613      -0.01056157       0.00680630
O        9.89554496       5.46111663      12.51647162       0.00500649      -0.00073128      -0.01115298
C        7.93382645       5.86333709       9.74757597      -0.00116259      -0.00499445       0.00262630
C        8.83455311       4.69881015       9.37375399      -0.01259279      -0.01540416       0.00730905
C        9.34119461       5.39336824      11.45923746       0.00826702      -0.00282214       0.00863498
H        7.89780480       6.65012305       8.99916857       0.00335803      -0.01141894      -0.00373462
H        6.92226506       5.56684391      10.02320001      -0.00234640       0.00670598       0.00985725
H        8.30540625       3.83947756       8.97600648      -0.02097015      -0.01482183       0.01795454
H        9.63988461       4.97730215       8.69115795      -0.01423365      -0.02674070       0.00184622
