149
Lattice="12.155294155446555 0.0 0.0 0.0 12.155294155446555 0.0 0.0 0.0 12.155294155446555" Properties=species:S:1:pos:R:3:forces:R:3 energy=-650965.1875 stress="-0.001378911198116839 -0.00024178865714929998 -0.0005760485073551536 -0.00024178865714929998 -0.0020686257630586624 0.0005191334348637611 -0.0005760485073551536 0.0005191334348637611 -0.004109926521778107" pbc="T T T"
Hg      11.76684063      12.36202716      -0.82173583       0.00248235      -0.01264518      -0.02048242
S       10.71797911      10.07983501       1.17231359       0.01146489      -0.01155522       0.01521325
S       12.71229023      10.61431935       0.27079490       0.00804907       0.00452676       0.00249432
O       10.42552975       8.78768825       0.58702637       0.01134394       0.01661003       0.01076052
O        9.89219764      11.18635144       0.68542024       0.00359118       0.00949728      -0.01503661
O       10.95215278      10.06379000       2.59327267      -0.00166178       0.01998910      -0.01859450
O        4.93465752       3.94158620       4.70648272       0.01078536       0.00301398       0.00198436
C        5.11745623       2.98774037       6.88542199      -0.00843022      -0.00526479      -0.00036055
C        4.48933482       4.38147334       6.93382410      -0.01118667      -0.00666076      -0.00206929
C        5.57941122       2.87302478       5.42472369       0.00098818      -0.00212961       0.00246280
C        3.91729827       4.49030407       5.53564264       0.00125820      -0.00331002      -0.00632089
H        5.93697338       2.87038036       7.59476502      -0.01360081      -0.00469684       0.00520359
H        4.37125838       2.22040299       7.09919904      -0.00826016      -0.00678444      -0.00669764
H        3.73994996       4.50784960       7.71282282      -0.01803255      -0.01036397      -0.00849447
H        5.26237876       5.13989163       7.07384472      -0.01411891      -0.00585458       0.00676382
H        6.65803138       3.01966386       5.31456258       0.00188065      -0.00696586       0.00947840
H        5.29492248       1.91507305       4.98614628      -0.00086981       0.00097513      -0.00250629
H        2.99494114       3.89360196       5.45778586       0.00461471      -0.00620025      -0.01699801
H        3.70953522       5.50655514       5.19533517       0.00096171      -0.00312275      -0.00477789
O        5.07571561       9.99782325       6.50102139       0.00282949      -0.00484651       0.00969966
C        5.78808194       7.71879785       6.53790354      -0.00376141      -0.00612646      -0.00076075
C        4.52115999       7.91232460       7.38730221      -0.00168286      -0.00588119       0.00211167
C        6.09659690       9.13709548       6.00888199      -0.00613664      -0.00672162      -0.00333029
C        3.94090365       9.18327048       6.79289850       0.00094576      -0.00166166       0.00918892
H        6.61421918       7.30840908       7.11990548      -0.00286126      -0.00427920      -0.00228915
H        5.59933732       7.03774589       5.70614720      -0.00447726      -0.00724511       0.00074622
H        3.82331527       7.07891998       7.32396352      -0.00432119      -0.00326341      -0.00028931
H        4.77558766       8.06075497       8.43808774       0.00047128      -0.01104948       0.00219697
H        7.05334775       9.52877683       6.36028638      -0.00114015      -0.00909111      -0.01606971
H        6.11110699       9.16074110       4.91344060      -0.02118534      -0.00607973      -0.00310844
H        3.38966663       8.94518949       5.87801039      -0.00148723       0.00445665       0.00944591
H        3.29185142       9.74491595       7.46387047       0.00438561      -0.00251275       0.01294714
O        2.52939535       7.31112172       3.97577797       0.00234596       0.00237703       0.00229368
C        1.81518504       6.41733861       1.89374745      -0.00568187       0.00930985       0.00264412
C        1.01692893       5.78956178       3.03755271      -0.00361618       0.00792748       0.00291646
C        2.99421653       7.03395565       2.64287209      -0.00248450       0.00486147       0.00046009
C        1.17408947       6.85745890       4.10553256       0.00233856       0.00386602       0.00558251
H        2.13993072       5.70476843       1.13609013      -0.00970527       0.01087852      -0.00019443
H        1.21284678       7.18705924       1.40524127      -0.00533856       0.01168048       0.00662857
H       -0.02410679       5.59314810       2.78179548      -0.00472358       0.01199062       0.00556277
H        1.48299965       4.85557074       3.36392518      -0.00562854       0.00563325      -0.00159733
H        3.83577092       6.33632192       2.70585136      -0.00376117       0.00331530      -0.00378723
H        3.35232020       7.96325174       2.18829878      -0.00233029       0.00517166       0.00170024
H        0.47781206       7.68441497       3.91726449       0.00314099       0.00536484       0.01125960
H        1.03200679       6.51340403       5.13075017       0.00542490       0.00024292       0.00459880
O        3.58760863       1.58739809       3.25906845       0.00032559       0.00577784      -0.00582567
C        2.21424348       2.64243284       1.64827885      -0.00502861       0.00410809      -0.00149947
C        3.60758802       3.26596750       1.64835002      -0.00708407       0.00795156      -0.00318903
C        2.22106973       1.92284063       2.99503444      -0.00098544       0.00212437      -0.00302327
C        4.41019717       2.12024280       2.22620735      -0.00245742       0.01035395      -0.00576982
H        1.39961389       3.36016254       1.55774163      -0.00704715       0.00182074       0.00091915
H        2.12595345       1.91452576       0.83403263      -0.00425522       0.00530997      -0.00230581
H        3.96485899       3.60680417       0.68225471      -0.01054977       0.00895284      -0.00385132
H        3.65639751       4.10809799       2.33970187      -0.00855499       0.00787643      -0.00324756
H        1.86520345       2.58252022       3.79605040      -0.00162154      -0.00065011      -0.00139481
H        1.61381276       1.01658904       3.00557149       0.00182378       0.00058907      -0.00398832
H        4.59380580       1.34312331       1.46812720      -0.00000142       0.01264060      -0.00707975
H        5.36333219       2.42265908       2.65894286      -0.00384185       0.01320659      -0.00540522
O        2.86619244      11.61535368       5.11172937      -0.00301963       0.01025933       0.00899714
C        1.63696016      10.37200012       3.52638541       0.00040370       0.00650293       0.00973737
C        0.94082488      10.28261056       4.87618676       0.00007147       0.00600237       0.00935150
C        3.03185807      10.82626813       3.92006441      -0.00096843       0.00886527       0.01036990
C        1.51661065      11.50987351       5.56040707      -0.00259721       0.00700149       0.00934779
H        1.63386184       9.43924578       2.96841884       0.00252355       0.00606525       0.01087979
H        1.13778559      11.11957905       2.91297167      -0.00074112       0.00480354       0.00894088
H       -0.14351969      10.29535509       4.79414656       0.00030375       0.00386538       0.00918843
H        1.24696274       9.37351325       5.39520361       0.00184552       0.00707257       0.00959387
H        3.67533666       9.96984143       4.14912724      -0.00029257       0.01022375       0.01230201
H        3.52616782      11.44183563       3.16776972      -0.00105891       0.00844032       0.01034877
H        0.95213087      12.40821612       5.26759556      -0.00443903       0.00558043       0.00987726
H        1.52252586      11.45851781       6.65311941      -0.00231719       0.00654256       0.00916213
O        8.23588225      10.78816675      10.22777738      -0.00050944       0.00031397      -0.00593559
C        6.01980062      10.51802497       9.54915874      -0.00466466      -0.00446704       0.00838606
C        6.29191196       9.46867551      10.62106868       0.00639713      -0.00388592       0.00509178
C        7.42680188      10.77168973       9.05444990      -0.00924742       0.00221923      -0.00020256
C        7.58668462       9.98946934      11.24564580       0.00445282       0.00421983      -0.00013205
H        5.34751444      10.21685315       8.75290682      -0.00746055      -0.00675851       0.01224828
H        5.62976216      11.42337646      10.01279759      -0.00638526      -0.00704560       0.01210287
H        5.48475308       9.37444723      11.34698072       0.01021722      -0.01067597       0.00790286
H        6.44671531       8.48891706      10.15954096       0.01164617      -0.00180519       0.00274263
H        7.75217095       9.96155804       8.38464680      -0.01150160       0.00604409      -0.00524589
H        7.54997059      11.72133563       8.52515265      -0.01642550       0.00422984       0.00271665
H        7.39635696      10.63930515      12.10335645       0.00166212       0.00863841      -0.00394818
H        8.27433744       9.20815106      11.56344376       0.00832728       0.01010045       0.00418334
O        6.38162612       3.38498438      10.53262188      -0.00182363      -0.00960562      -0.04817026
C        4.82274002       1.68107823      10.28800373      -0.01259571      -0.00161189       0.01190948
C        4.04638962       2.99972605      10.18568166      -0.00537169       0.00169008      -0.00456939
C        6.06379241       2.09895319      11.06135113       0.00232783       0.00420743      -0.01756561
C        5.13843581       4.07787452      10.34751182      -0.00059825      -0.00387388      -0.00360075
H        4.25491519       0.88650826      10.77136683      -0.00865562       0.01175128       0.03559713
H        5.11346502       1.33425539       9.29423883      -0.03022604      -0.02227784       0.01557583
H        3.51282234       3.08385190       9.24159673       0.00492100      -0.00485207      -0.01038426
H        3.30781919       3.07684603      10.98275518      -0.01317295       0.01353548      -0.01396096
H        5.86375639       2.16743988      12.13699736       0.01907563       0.03059710      -0.01740688
H        6.92625431       1.44612920      10.91250241      -0.00415972      -0.00343469      -0.01672266
H        5.25695223       4.70890878       9.46706895      -0.01753546       0.01932074       0.01416060
H        4.94010744       4.72084451      11.21054348       0.02297838      -0.03173891       0.01875675
O       12.67315776       7.96814669       8.59329292       0.00822550       0.00080685       0.01923496
C       10.98108519       9.56391496       8.74637185       0.00083855      -0.00707495      -0.00128996
C       10.47553518       8.32084540       9.48480671       0.00023222      -0.00598676      -0.00031260
C       12.03931908       8.98364779       7.82454577       0.01042378      -0.00577468       0.00963977
C       11.67388487       7.35418257       9.41583079       0.00226551      -0.00372994       0.00781840
H       10.19336710      10.09837304       8.21545421       0.00298613      -0.01195097      -0.00892738
H       11.44768585      10.25007519       9.45882241      -0.00734538      -0.00234799      -0.00088416
H       10.19587993       8.53963525      10.51114937      -0.00435693      -0.00366688      -0.00215653
H        9.60743000       7.89721568       8.97583564       0.00355712      -0.00916813      -0.00263335
H       11.58224399       8.55843914       6.92140678       0.01917109      -0.01160643       0.00827724
H       12.80584784       9.69678407       7.52738170       0.00954542      -0.00396183       0.01281957
H       12.12187235       7.18458917      10.39709066      -0.00606677      -0.00610480       0.01077026
H       11.38579950       6.39142822       8.97639727       0.00765248      -0.00244868       0.00211346
O       10.73433375       6.21816936       6.35393248       0.00102028      -0.00801782      -0.00102179
C        9.55637649       4.57646648       5.13819671       0.00185616      -0.01108778       0.00161469
C        8.55315795       5.47946469       5.85276364       0.00206405      -0.00870904      -0.00107586
C       10.81818953       4.85034479       5.94329597       0.00299370      -0.00777775      -0.00171003
C        9.40949058       6.71114756       6.10370219       0.00261074      -0.00805697      -0.00716886
H        9.27799958       3.52313388       5.12143215       0.00241309      -0.01101944       0.00661493
H        9.68700393       4.91102401       4.10609998       0.00027401      -0.01588640       0.00008890
H        7.65566301       5.69103133       5.27568335       0.00230935      -0.01106127      -0.00233631
H        8.24625403       5.02781480       6.80205284       0.00215020      -0.00454969       0.00113261
H       10.85715731       4.21258516       6.83705571       0.00719570      -0.00679520      -0.00163409
H       11.74280671       4.70363395       5.38183527       0.00183344      -0.00572238      -0.00383767
H        9.42883833       7.36522252       5.22215810       0.00515361      -0.01366389      -0.01095301
H        9.09295652       7.30332744       6.96501732       0.00174910      -0.00256410      -0.01174909
O        6.03678667       5.48366992       1.51733912       0.00956991       0.00310758      -0.02069576
C        6.85398163       7.19255657       2.88372550       0.00278132      -0.00764889      -0.00421107
C        7.02754863       7.65610079       1.43856207       0.00455335       0.00527519       0.00077491
C        6.80507059       5.68521825       2.70531261       0.00696200      -0.00564510      -0.01756635
C        6.23062968       6.60984507       0.64848317       0.00741498       0.01163900      -0.00950725
H        7.66102501       7.53230079       3.53316931       0.00042063      -0.01170286       0.00013159
H        5.90614685       7.55054620       3.29356935       0.00125739      -0.01373160      -0.00309247
H        6.66134218       8.66771807       1.27453647       0.00371347       0.00610065       0.00885033
H        8.08306267       7.63945923       1.16369236       0.00483170       0.00893642       0.00267587
H        7.81950999       5.28111389       2.56935033       0.00784212      -0.00175770      -0.01970330
H        6.30319436       5.14466248       3.50712974       0.00715384      -0.01332158      -0.02310219
H        5.23905207       6.97455017       0.36008828       0.00692654       0.01183267      -0.00659299
H        6.75205065       6.28266499      -0.25687561       0.00860807       0.02186900      -0.01210576
O       10.85381616       1.69114301      10.12411476       0.00221261      -0.01520172      -0.02228096
C        9.10325883       2.41737402       8.73395468       0.00239354       0.01508747      -0.00203669
C        9.48149382       3.54797466       9.69466983       0.01407430       0.00128818       0.00792705
C        9.65999790       1.19132843       9.41658514      -0.00964209       0.00441533      -0.01395009
C       10.87236181       3.16302809      10.15013606       0.00999993      -0.01653779       0.00330514
H        8.02487818       2.34050072       8.59984152       0.00191250       0.02874249      -0.00108360
H        9.57045272       2.55735048       7.75613008       0.00373833       0.01934377      -0.00035095
H        9.47384362       4.52839130       9.21792323       0.02421571       0.00492436       0.01774165
H        8.77886372       3.57479525      10.52805600       0.01466280       0.00018747       0.00798461
H        8.99735710       0.75457522      10.16235905      -0.00976595       0.01016459      -0.01113200
H       10.00662344       0.40095568       8.75278586      -0.02481002       0.00442515      -0.02058454
H       11.65076724       3.47977879       9.45415011       0.01397663      -0.01118197       0.01100174
H       11.12657650       3.47757131      11.15936462       0.00931673      -0.03617950       0.00862586
