147
Lattice="12.32308429642519 0.0 0.0 0.0 12.32308429642519 0.0 0.0 0.0 12.32308429642519" Properties=species:S:1:pos:R:3:forces:R:3 energy=-646152.3125 stress="-0.0018131472170352936 1.415706879015488e-05 -0.0001676227548159659 1.415706879015488e-05 -0.0016035911394283175 -0.0007963053940329701 -0.0001676227548159659 -0.0007963053940329701 -0.0013658269308507442" pbc="T T T"
Hg      11.88521063      11.29279194      -0.49998655      -0.00048104      -0.00067380      -0.00472149
Cl       5.92613399      11.46449463       5.70873610      -0.00976492      -0.01340427      -0.00625667
Cl       6.91333506      13.37183905      11.92305252      -0.01333055       0.01643062       0.03385270
O        9.17807151       7.74823978       0.80950195       0.01289499      -0.00263000      -0.00089937
C       10.32928283       7.08501906       1.30413365       0.01144481      -0.00281392       0.00294608
C       11.51739015       8.00197293       1.49471355       0.01142156      -0.00330764       0.00367143
H       10.10252424       6.54741263       2.23268093       0.00855620      -0.00009432       0.00394350
H       10.56342590       6.32813984       0.55317774       0.01228622      -0.00483751       0.00585476
H       12.40621159       7.42671660       1.75736578       0.01006564      -0.00284258       0.00853997
H       11.72279020       8.55148520       0.57549870       0.01501373      -0.00669710       0.00271086
H       11.33934686       8.72946943       2.28856388       0.00964955      -0.00048354       0.00053604
H        8.83572602       8.34925418       1.47830533       0.01380580      -0.00028726      -0.00418878
O       12.26284951       1.55668645       2.18312187      -0.00393024      -0.00370076       0.00641048
C       10.96936959       2.11197858       2.48433055      -0.00456934      -0.00477824       0.00648940
C       10.98745450       3.62568098       2.49808912      -0.00854769      -0.00478578      -0.00569120
H       10.23682224       1.72160949       1.77616432      -0.00523135      -0.01143929       0.01084656
H       10.71844867       1.71943166       3.46880136      -0.00090086       0.00248443       0.00999141
H        9.97641114       4.00037016       2.66843773      -0.00939828      -0.00652738      -0.00847411
H       11.65105435       4.01356822       3.27193326      -0.00896023       0.00309201      -0.00950015
H       11.31914674       4.01811085       1.53413460      -0.01069554      -0.01161165      -0.00902703
H       12.40023840       1.61781224       1.23341948      -0.00796805      -0.01231270       0.00609161
O        7.97125484       1.40186488       6.03626597      -0.00759822      -0.03330112      -0.00101894
C        8.08867848       2.35868705       5.00277439      -0.01604212      -0.02173257       0.00946856
C        7.72613609       1.82529493       3.63637961      -0.01043931      -0.01434210       0.00522155
H        7.47553976       3.24124744       5.23663748      -0.02787974      -0.03289956       0.01856710
H        9.13445591       2.69234252       5.01271803      -0.02042431      -0.00863835       0.01271380
H        7.88842683       2.57484882       2.85879251      -0.02871766      -0.00447190       0.01123296
H        8.33266554       0.95527522       3.39754104       0.00518171      -0.00028197      -0.00509328
H        6.68449488       1.51317927       3.60843190      -0.00436926      -0.03395107       0.00819303
H        7.23675201       0.75835086       5.87067475      -0.00812081      -0.03225961      -0.00472032
O        9.31824324      12.01808742       0.86740871      -0.00534275      -0.00846905      -0.00758785
C        8.97438759      11.11418244       1.89770719       0.00169671      -0.00673109      -0.00421143
C        7.56025160      10.58589797       1.78895611      -0.00092536      -0.00233607       0.00732400
H        9.70508743      10.29720313       1.84798256      -0.00041166      -0.00793040      -0.00959837
H        9.11461957      11.58079402       2.88204642       0.01057184      -0.00652421      -0.00557286
H        7.32651423       9.93378152       2.63292251       0.00146134       0.00183245       0.01093593
H        6.84696155      11.40995667       1.81085485       0.00307770       0.00081134       0.01063336
H        7.40065112      10.04329681       0.85692635      -0.00929982      -0.00475404       0.01011147
H        8.50271153      12.43747868       0.49346409      -0.00725919       0.00018550       0.00701332
O        2.47615973       0.49133994       9.05272564       0.01095295      -0.02731335       0.01189759
C        2.75199269       1.75060863       9.64260628       0.01166324      -0.02352917       0.00245440
C        2.26007179       1.84189559      11.07276729       0.00934216      -0.01140933       0.00053424
H        3.82236459       1.97468479       9.61197017       0.01198238      -0.02453348       0.00231268
H        2.23787472       2.48571565       9.01799781       0.01392138      -0.02775219      -0.00432229
H        2.42278674       2.84336488      11.47307260       0.01201322      -0.00928985      -0.00644196
H        1.19543437       1.60181982      11.11429485       0.00874498      -0.00789388       0.00044593
H        2.80362270       1.13976990      11.70653237       0.00596845      -0.00836873       0.00665003
H        3.01598143      -0.17859009       9.48822566       0.00468091      -0.02689762       0.02222668
O        1.97456254       3.04448715       3.33663091      -0.00178725       0.00601569      -0.00275707
C        2.98284345       2.90600203       2.34855460       0.00152314       0.00612798       0.00043494
C        4.18365432       2.14137591       2.85931155      -0.00578499      -0.00647235      -0.00153032
H        2.57844462       2.40701315       1.46223418       0.00116765       0.01681989      -0.00525594
H        3.29571088       3.90795513       2.03183570       0.00948499       0.00628662       0.01027858
H        4.97059128       2.12762468       2.10213410      -0.00486241      -0.01004353      -0.00020856
H        4.56951153       2.61617786       3.76074123      -0.00267036      -0.01413181       0.00117163
H        3.92670021       1.11298997       3.11334267      -0.01503168      -0.00545308      -0.00720547
H        1.24960691       2.45019762       3.08389957       0.00110203       0.00231110      -0.00145127
O        6.03616716       5.64462740       1.09816433      -0.02116752      -0.01859011       0.00580406
C        6.51250088       6.13645930       2.32711069      -0.00551050      -0.00652036      -0.00546873
C        5.98700129       5.32050128       3.49509828       0.00825727       0.00729686       0.01044363
H        7.61171824       6.14476803       2.34335413      -0.00568879      -0.00782592      -0.02033095
H        6.18592299       7.17615108       2.39968606      -0.00329021      -0.00538886      -0.01153271
H        6.27866372       5.74950914       4.45739892       0.01967260       0.01952228       0.00134751
H        4.89958378       5.27092909       3.45216565       0.00790256       0.00698447       0.02440134
H        6.36609396       4.29966038       3.44356111       0.00703086       0.00654276       0.01917724
H        6.52306051       4.81224997       0.91745261      -0.00998588      -0.01038814      -0.00027837
O       10.41899644       0.69720881       6.92253827      -0.01394451       0.03144759      -0.01518905
C       10.30002436       1.41657466       8.13196019       0.00600681       0.00983000      -0.00172257
C       11.62232916       2.08235967       8.44174828       0.01312512      -0.00590199      -0.00290830
H        9.49845691       2.15956845       8.04348533       0.01084775       0.01936692       0.02504200
H       10.01804770       0.74932127       8.95970807       0.00966865      -0.00373429      -0.01282465
H       11.55872802       2.65364482       9.36981234       0.02363955      -0.01563133       0.00301737
H       12.40711407       1.33235681       8.54405876       0.00652328      -0.01465327      -0.01421741
H       11.89948115       2.75823379       7.63032911       0.01463976       0.00122248       0.00334381
H        9.53018803       0.70652528       6.51705721      -0.02726552      -0.01306029       0.02579731
O        7.80623834       3.66157724      12.90446307       0.01629248       0.01156890       0.00960159
C        8.33412376       4.34362999      11.77914371       0.00837630       0.00375368       0.00148845
C        9.24163061       3.47611681      10.93057221       0.01346594       0.00066620       0.00975007
H        7.51481584       4.73336871      11.16600271       0.00413680      -0.00946347      -0.00111207
H        8.87302489       5.20639255      12.17522613       0.00225952       0.01212716      -0.00952253
H        9.71278615       4.07719697      10.14928762       0.00231783      -0.00696932      -0.00248630
H       10.02411596       3.02194430      11.54083121       0.02197082       0.01909496       0.01238644
H        8.67935079       2.66904074      10.46308799       0.01948658      -0.01238492       0.02557293
H        7.43917299       2.78393713      12.58848148       0.01275989       0.01028718       0.01747444
O       11.27538519       6.05454557       5.34267314      -0.00507730      -0.00559288      -0.00815094
C        9.85910239       6.17299257       5.42294959      -0.00668204      -0.00784747       0.00170881
C        9.27826206       5.47378006       6.63192043       0.00313102      -0.01507646       0.00172639
H        9.56643586       7.22938101       5.41351969      -0.00488985      -0.00693941       0.01299470
H        9.48168154       5.71902391       4.50616097      -0.01421259      -0.00028136       0.00236154
H        8.19153561       5.56765199       6.64542907       0.00339718      -0.01714054       0.00956296
H        9.53737781       4.41657030       6.63462489       0.00564695      -0.01368842      -0.00522145
H        9.65022648       5.91606885       7.55861699       0.00852197      -0.01874189       0.00242998
H       11.65875309       6.49508622       6.10659626      -0.00077921      -0.00656117      -0.01828352
O        2.44033134       8.65885117       4.00712026      -0.02649897       0.00255686      -0.00331209
C        1.64946589       7.56682496       4.44452017      -0.01318261      -0.00360763       0.00550052
C        2.22167311       6.22151061       4.06110795      -0.00545469       0.00035167       0.00412445
H        1.49745502       7.61476075       5.53090607      -0.00374518      -0.00260565       0.00693130
H        0.67516623       7.71447289       3.98211976      -0.01824415      -0.01347414       0.01407850
H        1.53184574       5.41044956       4.29110412       0.00244994      -0.00429882       0.01099620
H        2.43634519       6.18923942       2.99190326      -0.01396705      -0.00109634       0.00265217
H        3.15259297       6.02492487       4.59727311      -0.00003654       0.00867148      -0.00277849
H        3.31773698       8.59064563       4.39744664      -0.02218060       0.01040556      -0.01419508
O        4.27101249       9.99637251      10.30327941       0.00894308       0.03280717      -0.00096271
C        5.36897136      10.89097361      10.51627228       0.01162702       0.03143757      -0.00669790
C        6.69690948      10.22335912      10.23224288       0.01099116       0.02979720      -0.00359367
H        5.26022971      11.78163531       9.88765782       0.01155638       0.02773988      -0.01137441
H        5.31749085      11.21736891      11.55280612       0.01305073       0.03742345      -0.00860095
H        7.50708050      10.92099438      10.44457949       0.01065297       0.02856237       0.00073808
H        6.81526004       9.34224274      10.86474503       0.00779729       0.02886166      -0.00459793
H        6.75763241       9.91875649       9.18593871       0.01518501       0.03131258      -0.00387923
H        4.31925262       9.76456651       9.34812486       0.00942912       0.02070783       0.00186316
O        5.13738421       8.74374523       0.42757543      -0.02310437      -0.00870197      -0.03740978
C        4.14478876       8.84216657       1.43249064      -0.00997913       0.00124827      -0.02602854
C        2.81261254       9.30103640       0.88325266      -0.01492918       0.00680691      -0.00895083
H        4.03359780       7.86185907       1.91161752      -0.00841966       0.00277430      -0.02318737
H        4.49324738       9.53633687       2.20842148       0.00041202       0.00105971      -0.03006738
H        2.08176814       9.37532946       1.68590778      -0.00336774       0.00739264       0.00130011
H        2.91153866      10.27125867       0.39523549      -0.01873124       0.00827026      -0.00670364
H        2.44857839       8.59532243       0.13299553      -0.02825726       0.01044300      -0.00539505
H        4.73851979       8.97754214      -0.42528115      -0.01834577       0.03334547      -0.02771628
O        5.13824511       3.97168432      10.77413788      -0.01191682       0.00867891       0.01991227
C        4.22649081       5.06149533      10.81374510      -0.00978750       0.01259696       0.00247679
C        4.81322301       6.35430221      10.29142297      -0.00094029       0.00426996      -0.00700307
H        3.30332263       4.80765439      10.27410743      -0.00504202       0.00901619      -0.00391349
H        3.98341749       5.17355522      11.87029225      -0.01871894       0.02449890      -0.00179881
H        4.08615555       7.16401489      10.37217569       0.00051382       0.00706902      -0.02289070
H        5.68070837       6.63132216      10.88758836      -0.00651880       0.00909282      -0.00147037
H        5.10038814       6.27045542       9.24003348       0.00895857      -0.00881077      -0.00299689
H        5.35567016       3.77335274       9.85881988      -0.00128990       0.00338586       0.02810644
O        4.53428068       9.68336735       7.66672561       0.00660342      -0.00240275       0.00867671
C        3.37640067       9.31884108       6.94329858       0.00782937       0.00741333       0.00147299
C        2.14543782       9.39796161       7.82307683       0.00374663       0.00780097      -0.00491387
H        3.26926051       9.97741238       6.07906460       0.01625227       0.01423949       0.00571316
H        3.49811792       8.28731901       6.57610304       0.00545821       0.00987846      -0.00489320
H        1.26625024       9.02501442       7.29478541       0.00629728       0.01414226      -0.01333471
H        2.27516808       8.80218693       8.72879888      -0.00501157       0.00243442      -0.00755705
H        1.95114211      10.42882158       8.11326279       0.00565117       0.00679743      -0.00115120
H        5.07619175      10.30279564       7.09859810       0.01003058      -0.00388658       0.01033129
O       10.18699115       8.56871567       8.69225873       0.00906219      -0.03079621      -0.02700257
C        9.70971358       8.27323775      10.00560357       0.00111702       0.01572579      -0.00714952
C        8.57996660       7.27053624       9.99868951      -0.00114965       0.01111472      -0.00934421
H       10.53368335       7.91640487      10.63681164      -0.00058436       0.00693408      -0.00850269
H        9.38237494       9.22559050      10.41985247       0.00591782       0.00801343      -0.01709236
H        8.17416316       7.15927481      11.00259906      -0.00243539       0.01737058      -0.00502840
H        7.78560629       7.59351618       9.32688242      -0.00065865       0.01203740      -0.00775898
H        8.93147097       6.28831196       9.67344658      -0.00742152       0.00889546      -0.00221128
H       10.31606956       7.72944351       8.24353861       0.01087366       0.01151114       0.00443660
