148
Lattice="16.754586220358316 0.0 0.0 0.0 16.754586220358316 0.0 0.0 0.0 16.754586220358316" Properties=species:S:1:pos:R:3:forces:R:3 energy=-1821589.625 stress="-0.0003393343067727983 0.0001453214426874183 0.0001953210958163254 0.0001453214426874183 8.420528502028901e-06 -1.2602614333445672e-05 0.0001953210958163254 -1.2602614333445672e-05 -0.00017952533380594105" pbc="T T T"
Hg      15.91131456      16.71852594       0.58653662      -0.00533023      -0.01727438      -0.00611139
Br       9.17227301      16.43977750       7.04402784       0.02572775       0.03107136       0.00226268
Br       5.55877729      15.07352958       3.46437614       0.00798181      -0.01249173       0.00318551
Cl       5.06238159      14.62631133       9.94980575      -0.01470920      -0.00526822      -0.00673702
Cl       5.83934546      17.40104273      10.41409388      -0.03459930       0.01050833      -0.00376099
Cl       4.75762103      16.60557761       7.81665501       0.03630030      -0.00204286       0.00496793
C        4.72872173      16.32005132       9.55801421      -0.00622754      -0.00903154       0.00061931
H        3.72723567      16.54483673       9.89961747      -0.03926793      -0.01956762       0.01952246
Cl      13.34272068       9.43665972       8.52220989       0.00928390       0.00334647      -0.00660649
Cl      10.85903657       9.59821934       6.99415864       0.00705338      -0.00363281      -0.00523893
Cl      11.85743252      11.94138091       8.42281586       0.00490201       0.00098950      -0.01124674
C       12.28426283      10.47957116       7.53561021       0.00830940       0.00030009      -0.01053815
H       12.85378973      10.77668920       6.66453535       0.00442888      -0.00239120      -0.00766701
Cl      13.98259625       8.44158796      16.03228670       0.00147371       0.00349447       0.00590831
Cl      15.62037400       9.44437692      13.83921603      -0.00992104      -0.00047848      -0.00436177
Cl      14.64195169       6.69087799      13.79344798      -0.00331756      -0.00217995       0.00918666
C       14.30126140       8.35468172      14.29463505      -0.00388005      -0.00219937       0.00576484
H       13.40656205       8.68269424      13.77877495      -0.00934815      -0.00517786       0.00726467
Cl       2.95208144       6.32332044      -0.37483579      -0.00216328      -0.00612667      -0.00820518
Cl       3.00215442       8.91941187       0.95774290       0.00246354      -0.00935417      -0.00159430
Cl       0.47605465       7.51198683       0.57383168      -0.00004107      -0.00190973      -0.00734275
C        2.21465283       7.33962718       0.87196688      -0.00078684      -0.00695376      -0.00725891
H        2.34138972       6.84586030       1.82928079      -0.00305897      -0.01053526      -0.00722644
Cl       8.21808394       2.56217231       8.24575906      -0.02467988       0.00591224      -0.00235084
Cl       7.39508750       5.28617113       7.55680796      -0.00461712       0.00477713      -0.00781775
Cl       6.81893432       4.23689829      10.21686102       0.00194612       0.01388489       0.00337654
C        7.95378611       4.19571401       8.84111256      -0.00973972       0.00728560      -0.00539294
H        8.90042294       4.58100083       9.20129513      -0.00176936       0.00673205      -0.00931580
Cl       5.21834382      10.15496476       9.72834110      -0.00327933      -0.00588492      -0.00024854
Cl       3.68496311       9.10760371       7.49138459      -0.00622611       0.00156156      -0.00167656
Cl       4.74028486       7.28052764       9.49980926      -0.00263134      -0.00485250      -0.00922476
C        4.09336261       8.89798319       9.19899799      -0.00320552      -0.00422805      -0.00341648
H        3.17811657       9.00110990       9.76886613      -0.00330672      -0.00662631      -0.00097685
Cl      10.12309292       1.82044200       1.90364182      -0.00225538      -0.01465766      -0.01511464
Cl       8.12671196       0.54370760       3.61908825      -0.00047073       0.00423020      -0.00607720
Cl       9.70930021       2.78551767       4.63624739       0.01509228      -0.01218572      -0.00552875
C        8.93826143       2.05053369       3.22195896       0.00832991      -0.00216919      -0.00749986
H        8.19186814       2.74451888       2.85737197       0.01288128       0.00763601      -0.00223896
Cl      11.04769234      14.85600440      13.85439124      -0.00024119      -0.00187158       0.01170018
Cl      13.95472777      14.55486192      13.92411369      -0.00378254      -0.00440156       0.00922573
Cl      12.68734468      16.82847977      15.24803668      -0.00057119       0.01315862      -0.00986927
C       12.52060062      15.12328362      14.79823590      -0.00018014       0.00618042       0.01099134
H       12.44128180      14.54683136      15.71219567       0.00100452       0.01964052       0.01367646
Cl      13.71314606      12.32872257       4.67846715      -0.00391975       0.02051617      -0.00042802
Cl      15.41244913      14.61449037       5.26690433       0.00499992       0.01268929       0.00455177
Cl      15.45034204      12.27993546       7.02413199      -0.00056429       0.00590055      -0.00435692
C       15.26256629      12.86296396       5.35841127      -0.00190839       0.01339450      -0.00127585
H       16.05539995      12.42041897       4.76772229      -0.00278646       0.01256309      -0.00496748
Cl       6.57731771       2.12216361       0.28289472      -0.00734861      -0.00807196       0.00140047
Cl       5.46549224       4.37028679       1.76188042      -0.00192234      -0.01366098       0.01212507
Cl       8.01519723       4.65840412       0.39330351      -0.00374144      -0.00996180       0.00810345
C        6.42627948       3.87340023       0.35865425      -0.00297667      -0.00963473       0.01146694
H        5.91270998       4.20988364      -0.53468328      -0.00580905      -0.00322696       0.00979143
Cl      13.18194939       2.70658977       3.78066730      -0.00335801      -0.00332952      -0.00684869
Cl      14.17435286       4.33531703       1.57192917       0.01138229       0.00600708       0.00861205
Cl      16.05272518       3.06842388       3.41529654      -0.00039977      -0.02441845      -0.00129560
C       14.47091423       2.92826625       2.61373444      -0.00055308      -0.00298345      -0.00190355
H       14.51310210       2.05346764       1.97224391      -0.00674774      -0.00194776      -0.01227574
Cl       5.35915098       9.13915948       4.18034094       0.00749782      -0.01509130      -0.00813836
Cl       7.55844804       8.35805354       5.92871522       0.00307244       0.01244196       0.01130218
Cl       7.63387808      10.92664110       4.54273508      -0.00677791       0.00393963      -0.00644964
C        6.60734107       9.71651532       5.29938404      -0.00677921       0.00450949       0.00176108
H        6.09920965      10.17702229       6.13707276      -0.00983056       0.00181200      -0.01361093
Cl       8.74195381       4.46789420      13.75334900       0.01024294      -0.00699808      -0.00130591
Cl      11.39265295       5.34335514      12.92764208       0.00195354       0.00969562      -0.00983164
Cl      10.10778325       3.10529685      11.56066427       0.00445747       0.01233208      -0.01711003
C        9.85099184       4.64513448      12.38893332       0.00121001       0.00785859      -0.00788994
H        9.40449359       5.33801192      11.68463045      -0.00401907       0.00764191       0.00075895
Cl       3.62025422      13.58357104       0.00859795       0.00083143       0.01759944      -0.00190511
Cl       5.12252009      11.51647678       1.42480951      -0.00298138       0.00963765      -0.00911143
Cl       6.50828209      13.36099120      -0.36431582       0.00196967       0.01925503       0.00450933
C        5.15781671      13.16017586       0.76775248      -0.00123638       0.01301900      -0.00074816
H        5.32187089      13.84353196       1.62901898      -0.00211433       0.00860888       0.00407383
Cl      -1.56524882       2.81023432      14.77305383      -0.00113904       0.00203758      -0.01005709
Cl       0.84972568       3.15681690      16.37138356      -0.01146001      -0.00370163       0.00818515
Cl       0.75222055       4.16075006      13.63316748       0.00775945       0.00504963       0.00958046
C       -0.17201285       3.85044565      15.11462137      -0.00450865       0.00549600       0.00452485
H       -0.54572752       4.80187101      15.47264526      -0.00336656      -0.00351024       0.00188920
Cl       8.37944311       7.90916063       9.59119710      -0.00259189       0.00442496       0.00643373
Cl      10.71569498       9.03768985      10.90469499       0.00607067       0.00151381      -0.00635812
Cl       8.64838731      10.80781510       9.87112069       0.00238695       0.00363627       0.00370732
C        8.98570606       9.23011476      10.59411845       0.00503307       0.00381784       0.00234443
H        8.47088941       9.19143895      11.54576669       0.01012722       0.00501347       0.00580719
Cl       5.22584219      -0.42578770      14.15182020       0.00192088      -0.00355622       0.02473103
Cl       2.47736092       0.15098673      14.92171004      -0.00891465       0.00037163      -0.01293832
Cl       4.19817083       2.30474610      13.95442254       0.00468864      -0.00239792       0.00722788
C        3.80947412       0.57125952      13.83905685       0.00594947      -0.00306121       0.00229124
H        3.47845035       0.39584240      12.82291962       0.02156150      -0.00417090       0.00222671
Cl       2.21107468      14.08016778       6.67977029      -0.00064683       0.00702170      -0.02009457
Cl       4.77440376      12.69881100       6.75862917      -0.00987855      -0.00630176       0.00709334
Cl       2.83719986      12.07425600       4.66380479       0.00278027      -0.01013818      -0.00251728
C        3.49713661      13.34174065       5.71968732       0.00051643      -0.00709739      -0.00611448
H        3.95836785      14.09611298       5.07276062       0.01023629      -0.01215702      -0.00899112
Cl      10.48539886       8.86168596      14.55074682      -0.00113025      -0.00173692      -0.00411746
Cl      12.08002136      11.19556262      13.81824363       0.00003636      -0.00025370       0.00328285
Cl       9.17001014      11.29443642      13.61604592      -0.00074652       0.00499544       0.01690939
C       10.54718099      10.63968693      14.49949256       0.00250505      -0.00199819       0.00550119
H       10.48603276      10.98797494      15.52268370       0.00803425      -0.00723244       0.01008341
Cl       8.59860884      10.42284113       0.76399646       0.00079922      -0.00894853      -0.00047394
Cl       8.99730848       7.99601279       2.33341401      -0.00220044      -0.00973833      -0.00114191
Cl       6.61594166       8.28707844       0.68047653      -0.00477836      -0.00391340       0.00097065
C        8.33568229       8.67164540       0.84716481      -0.00177062      -0.00977196      -0.00297250
H        8.85456121       8.22546845       0.00875622      -0.00696765      -0.00948115       0.00075197
Cl       0.34552383       9.73762841       9.45734833       0.00152363      -0.00411767       0.00536624
Cl       1.06261130       6.95456004       8.94061328       0.00956076      -0.00122727       0.00007606
Cl      -1.34790687       7.57153792      10.43484079       0.00014597      -0.00963540      -0.01059896
C       -0.25932053       8.10329025       9.14391879       0.00583132      -0.00432763      -0.00419894
H       -0.81897691       8.13912412       8.21632346       0.01186329      -0.00277949      -0.00589865
Cl      10.68988878      13.50767427       2.20615850      -0.01098169       0.00142854       0.00281121
Cl      11.17217463      15.04477031       4.64525296      -0.01068453       0.01170391      -0.00391901
Cl      12.76674785      15.57133977       2.24673890      -0.00802898       0.00083030      -0.00561811
C       11.18142504      15.07988030       2.89765611      -0.01286327       0.00813218      -0.00592095
H       10.45701000      15.81569372       2.57409477      -0.00559074       0.00163472      -0.00728551
Cl       1.67909416      15.38894048       2.89424326       0.01074076      -0.00793701       0.00990333
Cl       2.18068835      17.58087145       4.75862917      -0.00106236       0.00018049       0.00382495
Cl       2.81530850      17.89975231       1.92686531      -0.00052774      -0.00417390       0.00324714
C        1.74031518      17.14109147       3.10714599       0.00009829      -0.00632947       0.00395143
H        0.74366327      17.52362566       2.92125013       0.00232810      -0.01374194       0.00256863
Cl      11.86502500       4.83069175       8.85701476       0.01559633      -0.02261201       0.01534194
Cl      14.57283089       4.28275960       7.93111276       0.01447204       0.02180389      -0.01236858
Cl      12.62884215       5.48302045       6.11020798      -0.01692732       0.01242079       0.01285046
C       13.16858144       5.36197259       7.78271409      -0.00033821       0.00773236       0.00908406
H       13.47956796       6.34768813       8.10660920      -0.01208121       0.00314447       0.01238644
Cl       2.23172859       2.36429278      10.60232305       0.00459588       0.00176071      -0.01036639
Cl       0.10674291       1.37432800       8.86797665      -0.00870058      -0.00084272       0.00681537
Cl       0.45426176       0.25401997      11.54369509       0.01060116       0.00441712       0.00568296
C        0.58840466       1.70437735      10.53494890       0.00463898       0.00170964       0.00175302
H       -0.08357379       2.45005316      10.94218758       0.00680712       0.00471896       0.00583991
Cl      -0.49672948       6.55752148       4.13987293      -0.02649307       0.00808322       0.01350415
Cl      -0.64699575       9.17374294       5.42971070       0.01559992       0.01787519       0.00285310
Cl       1.94302933       8.05295591       4.69076537      -0.00382581      -0.01446187      -0.01805517
C        0.22679693       8.15290774       4.27123264      -0.00815984       0.00611740      -0.00967263
H        0.16457999       8.63653640       3.30289711      -0.01229039      -0.00455394       0.00131893
Cl       3.47799401       4.51967126       4.50220631      -0.00496636      -0.00458130       0.00026828
Cl       1.32204989       4.21478475       6.44046088      -0.00057411       0.00343645       0.00474598
Cl       4.01607800       3.32069871       7.10310327      -0.00155926      -0.00503853       0.00001651
C        3.05449435       4.50635599       6.22521088      -0.00029282      -0.00222704       0.00124659
H        3.27373472       5.49043324       6.62216420       0.00422312      -0.00352114       0.00031984
Cl      13.62405393      12.21303159       0.51190460       0.00740471       0.00971715       0.01293865
Cl      16.42367783      12.85227298       1.02748291       0.01517126      -0.00674358      -0.00980701
Cl      15.26451431      10.38336316       2.05521822       0.00766638       0.00545384       0.00653443
C       15.25342053      11.56792963       0.73194594       0.00378509       0.00256632       0.00584151
H       15.53686863      11.04597905      -0.17437810      -0.00455504      -0.00567669       0.00007105
Cl       6.64228992       8.09656384      13.50200298       0.00664830       0.00739886      -0.00693135
Cl       3.84519400       8.75778523      12.95804322      -0.00034134      -0.00590353       0.01045933
Cl       4.64905932       5.97220130      13.31905440       0.01566380      -0.00361538      -0.00119005
C        4.94983601       7.65712895      13.78345762       0.00915055      -0.00236645       0.00757717
H        4.76266709       7.74433743      14.84721980       0.01700794      -0.00737720      -0.00114331
