141
Lattice="12.402825053695462 0.0 0.0 0.0 12.402825053695462 0.0 0.0 0.0 12.402825053695462" Properties=species:S:1:pos:R:3:forces:R:3 energy=-772916.5625 stress="-0.0019857820589095354 0.0011053189518861473 0.0005830234149470925 0.0011053189518861473 0.000197105691768229 0.0002478904352756217 0.0005830234149470925 0.0002478904352756217 -0.0007622118573635817" pbc="T T T"
Hg      12.88586917      11.37615860       1.27635913      -0.00867399      -0.01899572       0.00424711
B        0.44399221      11.48369438       4.41579549      -0.00619357       0.01800372       0.00690827
F       -0.54767880      12.00430486       3.52200035      -0.01341993      -0.00753140       0.00279337
F        1.00486119      12.51969051       5.13850739      -0.03285739       0.03286737       0.00592971
F       -0.09444265      10.51078685       5.21039439       0.01369143       0.00713480       0.00726360
F        1.45499876      10.91288126       3.56752691       0.01124364       0.03745452       0.01363933
B        8.06709380      11.92282747       8.97706152      -0.00548276       0.02154133      -0.01682303
F        7.93055790      11.38762564      10.26598650      -0.01012030       0.03781077      -0.01085758
F        8.62128801      11.00012188       8.10492635      -0.01621372       0.00553077      -0.00647986
F        6.81986180      12.35685959       8.49933935      -0.00271511       0.02752560      -0.02037469
F        8.92593501      13.06399537       9.06110004       0.00429380       0.01392746      -0.03150207
S        5.43440633       1.75860623      10.79272753      -0.00956696      -0.00327384       0.00681627
O        5.62386864       1.96264832      12.27351382      -0.02074009       0.00762197       0.00684202
C        6.72245751       2.74221923      10.01815107      -0.00624579      -0.00748599       0.00779797
C        4.07784150       2.84980295      10.30684684      -0.00791711      -0.00912404      -0.00948993
H        7.65048558       2.17635428      10.05882036      -0.00342695      -0.00007446       0.03003985
H        6.77965585       3.67566123      10.57620844      -0.01993879       0.00371306      -0.01017387
H        6.46263848       2.93092224       8.97815799       0.00727303      -0.03151970       0.00036976
H        4.03883227       2.90762253       9.22070029      -0.00911499      -0.02586614      -0.01020923
H        4.24942467       3.84198576      10.72784380      -0.00707640      -0.00337972      -0.02367929
H        3.15115372       2.41337897      10.67107444      -0.00788167      -0.00326440      -0.00250497
S       12.57746308      10.04156146       9.76453237       0.00230289       0.01122689       0.01956105
O       12.47751782       8.70274340      10.46958037      -0.00354695       0.01922047       0.03394592
C       11.12939385      10.98700160      10.24227907      -0.00166714       0.01740062      -0.00340670
C       12.05088643       9.84016325       8.05961910       0.01536995      -0.01024777       0.01794744
H       11.25843947      11.33390860      11.26686806      -0.00980087       0.03176354      -0.00737085
H       10.25312846      10.34905189      10.14136567      -0.00076635       0.01601589      -0.00162154
H       11.06320504      11.84417051       9.58189705       0.00265229       0.00797230      -0.01607272
H       12.11580294      10.82020440       7.59069453       0.01576821      -0.01662520       0.00516926
H       11.02672300       9.46731472       8.03545527       0.01667473      -0.01361763       0.01581467
H       12.73328626       9.16447032       7.55001810       0.02055819      -0.01546110       0.03160672
S        9.77960326       6.89057440       9.82457329       0.00627154      -0.00056875       0.01160538
O        9.20547359       8.09094871       9.15142259       0.00643641       0.00110435       0.01447701
C       11.11508904       6.28273022       8.77601178       0.00866520       0.00561982       0.01140726
C        8.60533882       5.54719174       9.54224525       0.00848728      -0.00103021       0.00542454
H       11.92832601       6.99263401       8.90752011       0.00727685       0.00661352       0.01403053
H       10.78105557       6.26038502       7.73927384       0.00940517       0.00863532       0.01116149
H       11.43115973       5.29494918       9.11031462       0.01058147       0.00510590       0.00776926
H        8.95445114       4.64397470      10.04250194       0.00525350      -0.00050431       0.00840155
H        8.47925194       5.37198459       8.47529701       0.01461762      -0.00191755       0.00489298
H        7.65228906       5.87083332       9.96280083       0.00632383      -0.00022222      -0.00027600
S        4.46946423      10.03297126       6.05653778       0.00515181       0.00862074       0.00423670
O        4.76099196      11.05650194       5.00930391       0.00643012       0.00794530       0.00436223
C        5.71921741       8.75131903       5.84493954       0.01048452       0.01343608       0.01023240
C        3.06596811       9.05371069       5.49010630       0.01021647       0.00529355      -0.00156543
H        6.66660181       9.17259072       6.17765996       0.00788540       0.02020031       0.00879608
H        5.77424855       8.48525283       4.78683074       0.01189451       0.00937781       0.01148635
H        5.46127644       7.88971989       6.46269337       0.01451859       0.01477005       0.01354276
H        2.96452715       8.17793344       6.13277613       0.00535774       0.00819908       0.00131404
H        3.23068728       8.76033988       4.45318766       0.01846361       0.00082931       0.00108640
H        2.16918183       9.66484637       5.55315196       0.00962883       0.00554611      -0.01124103
S       10.28269783       9.26042108       0.52218237      -0.01468134       0.01312363       0.00331450
O       11.16319313      10.18820710       1.41501730      -0.02017009       0.01634395       0.00530817
C        8.75473413       9.38488526       1.43005673      -0.01325557       0.01742676       0.00413692
C       10.70680528       7.57857003       0.93705693      -0.00835079       0.01791990       0.01058650
H        8.29976964      10.33933348       1.17811559      -0.01074701       0.01849897       0.00418623
H        8.98813032       9.31312138       2.49148135      -0.01227714       0.01837882       0.00392848
H        8.09182064       8.57040162       1.14068835      -0.01645988       0.01935622       0.00752640
H        9.87128704       6.97886956       0.57139375      -0.00445436       0.01337586       0.01008965
H       10.86584190       7.48648665       2.01053378      -0.01010760       0.02221527       0.01140472
H       11.60507165       7.33208106       0.38131697      -0.00487405       0.02109925       0.01501377
S       11.32403935       2.00638437       1.99887482      -0.02576327      -0.01453295      -0.00108898
O       12.34181689       1.45951726       0.99116860      -0.02773982      -0.02137715       0.00204712
C        9.79782371       1.24385516       1.45826491      -0.03114665      -0.00326340      -0.00100434
C       10.97421144       3.68361383       1.45866388      -0.01285529      -0.01269007      -0.00330326
H        9.87755529       0.20021285       1.76095496      -0.03969229      -0.00324836       0.00036323
H        9.74516806       1.32273016       0.37261884      -0.03077319      -0.00520585      -0.00122198
H        8.95642291       1.72100121       1.95028184      -0.02733462       0.00445570      -0.00186834
H       10.11727439       4.02580780       2.03471937      -0.00708123      -0.00304681      -0.00087987
H       10.77347153       3.70025193       0.38823263      -0.01669224      -0.01293321      -0.00254150
H       11.83605314       4.30190600       1.70455204      -0.00572297      -0.02053441      -0.00849967
S        8.88496721       1.61458654       5.14324183      -0.01250171      -0.01004779       0.00038958
O        9.34777577       2.68956004       4.19702826      -0.03146717      -0.00641716      -0.00478101
C        7.56434675       0.73843251       4.28705126      -0.01257640      -0.02274448       0.01396793
C        7.82168175       2.44007442       6.33926000      -0.00810593      -0.01945812       0.00984859
H        8.02888944       0.09194942       3.54635384      -0.01434001      -0.02081264       0.01123155
H        6.94312236       1.48724404       3.79306691      -0.02265219      -0.02912404       0.01736158
H        6.97997595       0.13771988       4.98293059      -0.00280941      -0.02495664       0.02023721
H        7.34433732       1.68869209       6.96965832       0.00055221      -0.02372915       0.01106931
H        7.09551768       3.04808169       5.79682009      -0.01522211      -0.02271782       0.01615353
H        8.46313035       3.07265966       6.95006369      -0.00750192      -0.01769277       0.00729653
S        2.45611161       1.15262006       2.27027626      -0.01811320      -0.02166799      -0.00656223
O        2.39125986      -0.05801495       1.27931511      -0.02296531      -0.01163924      -0.01978123
C        2.86425653       2.52509162       1.20308842      -0.02860631      -0.01109567       0.00411904
C        4.03067803       0.97161241       3.08172963      -0.01185471      -0.02997947      -0.02246635
H        2.04197836       2.62039810       0.50047951      -0.03337966      -0.00548546       0.01056945
H        3.82474478       2.33430945       0.71637531      -0.03119799      -0.00331977      -0.00337459
H        2.91493409       3.41565678       1.83124782      -0.02684914      -0.01834789       0.01413952
H        4.17866047       1.90282224       3.63486323      -0.00717255      -0.03742464      -0.01181100
H        4.81294370       0.83969598       2.33483406      -0.01872574      -0.02022236      -0.03108260
H        3.97031626       0.13909079       3.78186655      -0.00516843      -0.03744149      -0.03098539
S        5.24564041       6.48907864       1.87476583       0.00922036      -0.00432605      -0.01128608
O        6.34689209       7.38711219       2.34077330       0.00948715      -0.00189835      -0.01749706
C        4.66781341       5.56570357       3.32042386       0.01245856       0.00161988      -0.00642174
C        6.00306031       5.11451609       0.99258125       0.00809595      -0.00812286      -0.00605568
H        4.30669359       6.30596174       4.03129553       0.01484963       0.00439574      -0.00832839
H        5.47419191       4.97204986       3.75118773       0.01288962       0.00247041      -0.00620428
H        3.83496900       4.92901926       3.02492234       0.01156285       0.00119425      -0.00296539
H        5.25539679       4.36061804       0.74803540       0.00861047      -0.01097677       0.00089641
H        6.79321466       4.67140928       1.59767260       0.01067269      -0.00313223      -0.00539221
H        6.39876520       5.52886308       0.06585898       0.00435738      -0.01286469      -0.00969282
S       12.60013501       2.12214741       8.90635945       0.01719555       0.00168920      -0.00035310
O       13.08927621       0.72255882       9.04223709       0.02447861       0.00492525       0.00791980
C       11.40826465       2.37895341      10.24661714       0.00877768       0.00040947      -0.00720727
C       11.39899362       2.15519243       7.56086301       0.02541202      -0.00896646      -0.00742626
H       11.93797469       2.18367809      11.17823526       0.00299151       0.00009542      -0.00401485
H       10.57351765       1.68844997      10.12538046       0.00955817       0.00054725      -0.01172722
H       11.05915807       3.41205351      10.22303183       0.00852704       0.00014912      -0.00885819
H       11.00478646       3.17001815       7.47808385       0.02050671      -0.01143409      -0.01336509
H       10.60136476       1.44357976       7.77602431       0.02698253      -0.01138762      -0.00990885
H       11.92755994       1.88639207       6.64840542       0.03192152      -0.01022309      -0.00305657
S        8.92539866       7.27186316       4.54685261       0.00518179       0.00169891      -0.00247118
O       10.40394097       7.43532129       4.56262196       0.00552344       0.00382308      -0.00378881
C        8.44538328       6.57292837       6.14274962       0.00707288       0.00614223      -0.00021988
C        8.60715645       5.76014452       3.61972479       0.00653739      -0.00059825       0.00144616
H        8.64624285       7.31460215       6.91675074       0.00853558       0.00793961      -0.00251009
H        9.04062961       5.67139846       6.29754619       0.00599621       0.00589243       0.00195153
H        7.38317151       6.32840972       6.12694296       0.00677193       0.00754858       0.00143101
H        7.57350064       5.45800407       3.76020717       0.00620776      -0.00006676       0.00019991
H        9.28684259       4.98764674       3.97771270       0.00502403      -0.00024065       0.00440030
H        8.76465492       5.98816331       2.56857988       0.00854970      -0.00333488       0.00127038
S        2.12177909       7.53136935       1.95156635       0.00062585       0.00929362      -0.00670432
O        0.75129071       7.86760885       2.41165469       0.01261389       0.02132642      -0.01198161
C        2.73542805       8.97683084       1.06298375       0.01942961       0.00499266      -0.00355867
C        1.95400478       6.45454385       0.49505449       0.00019954       0.01339245      -0.01235878
H        2.82504867       9.77737460       1.79512820       0.01963786       0.00260924      -0.00072922
H        2.00473232       9.22297081       0.28582785       0.02083981       0.01051051      -0.00349854
H        3.70507027       8.76252015       0.61783246       0.01909135       0.00300535      -0.00217275
H        2.93803091       6.23219299       0.08365119      -0.00125387       0.00793706      -0.01236621
H        1.33004172       6.95264376      -0.24946210       0.00271679       0.02099246      -0.00998402
H        1.47911388       5.53751431       0.84224724      -0.00622876       0.01526295      -0.01558347
S        4.83879087       7.77211300      10.64370013       0.02384013       0.00311220       0.00345349
O        5.28363290       6.48622338      10.00959807       0.02298611      -0.00024974       0.01031858
C        3.54577766       8.48188121       9.60685270       0.01260054      -0.01193354       0.00709996
C        6.09410241       9.00929989      10.31447102       0.01579463       0.00596011      -0.01597321
H        2.66824774       7.84076697       9.67050561       0.01861428      -0.01907672       0.01607971
H        3.90945742       8.55957774       8.58177548       0.00560358      -0.01642673       0.00440226
H        3.29213533       9.47150043       9.98833326       0.00685204      -0.01169351       0.00216987
H        5.75577132       9.97990813      10.67343504       0.01541578       0.00642626      -0.01777520
H        6.31791635       9.04964694       9.24976011       0.00520554       0.00087828      -0.01823109
H        6.99249924       8.71985883      10.85405372       0.02248455       0.01235678      -0.02367926
