144
Lattice="12.758893878451893 0.0 0.0 0.0 12.758893878451893 0.0 0.0 0.0 12.758893878451893" Properties=species:S:1:pos:R:3:forces:R:3 energy=-625959.5 stress="0.00015630092821083963 0.00020595674868673086 0.00014724152424605563 0.00020595674868673086 -6.086134453653358e-05 -0.0004178174422122538 0.00014724152424605563 -0.0004178174422122538 -0.00011554063530638814" pbc="T T T"
Hg      12.77187243      12.81300883      -0.13440947       0.00592198      -0.00577998       0.00069781
O       11.99356129      10.38441782       5.71078135      -0.00063014      -0.01676154       0.00251928
O       11.42829538      12.12273825       4.53926689       0.00696245      -0.00839221       0.00247264
O       11.13466376      12.12212589       6.68614491       0.00584471      -0.00613177       0.00293040
N       11.53047909      11.54215951       5.65379109       0.00021625      -0.00002060      -0.00242964
O        3.70321754      13.11950385       7.85663842       0.02229047       0.00078807       0.02540231
O        3.35422305      13.35098538       5.72477965       0.01751149       0.03948903       0.00772572
O        1.71212284      12.84116448       7.04283067       0.01418209      -0.03685975       0.01372945
N        2.91159679      13.10013064       6.87220430       0.02121978       0.00249448       0.03265760
O        5.74137968       5.02867416       8.83412471       0.00291210       0.00288075      -0.00025442
C        5.93038974       6.39912612       9.12418509       0.00329450       0.00469115      -0.00169724
C        4.83719568       4.83606847       7.75410799       0.00200793       0.00259143       0.00179213
C        6.90242377       6.53452122      10.27014767       0.00401258       0.00414735      -0.00233501
C        4.74240148       3.36837231       7.43351271       0.00235536      -0.00013399       0.00514001
H        6.31341864       6.92173964       8.23531676       0.00313592       0.00288060      -0.00233018
H        4.96247384       6.85719235       9.37790453       0.00366968       0.00451070      -0.00168544
H        3.85251976       5.24147963       8.03077921       0.00267881       0.00206631       0.00149611
H        5.19434088       5.41182062       6.88562172       0.00114775      -0.00041643      -0.00017622
H        7.04340632       7.58627064      10.52197274       0.00494412       0.00418288      -0.00263850
H        6.52735354       6.00924942      11.14826963       0.00410940       0.00455666      -0.00204955
H        7.87222567       6.12123292      10.00163999       0.00366314       0.00338998      -0.00281468
H        4.06554979       3.19035961       6.59725362       0.00072581      -0.00312232       0.00785820
H        5.71774412       2.95866028       7.16819408       0.00150286       0.00051415       0.00478997
H        4.35919746       2.79787358       8.27583243       0.00497529       0.00313519       0.00825334
O        3.98658284       9.96449670       6.81313766      -0.00231603       0.00874299      -0.00433171
C        5.39323972      10.03666878       6.92715695      -0.00348938       0.00364411       0.00236216
C        3.44221132       8.82332509       7.43621074      -0.00940758       0.01428393       0.00570078
C        5.86366865      11.30647749       6.26411371       0.00252214      -0.00081950      -0.00613719
C        1.93789842       8.88987467       7.35610089      -0.00793946       0.01874118      -0.00219169
H        5.67190192      10.01569456       7.99156305      -0.00883296       0.01338501       0.00347507
H        5.85328868       9.14909036       6.45979532      -0.00373861      -0.00019258       0.01217267
H        3.82457525       7.91158689       6.94389215      -0.00907898       0.01011801       0.01580060
H        3.77658918       8.78644027       8.48546659      -0.01368281       0.02490114       0.00659144
H        6.94533103      11.40790749       6.34833249       0.00377381      -0.00577570      -0.00418738
H        5.60009909      11.29954120       5.20641416       0.00652092      -0.00923682      -0.00712912
H        5.37328214      12.16685997       6.72037301       0.00712544       0.00296891      -0.01363088
H        1.50644177       8.01534610       7.84577374      -0.01263308       0.02711110       0.00890880
H        1.56550894       9.79187451       7.83828412      -0.00786290       0.02714825      -0.01754453
H        1.59421203       8.91854077       6.32331705      -0.00419315       0.00377265      -0.00405061
O        8.71984260      10.63053395      10.59092658      -0.00311613       0.00364459       0.00289373
C       10.08399279      10.63005840      10.97133471      -0.00001135       0.00054544      -0.00471614
C        8.16382427      11.93365932      10.61083665       0.00229830       0.00546388      -0.00004204
C       10.61007163       9.21786459      10.89938164      -0.00656045      -0.00204289       0.00282427
C        6.78742519      11.89217179       9.99671847       0.00013548       0.00813148       0.00322336
H       10.65130544      11.29083780      10.30057351      -0.00188282      -0.00698891      -0.01295742
H       10.18804043      11.03369931      11.99186928       0.00697622       0.00775392      -0.00869870
H        8.12505392      12.30019221      11.64892060       0.00596702       0.00918457      -0.00157499
H        8.81502779      12.61609369      10.04741526       0.00309968       0.00107849      -0.00411421
H       11.65944070       9.19616195      11.19460619      -0.00419773      -0.00299916      -0.00598796
H       10.04685158       8.56266635      11.56498101      -0.00300375       0.00564734       0.01359218
H       10.52726967       8.83085913       9.88453384      -0.01637660      -0.01088081       0.00707081
H        6.30124989      12.86468324      10.06433186       0.00307414       0.00997421       0.00247200
H        6.84783603      11.62367685       8.94438168      -0.00330336       0.00611906       0.00382337
H        6.15680497      11.16016314      10.50345094      -0.00060716       0.01149067       0.00638644
O        9.16271417       7.26324095       7.28050282       0.00697798      -0.00461479       0.00440294
C        9.48036534       5.99404916       6.75702517       0.00492302      -0.00404716       0.00094962
C        9.45645756       8.31904349       6.36735342      -0.00161736      -0.00401205       0.00301734
C        9.16512896       4.95090765       7.80108164       0.00875282      -0.00614598       0.00014448
C        9.16647141       9.63095756       7.04353882       0.00159996      -0.00445390       0.00539222
H        8.90627287       5.81099984       5.83408216       0.00128376      -0.00191741       0.00299758
H       10.54334407       5.96057522       6.47661360       0.00367385      -0.00369071      -0.00334141
H       10.50847638       8.28011169       6.06103178      -0.00368893      -0.00167426      -0.00473973
H        8.84237986       8.18975831       5.46244129      -0.00782007      -0.00471973       0.00772309
H        9.47030596       3.96201178       7.46493027       0.00802157      -0.00527847      -0.00316607
H        9.69902946       5.18021959       8.72404301       0.01178546      -0.00793581      -0.00119767
H        8.09707637       4.92269360       8.01871368       0.00953248      -0.00661802       0.00338239
H        9.27619729      10.45259259       6.34000989      -0.00567964      -0.00444135       0.00397784
H        8.15604112       9.63302760       7.45353578       0.00491509      -0.00597541       0.01387329
H        9.87336345       9.82320734       7.84659579       0.00790653      -0.00272911      -0.00089233
O        4.20346264       7.54038953       3.53199186      -0.00208884       0.00438207      -0.00591704
C        5.44491848       7.18808937       4.10846871      -0.00321317       0.00329256      -0.00377549
C        3.94841648       8.93959247       3.63819966      -0.00227958       0.00345364      -0.00267571
C        5.66671244       5.71146466       3.90110381      -0.00168562       0.00372815      -0.00641365
C        2.62665509       9.24822784       2.98505734      -0.00238419       0.00546416      -0.00204965
H        6.25162124       7.77810434       3.65038006      -0.00226560       0.00428423      -0.00066289
H        5.43814525       7.42609435       5.18247326      -0.00627794       0.00120756      -0.00313556
H        3.93391098       9.24005446       4.69100436      -0.00252756       0.00095005      -0.00203663
H        4.76763336       9.48908353       3.15104560      -0.00202250       0.00503054      -0.00107431
H        6.60142744       5.39691665       4.36707322      -0.00238736       0.00335715      -0.00556397
H        4.85185682       5.13603005       4.34130247      -0.00202921       0.00197618      -0.00898212
H        5.71591250       5.47134860       2.83841208       0.00020844       0.00607599      -0.00687879
H        2.42651115      10.31585333       3.06081514      -0.00252365       0.00518188      -0.00060721
H        2.63554169       8.96098578       1.93231853      -0.00190284       0.00722133      -0.00295894
H        1.81266601       8.72232408       3.48183382      -0.00233114       0.00464256      -0.00328316
O       10.66483538       3.85847148       1.87598714       0.00122857      -0.00415275      -0.00106609
C        9.61038829       4.24404290       1.02325247       0.00126453      -0.00467479      -0.00072894
C       10.77698425       2.44680994       2.00382410       0.00220633      -0.00440457      -0.00190464
C        9.60744410       5.74991804       0.90572917      -0.00176424      -0.00451916       0.00135202
C       11.97967196       2.12689949       2.85305795       0.00198001      -0.00448225      -0.00200850
H        9.74160247       3.78122302       0.03284091       0.00210367      -0.00307074      -0.00138474
H        8.64902487       3.88081058       1.42070193       0.00144404      -0.00697374      -0.00150388
H        9.85906885       2.03918363       2.45221247       0.00222480      -0.00494090      -0.00215977
H       10.87679275       1.99833308       1.00117218       0.00218610      -0.00348076      -0.00221843
H        8.82468740       6.07557404       0.21959149      -0.00223553      -0.00514680       0.00177537
H        9.43334347       6.21718002       1.87495126      -0.00281475      -0.00626745       0.00201207
H       10.56686733       6.10038099       0.52530554      -0.00240351      -0.00211205       0.00193308
H       12.04863155       1.05498457       3.03964147       0.00254742      -0.00460869      -0.00269140
H       12.89107821       2.47339287       2.36320698       0.00223903      -0.00387326      -0.00171997
H       11.90055496       2.61831291       3.82168597       0.00195303      -0.00524490      -0.00164650
O        7.52175200       1.66500564       4.44850332      -0.00296246      -0.00496614      -0.00622640
C        6.40342404       2.30048773       3.86226443      -0.00196725      -0.00201932       0.00043234
C        8.44868528       2.60408298       4.96672926       0.00018936      -0.00657681      -0.00177234
C        5.41155383       1.26614893       3.39720543      -0.00446701      -0.00029254      -0.00261027
C        9.54959849       1.86628511       5.68212627      -0.00165498      -0.01087612      -0.00482866
H        5.93295933       2.96356322       4.60011475      -0.00155348      -0.00582230       0.00498742
H        6.74111932       2.93436795       3.02500583      -0.00567859       0.00200707       0.00246882
H        8.85130646       3.21719877       4.14305395      -0.00032935      -0.00450230       0.00089771
H        7.92073464       3.29154195       5.64816039      -0.00020868      -0.00991166       0.00069520
H        4.56363894       1.75805299       2.91915446      -0.00561394       0.00261407       0.00269190
H        5.87455524       0.59217675       2.67568398      -0.00642115       0.00375554      -0.00713220
H        5.02163424       0.70050372       4.24221853      -0.00129052      -0.00386488      -0.00422525
H       10.32641905       2.55881615       6.00783004      -0.00076697      -0.01367541      -0.00193633
H        9.17111417       1.34233247       6.55875597      -0.00220761      -0.01398721      -0.00662352
H       10.03079731       1.12022865       5.04969941      -0.00188389      -0.00931662      -0.00749296
O        7.23786464       9.48222369       1.87659385       0.00180493       0.00244421      -0.00181678
C        7.78680897      10.76594172       2.14198582       0.00688317      -0.00024012      -0.00026980
C        6.40251756       9.49118344       0.73597348       0.00542149       0.00478268      -0.00435269
C        8.68812327      10.68791320       3.34346464       0.00193021      -0.00375539       0.00265706
C        5.80943961       8.11528612       0.56238532       0.00108474       0.00696182      -0.00548852
H        8.33552692      11.11532572       1.25436292       0.01111338      -0.00256708       0.00158852
H        6.96662788      11.47648910       2.31632828       0.00901455       0.00387689      -0.00318645
H        5.60490232      10.23989799       0.86571878       0.00773019       0.00799224      -0.00712413
H        6.98739894       9.78414534      -0.14798901       0.00920409       0.00255944      -0.00264382
H        9.09812521      11.66735136       3.58768769       0.00470516      -0.00560936       0.00481067
H        8.12692119      10.32958787       4.20644665      -0.00243327      -0.00263499       0.00060695
H        9.52936839      10.01758979       3.16973991       0.00033131      -0.00689733       0.00545631
H        5.20222250       8.07408114      -0.34233606       0.00343724       0.00848498      -0.00710656
H        6.60532594       7.37548452       0.47094366      -0.00111173       0.00420790      -0.00296018
H        5.18051191       7.84418078       1.41105296      -0.00189912       0.00923307      -0.00691229
O        3.00539589       3.37955423      11.06791570      -0.01065505      -0.00506783       0.00365037
C        2.95814510       2.00746690      10.69132207      -0.01266384      -0.00322804       0.00154731
C        4.12503254       3.68530726      11.86479510      -0.00687003      -0.00657213       0.00111550
C        1.74093020       1.77781525       9.83751366      -0.00878924       0.00007689      -0.00327891
C        4.00158772       5.11822768      12.32458023      -0.00139797      -0.00650620       0.00110544
H        3.86559456       1.73315887      10.13772026      -0.00995177      -0.00370310       0.00201464
H        2.92620284       1.38719852      11.60212629      -0.01451103      -0.00574273      -0.00099194
H        4.16809522       3.00805111      12.73287482      -0.00596825      -0.00700140       0.00070155
H        5.05086191       3.54152113      11.28714753      -0.00940341      -0.00936711      -0.00226420
H        1.70617106       0.74554600       9.49509883      -0.00676356       0.00086904      -0.00893852
H        0.83249770       2.01989240      10.39352900      -0.01118331      -0.00472190      -0.00474533
H        1.77998830       2.39771550       8.94310463      -0.00722203       0.00483900       0.00054006
H        4.84323337       5.39557798      12.95932245       0.00187056      -0.00873980      -0.00253966
H        3.98053851       5.78882810      11.46483036      -0.00312084      -0.00652669       0.00093399
H        3.08234867       5.26048984      12.89304972       0.00130264      -0.00366762       0.00496083
