144
Lattice="12.709174593987164 0.0 0.0 0.0 12.709174593987164 0.0 0.0 0.0 12.709174593987164" Properties=species:S:1:pos:R:3:forces:R:3 energy=-657594.375 stress="0.00023787406098563224 -8.28757147246506e-05 -0.0002715372102102265 -8.28757147246506e-05 0.0009884482715278864 0.00042764272075146437 -0.0002715372102102265 0.00042764272075146437 0.0007349968072958291" pbc="T T T"
Hg      12.53733673      11.71656475       0.62979030       0.01756787       0.01316866      -0.00308891
O       11.81717948      12.28961507       6.33798182       0.01137805      -0.00899339       0.00381875
O       10.48761015      10.47050962       6.19387302      -0.00569224       0.00319457       0.00594866
C       11.31662394      11.30296365       5.76464426       0.00136259      -0.00442570       0.00466943
H       11.65218401      11.13414989       4.70353077      -0.00199470      -0.00740674       0.00399220
O        2.16286387      12.40074857       1.21579441       0.03206575      -0.00282598      -0.01226234
O        2.23489346      10.48574988       0.02665684      -0.01452017       0.00218320      -0.02229011
C        2.74729385      11.46288029       0.59718323       0.00977004      -0.01134394      -0.01912318
H        3.86236576      11.54761908       0.57034302       0.01071441      -0.03821578      -0.02464924
O        8.69371771       9.78845608      10.15107471       0.00331771       0.00331505       0.00881448
O        6.79634277       8.88873680      10.62901875       0.00188617       0.00660855       0.01080251
O        6.90127900      11.14425538      10.45246630       0.00440770       0.00584888       0.00327329
C        9.54474614      10.94902604       9.94555657       0.00436264       0.00192425       0.00464943
C       10.84439490      10.45826713       9.37257282       0.00432861      -0.00119369       0.00692718
C        7.41750080      10.05060792      10.41293944       0.00336477       0.00538737       0.00708695
C        5.39316567       8.98416932      10.92340094       0.00169783       0.00996013       0.00907934
H        9.03841171      11.63459314       9.26581525       0.00513783      -0.00027791       0.00184485
H        9.67662122      11.43856231      10.91512077       0.00454039       0.00560342       0.00282294
H       11.55364159      11.28422920       9.32060830       0.00458164      -0.00160782       0.00258423
H       11.26870084       9.67490279      10.00191265       0.00434543       0.00168242       0.01055259
H       10.70205108      10.10776615       8.34898064       0.00376557      -0.00582132       0.00862110
H        5.23776516       9.45442828      11.89417359       0.00205136       0.01142679       0.00846487
H        5.03682625       7.95727297      10.92508166      -0.00093699       0.01078653       0.01066742
H        4.88310931       9.56068578      10.15649885       0.00347017       0.00995204       0.00782645
O        3.11405100       3.58856109      11.15774552      -0.00345954       0.00906220      -0.00068521
O        2.02790107       5.43611802      11.41373063      -0.00259757       0.01006626      -0.00290490
O        4.28944945       5.51943035      11.30530481      -0.00200498       0.00814873       0.00448491
C        4.35547095       2.85341779      10.98586540      -0.00356707       0.00809622       0.00208717
C        3.99555065       1.39404291      10.89467416      -0.00288187       0.00741577       0.00801759
C        3.25009469       4.90447630      11.29157304      -0.00286627       0.00875741       0.00059085
C        2.00464080       6.86675239      11.55872209      -0.00140139       0.00992721      -0.00010618
H        4.85485702       3.22231608      10.08996049      -0.00373328       0.00479446       0.00058967
H        5.00940766       3.07152948      11.83035721      -0.00288475       0.01138809       0.00075030
H        4.90018149       0.79398295      10.78412171      -0.00208448       0.00880259       0.00652158
H        3.46997959       1.06555552      11.79116622      -0.00022148       0.00927332       0.01048720
H        3.35473928       1.20699913      10.03274860      -0.00418635       0.00293557       0.00995651
H        2.44864293       7.17330304      12.50336174      -0.00105490       0.00768906       0.00062871
H        0.95483120       7.13931540      11.54006046      -0.00119281       0.01100543       0.00046523
H        2.53711256       7.34341141      10.73763060      -0.00107664       0.01138931       0.00089774
O       10.20582183       7.45628898       5.62889664       0.00048459       0.00379232      -0.00156273
O        9.12323459       8.68938074       4.23218366       0.00457171       0.00515853      -0.00371832
O        8.38096416       8.56633098       6.37149138       0.00321686      -0.00199276      -0.01433563
C       10.46936411       7.05655382       6.98318083      -0.00461757       0.00275362      -0.00072575
C       11.75543287       6.27454570       6.95184181      -0.00466698       0.00147423       0.00311419
C        9.16986410       8.29388328       5.50368901      -0.00677562       0.00508159       0.00340754
C        8.11967579       9.67438921       3.96869963       0.00666659       0.00716744      -0.00443088
H       10.54792502       7.95681429       7.59265733      -0.00583458       0.00201666      -0.00003237
H        9.63054832       6.46475877       7.35686278      -0.00594187       0.00294551      -0.00412346
H       12.04947975       5.98856792       7.96218023      -0.00806167       0.00131747       0.00454554
H       11.65222478       5.36872892       6.35362317      -0.00361848       0.00135548       0.00326459
H       12.54365314       6.88668918       6.51653653      -0.00271560       0.00064053       0.00581423
H        7.12659609       9.25889401       4.12834699       0.00563860       0.00846660      -0.00910154
H        8.23585369       9.94621192       2.92472490       0.01068565       0.00960877      -0.00400078
H        8.29693601      10.53466572       4.61427207       0.00593981       0.00515315      -0.00203016
O        3.38569537       9.63935896       3.36205157      -0.00797772       0.00764452      -0.00185503
O        3.71322968       7.77342304       2.32395986      -0.00344695       0.00576875       0.00285403
O        5.33580360       9.34865078       2.24872291      -0.00353074       0.00577307       0.00682068
C        3.83335140      10.95508282       3.75259175      -0.00970459       0.00851803      -0.00146139
C        2.69358331      11.60640597       4.48675719      -0.01142710       0.00699233      -0.00259814
C        4.24811505       8.96099742       2.60507194      -0.00436878       0.00649089       0.00319129
C        4.58581317       6.89967437       1.59702067      -0.00029935       0.00423704       0.00820903
H        4.72796883      10.83928175       4.37083188      -0.01035106       0.00946926      -0.00029030
H        4.10739424      11.51539957       2.85888290      -0.01030291       0.00893897      -0.00141245
H        2.99851725      12.59133767       4.84251323      -0.01253798       0.00686377      -0.00093381
H        1.84655520      11.73643340       3.81591350      -0.01044653       0.00732458      -0.00389253
H        2.37943141      11.01217649       5.34430529      -0.01302396       0.00619967      -0.00369996
H        4.87651875       7.34558622       0.64825771       0.00238469       0.00158617       0.00771275
H        4.01314638       5.99470336       1.42939044       0.00081533       0.00328112       0.00903857
H        5.47093792       6.67747830       2.19227218      -0.00202963       0.00684210       0.01181293
O        9.14276990       0.89285828       2.08018059      -0.00092709      -0.00240120       0.00123283
O       10.85069981       0.89705983       3.40274590      -0.00331664      -0.00192943       0.00440964
O       10.41787146       2.75960611       2.18814997       0.00417793      -0.00576830      -0.00438291
C        8.27712293       1.58734808       1.15911318       0.00100020      -0.00362158      -0.00165005
C        7.25277185       0.60132311       0.66639594       0.00100178      -0.00412416      -0.00106227
C       10.17038882       1.62569360       2.52345911       0.00047630      -0.00329447      -0.00026008
C       12.04357035       1.52293241       3.91530858      -0.00009087      -0.00550538       0.00124910
H        7.82012713       2.42622389       1.68656084       0.00071388      -0.00217652      -0.00397640
H        8.88654568       1.98991549       0.34889656       0.00225693      -0.00556932      -0.00170884
H        6.54966206       1.10726141       0.00378394       0.00219753      -0.00503293      -0.00312638
H        7.71332829      -0.21027648       0.10476047       0.00145066      -0.00545496       0.00108391
H        6.69407606       0.17205983       1.49848729      -0.00030099      -0.00218005      -0.00084431
H       12.80006947       1.55172730       3.13018118       0.00205252      -0.01860321       0.00281921
H       12.34162619       0.89759640       4.75650470      -0.00488545      -0.00086159       0.00650281
H       11.81972012       2.53630891       4.24508399       0.00647169      -0.00068030      -0.00903873
O        7.81570225       3.71117340       3.89680061       0.00225869      -0.00259399       0.00077769
O        7.07701652       1.76798676       4.47094122       0.00572059      -0.00280607       0.00482949
O        8.32382292       2.93064090       5.96316336       0.00699902       0.00095788       0.00153708
C        8.63931470       4.88864929       4.14034502       0.00005587      -0.00067997      -0.00156647
C        8.76173492       5.62047413       2.83399600      -0.00191135      -0.00228456      -0.00279140
C        7.79754821       2.82330485       4.88395600       0.00462306      -0.00151600       0.00141507
C        6.96927522       0.71502916       5.43889298       0.01208104      -0.00341933       0.00501589
H        8.14776761       5.48696331       4.90915688      -0.00064346      -0.00031498      -0.00212362
H        9.60556326       4.55023677       4.51216319       0.00104183       0.00188771      -0.00145815
H        9.39186946       6.49708491       2.97830767      -0.00467530       0.00004187      -0.00406074
H        9.20846581       4.97607550       2.07868741       0.00033769      -0.00205049      -0.00180267
H        7.78515682       5.96380498       2.49128419      -0.00298125      -0.00608392      -0.00365046
H        7.95438915       0.38342292       5.75997845       0.01430908      -0.00279717      -0.00092015
H        6.44454782      -0.08630992       4.92713200       0.00974855      -0.00371762       0.00777464
H        6.39680033       1.05521548       6.30155958       0.01687664      -0.00435081       0.00861049
O        3.69425220       4.67972952       3.95013150      -0.00328797      -0.00675775      -0.00020319
O        3.00610598       6.22257516       5.30298164      -0.00452426      -0.00725475      -0.00032630
O        3.61522237       4.22323377       6.16699055       0.00200659      -0.00507063       0.00043070
C        4.11538342       3.31331175       3.71986635      -0.00160380      -0.00625908      -0.00067222
C        4.55267037       3.19727277       2.28481459      -0.00645380      -0.00607472      -0.00224024
C        3.45834998       4.96989623       5.23074574      -0.00149597      -0.00641668       0.00020194
C        2.72326519       6.65952818       6.63535955      -0.00270432      -0.00618878      -0.00024800
H        4.92505056       3.07783430       4.40724726       0.00118947      -0.00454695      -0.00323930
H        3.27274711       2.65499554       3.94120779       0.00017786      -0.00752717       0.00253065
H        4.84586346       2.16692662       2.08223064      -0.00680183      -0.00602195      -0.00345615
H        3.74403528       3.45618549       1.60144006      -0.00914392      -0.00671661       0.00060322
H        5.41048832       3.84173638       2.09144967      -0.00760259      -0.00533757      -0.00535001
H        1.89501712       6.09059395       7.05275646       0.00184590      -0.00996464       0.00388645
H        2.45719933       7.70867651       6.54626096      -0.00883312      -0.00778711      -0.00150143
H        3.59084046       6.53678845       7.27868251       0.00033382       0.00022294      -0.00309780
O        9.71079708       3.54233833      10.97355353       0.00069046      -0.00520633      -0.00784610
O        8.80990070       5.29331174      11.86610047      -0.00233477      -0.00646394      -0.00810845
O        7.45895575       3.74631525      10.91962819      -0.00032902      -0.01326573      -0.00028166
C        9.59195507       2.33974549      10.17296192       0.00259429      -0.00626940      -0.00687769
C       10.95277608       1.70125699      10.11840641       0.00458902      -0.00187418      -0.00950931
C        8.55539419       4.15498701      11.22518155      -0.00047356      -0.00881270      -0.00488392
C        7.64270905       6.09660054      12.12050409      -0.00432958      -0.01017615      -0.00517879
H        8.84181246       1.68713706      10.62233450       0.00546700      -0.00827378      -0.00489387
H        9.23506349       2.62717418       9.18177171      -0.00028226      -0.00786069      -0.00635421
H       10.94906557       0.89547249       9.38425533       0.00596990      -0.00132100      -0.01006719
H       11.70087438       2.43160038       9.81134474       0.00174180       0.00073069      -0.01036295
H       11.24087358       1.29257945      11.08857861       0.00771765      -0.00182495      -0.01039615
H        7.20796363       6.43290438      11.18295682      -0.01022139      -0.01465335      -0.00412336
H        7.99956165       6.94509806      12.69536960      -0.00490957      -0.00699145      -0.00941183
H        6.90331362       5.52637645      12.67950902       0.00042096      -0.01126927       0.00004956
O        5.62493795       8.32349947       7.67101366       0.00193739       0.00123712       0.00038108
O        6.27807395       6.33892500       8.19580663       0.00392259       0.00207600       0.00189906
O        6.00604347       6.83368770       6.00166969      -0.00443885      -0.00240201       0.00184250
C        5.37311100       9.35446214       6.69408119      -0.00226375      -0.00037915      -0.00042731
C        4.84428144      10.55138372       7.44240147      -0.00000849       0.00088665      -0.00034958
C        5.99095368       7.14041793       7.16877548       0.00006451       0.00050303       0.00183821
C        6.62893998       4.99491158       7.82089241       0.00027206       0.00082275       0.00319530
H        6.31920181       9.56555716       6.19703040      -0.00443149      -0.00117675      -0.00505623
H        4.66199447       8.97551392       5.95616631      -0.00514570      -0.00201881       0.00307012
H        4.66319467      11.37124987       6.74685775      -0.00399604      -0.00067566      -0.00134794
H        3.90074574      10.32192304       7.93929437       0.00249866       0.00078017       0.00442822
H        5.55768537      10.88928252       8.19409508       0.00326650       0.00306565      -0.00421973
H        5.82177102       4.54301187       7.24552267      -0.00257656       0.00098790       0.00686437
H        6.78020644       4.46883107       8.75877176       0.00257283       0.00204006       0.00361764
H        7.54144364       4.99062368       7.22847391      -0.00168863      -0.00213244      -0.00003755
