147
Lattice="11.956869411187716 0.0 0.0 0.0 11.956869411187716 0.0 0.0 0.0 11.956869411187716" Properties=species:S:1:pos:R:3:forces:R:3 energy=-657890.5 stress="-0.0006243912503123283 -0.0008797768969088793 -0.0005699580360669643 -0.0008797768969088793 -0.00010529397695790976 -0.0009161878551822156 -0.0005699580360669643 -0.0009161878551822156 -0.0016635182546451688" pbc="T T T"
Hg      12.81642790      11.57814413      -0.60499354       0.00105906       0.00167291      -0.00199845
P        3.40531434      10.73691560       1.80992416       0.00031808      -0.00606122      -0.00442703
O        4.65606904      10.33082696       0.91205373      -0.00626713      -0.01259667      -0.00424409
O        3.93378499      10.20408157       3.25607629       0.00003821      -0.00314659      -0.00256860
O        3.28483072      12.24129473       1.86339712       0.00213355      -0.00680459      -0.00767171
O        2.18307173       9.94986188       1.47836265      -0.00333846      -0.00612152       0.00059077
H        4.99928312      10.93529231       0.21236990       0.00202066      -0.00719988      -0.00185320
H        4.64685825      10.80365815       3.54243775       0.00087887      -0.00301316      -0.00513376
P        5.60387949      10.88241321       9.56875094       0.04331195       0.00004281       0.02023968
O        5.84808943       9.31137822       9.70214703       0.00943133       0.00757301      -0.01143739
O        6.77619708      11.19877013       8.46935002       0.01975358       0.00678036       0.00672835
O        4.26844363      11.25754835       9.06037338       0.00081372       0.01403642      -0.01734757
O        6.08269708      11.46063160      10.89033099       0.00082695      -0.00766134      -0.00989676
H        5.38394421       8.74165718       9.03988072       0.00814209       0.00725198      -0.00355241
H        6.85935566      12.14974691       8.28120335       0.01653471       0.00560114      -0.00515978
O        4.92047560       6.11934686       0.42820084      -0.00431961      -0.01071370      -0.00036963
C        4.78813467       7.53245360       0.56597101      -0.00201872      -0.00994086      -0.00238720
H        3.76623312       7.87761051       0.39583893      -0.00057298      -0.00844577      -0.00650440
H        5.45086559       8.08219272      -0.10365104       0.00175592      -0.01187894       0.00017411
H        5.05758118       7.76782255       1.59015470      -0.00519186      -0.00951283      -0.00180966
H        4.64587829       5.85801603      -0.45294835       0.00241900      -0.01099452      -0.00216398
O        4.03009961       3.64209842      11.06882862      -0.00861213      -0.00558472      -0.00810557
C        4.36588751       2.26782978      10.89540219      -0.00623825      -0.00453311      -0.00607133
H        3.53489247       1.61186603      11.16671243      -0.00461841      -0.00568333      -0.00215361
H        5.22644278       1.98632261      11.50373329      -0.00409329      -0.00239982      -0.00908551
H        4.60532493       2.09251072       9.84809619      -0.00988384      -0.00663875      -0.00734162
H        3.88623822       3.78618879      12.04344095      -0.00557144      -0.00485153      -0.00771578
O        4.76297879       7.82848767       7.82961060      -0.00330582       0.00516003      -0.00015959
C        4.18731443       8.83665622       6.99334554      -0.00873646       0.00120407       0.00124282
H        3.42145819       9.40173370       7.52044212      -0.01510748      -0.00608036       0.00032422
H        3.79649092       8.40051694       6.07706781      -0.00432630       0.00008449      -0.00013661
H        4.99613224       9.52079390       6.74261828      -0.01468405       0.00902432       0.00359496
H        4.10415166       7.17585002       8.10595859       0.00154680       0.00062268      -0.00108147
O        8.30484824       7.33687405      11.22825698      -0.01263958       0.00248173       0.01556984
C        7.56097209       6.64522779      10.24995947      -0.00174055       0.01405790       0.00015867
H        7.92155284       5.61533850      10.23449841      -0.00586288       0.01311606      -0.00349240
H        7.69106491       7.08478291       9.25922538       0.01455158       0.02292034       0.00700146
H        6.49390552       6.62647314      10.47781894      -0.00505209       0.01874343      -0.01703200
H        8.16102439       8.31306504      11.14607558      -0.00010822       0.00464219       0.01402700
O        7.81156972       7.15002668       1.97729589       0.01068300       0.01351810       0.01087916
C        7.98451609       8.54562367       2.15166481       0.00181414       0.01400203       0.01283218
H        7.14241284       9.11592023       1.74740492       0.00105244       0.00985941       0.00919956
H        8.90847586       8.88775773       1.68301185       0.00230819       0.02008232       0.01809204
H        8.05771603       8.74141282       3.22200188      -0.00507286       0.01316042       0.01350263
H        7.81793167       7.00375522       1.01493830       0.00826149       0.01381418       0.01031479
O        8.09907249       4.54068580       6.16561687      -0.00648504      -0.01512608       0.03944066
C        7.42011221       5.42706992       7.05549837      -0.01206686       0.00069705       0.01997593
H        7.87359001       6.41950515       7.04191858      -0.01126295      -0.00042346       0.00411693
H        7.45949346       5.04637906       8.07550871      -0.01741783       0.01822515       0.02599335
H        6.37515702       5.53006849       6.76671580      -0.01068485      -0.00544874       0.01343249
H        8.95589009       4.98068981       5.94160727      -0.00982833      -0.01493214       0.02578485
O        3.97603902       5.16328759       8.87860661       0.00520182      -0.00727648      -0.01067621
C        3.14258272       4.43363516       8.00219088      -0.00684687       0.00133792      -0.00552094
H        2.08521669       4.51921436       8.27589186      -0.00386584       0.00929799       0.00267231
H        3.40544600       3.37077600       7.98307492      -0.01561770      -0.00071639      -0.00930023
H        3.26872405       4.83930388       6.99853531      -0.01089621       0.00212070      -0.00558209
H        3.98504424       4.66789567       9.73152657       0.00325406      -0.00600817      -0.01026155
O        9.05569645       9.34224021       8.38874980       0.00054872      -0.01751908      -0.00306880
C        9.35570887       9.88624020       7.11152105      -0.01206861       0.00618234       0.00604618
H        9.23395566      10.96916237       7.09726904       0.00867768       0.00738123       0.03220797
H        8.73697192       9.45787773       6.32089750      -0.03353044       0.03542967       0.00888100
H       10.39540748       9.65083503       6.89120842      -0.02063549      -0.00643649      -0.01698802
H        8.24593603       9.75934853       8.72755804       0.00655563      -0.02064218       0.01767980
O        4.85165064       6.44122830       4.92371925       0.00013769      -0.00725496       0.00121886
C        5.85133526       7.39790018       4.57194641      -0.00619349      -0.00213832      -0.00259216
H        6.54269681       6.98709906       3.83581427      -0.00676525       0.00180799      -0.00515985
H        6.39602305       7.71719278       5.46597421      -0.00445791       0.00081507      -0.00480393
H        5.35866511       8.26649551       4.13380365      -0.01279068      -0.00488302      -0.00022852
H        5.23974654       5.54332367       4.77681385       0.00657220      -0.00546347       0.00736148
O        3.74663019       3.85562261       1.70060900      -0.00123066      -0.01024278      -0.00598569
C        2.58354715       3.32779245       2.32675829      -0.00462252      -0.01166654      -0.01316923
H        1.66946892       3.74696196       1.89772563      -0.00168896      -0.00201628      -0.00894663
H        2.59002204       3.56186767       3.39522592      -0.00472346      -0.02410676      -0.01087141
H        2.59858956       2.24799845       2.18737757      -0.00854789      -0.00991523      -0.02519701
H        3.79642669       4.80158979       1.92886641      -0.00182906      -0.01125863      -0.00255849
O        0.64206276      11.18633770       5.95516791       0.00092085      -0.00195006       0.00646389
C        1.79737381      10.89373468       5.15367099      -0.00043905       0.00562472       0.00205714
H        2.05080153       9.83547140       5.19184510      -0.00100019       0.00531530      -0.00975506
H        2.65718125      11.48440982       5.46946283       0.00038093       0.00166324       0.00752454
H        1.55173795      11.14918108       4.12644084      -0.00106107       0.01681459       0.00520244
H        0.82815212      10.92423151       6.85963985       0.00372681      -0.00553313       0.00435227
O       10.17608870       6.11907495       5.71984992      -0.01127970      -0.01969530      -0.00081438
C        9.74306058       7.06253725       4.73370750      -0.00461125      -0.01526670       0.00056845
H       10.48123504       7.84740406       4.56443412       0.00371251      -0.02383894      -0.00216474
H        8.80352081       7.53563685       5.02911634       0.00239339      -0.00403912       0.00418353
H        9.57150053       6.52608133       3.80497102      -0.01395893      -0.01268679       0.00091121
H       10.34631746       6.59861775       6.55535907      -0.00030646      -0.01980466      -0.00292273
O       10.65120621       7.24064579       8.20790471       0.00242984      -0.00433266      -0.01302660
C       10.73002859       6.12868410       9.10168445      -0.00773790       0.01016380       0.00448593
H       10.51256682       6.43270569      10.12453559      -0.01477273       0.02872436      -0.00304091
H       11.74302079       5.73138837       9.04271168      -0.00851348       0.00678948       0.01927792
H       10.02757543       5.34572355       8.80376668      -0.01017106       0.00976458       0.01228780
H        9.98265745       7.90101469       8.50813844       0.00185345       0.00012329      -0.02216406
O        6.01150125       4.08116667       4.55306825       0.00791767      -0.00575870       0.01576725
C        5.45530508       3.06670616       5.38155536      -0.00792557      -0.00680929       0.00329313
H        5.33087331       3.41595448       6.41127695      -0.01266176      -0.01331526       0.00463206
H        6.07138357       2.16761884       5.37101506      -0.01600063      -0.01189679       0.00158426
H        4.48709971       2.79572102       4.97030936      -0.00686374       0.00626078      -0.00719276
H        6.90671233       4.25908153       4.90383032       0.00356314      -0.01118260       0.02930433
O        1.38565405       7.55614489       7.47383770       0.00288951      -0.00875178       0.00540310
C        1.33836483       6.98151551       6.18059983      -0.00226911       0.00163823       0.00111514
H        0.77297024       7.60087366       5.47685529       0.00466660       0.01305357       0.00582296
H        0.89509442       5.98114636       6.18376011      -0.01271853       0.00662905      -0.00630819
H        2.36128618       6.89790412       5.81726130      -0.00342697      -0.00642208       0.00038240
H        0.47436088       7.61573983       7.79933758       0.00268407      -0.00595863       0.00483960
O        5.36391574       0.69966556       3.37513929       0.00218236      -0.00628005      -0.00581253
C        6.50162606       1.05565674       2.61547619       0.00243837      -0.00140275      -0.00341538
H        6.59655142       0.44116273       1.71293012       0.00433522       0.00332856      -0.00596297
H        7.38474254       0.89421492       3.23810537       0.00210139      -0.00300525      -0.00327361
H        6.46966186       2.11072347       2.32208111       0.00141323      -0.00011444       0.00168338
H        4.56876422       0.73395195       2.77145642       0.00311041      -0.00493024      -0.00632479
O        8.20884928       9.96744799      11.22842766       0.00817645       0.00136054      -0.00188299
C        9.41810341      10.66455227      11.38879042      -0.00052643       0.00777259       0.00039588
H       10.18231947       9.95881097      11.72019278       0.00629365       0.01175666      -0.00142263
H        9.33251220      11.45202510      12.14523180      -0.00376410       0.00549898       0.00285831
H        9.75937955      11.11724435      10.45079306      -0.00259383       0.01453161       0.00187886
H        7.42734699      10.58727559      11.16181395       0.00133812      -0.00100126       0.00196893
O       11.20754505       7.98018804       1.44099389       0.01789546       0.02316910      -0.02147313
C       11.10733406       6.57300589       1.30868398       0.01528318       0.02307653      -0.01693088
H       11.75589524       6.18109434       0.51759178       0.01083276       0.01972538      -0.01915166
H       10.07121989       6.35969145       1.05387769       0.01398712       0.02419175      -0.01194787
H       11.34954557       6.04354352       2.23612679       0.01804048       0.02619016      -0.01600999
H       12.12880410       8.24228745       1.55168088       0.01826813       0.02336201      -0.02474315
O       11.38469059       2.43770027       2.01170453       0.00266206      -0.00073516      -0.01401305
C       10.24248960       2.22954759       1.20460312       0.00011957      -0.00186655      -0.00967985
H       10.48606727       1.69397638       0.28311050      -0.00019124       0.01703863      -0.02014047
H        9.84870501       3.21142943       0.94244640      -0.01309660      -0.00267097       0.00958908
H        9.45700801       1.67778002       1.73255415       0.01122338      -0.02043816      -0.01403332
H       11.94484184       1.65697030       1.96983394       0.00343892       0.00024296      -0.01555966
O       10.49547648      10.32114199       4.35558347      -0.00248508       0.00278258       0.00915271
C       10.51953832      11.05517984       3.14812375       0.01034958       0.00579625       0.01153785
H       10.45394511      12.13362615       3.32959496       0.02220250       0.00589693       0.01489551
H        9.65169484      10.75376097       2.56406174       0.00906605       0.01787445       0.00732340
H       11.41596175      10.84636191       2.55140335       0.00981545      -0.00316192       0.01421794
H       11.20558473      10.64940964       4.93346320      -0.00242848      -0.00413763       0.01212394
O        3.12651497       6.15126157       2.98861544      -0.01677769      -0.02506238       0.01779667
C        2.09199360       7.07975844       2.76600259       0.01014203       0.00075930       0.00298746
H        1.87686302       7.09122664       1.69600529       0.01352935      -0.00301595       0.00267142
H        2.36593299       8.09998850       3.03837511       0.03543484      -0.00530517      -0.00366189
H        1.17980291       6.78576530       3.29941276       0.00094166       0.03096123       0.00223690
H        3.69858120       6.40988473       3.74270074      -0.00422505      -0.02172871       0.00688621
O        7.27088844       2.03481480       8.19703112       0.01646037       0.00441268      -0.01653492
C        7.45431388       2.68056448       9.45226298       0.00773822      -0.01679928      -0.00576502
H        6.71205124       3.46664796       9.61504341       0.00933701      -0.01621696       0.00059862
H        8.45791333       3.10761258       9.53626264       0.00864631      -0.02181891       0.01011659
H        7.32154463       1.92209708      10.22109883      -0.00204274      -0.02770004      -0.01806423
H        7.48132601       2.65059742       7.48642894       0.03072383       0.01293311      -0.00465723
