148
Lattice="11.442531073481495 0.0 0.0 0.0 11.442531073481495 0.0 0.0 0.0 11.442531073481495" Properties=species:S:1:pos:R:3:forces:R:3 energy=-678130.75 stress="0.0011106327874585986 0.0004530732112471014 0.00037855925620533526 0.0004530732112471014 0.000820448505692184 -0.0009662500815466046 0.00037855925620533526 -0.0009662500815466046 0.002224160358309746" pbc="T T T"
Hg      11.10530715       9.83551299      -0.32587750       0.00285074      -0.00793142       0.00248183
S        9.26185806      10.77410384       9.85204373       0.00076099       0.00015731       0.01389223
N       10.30376650      10.70924805       7.22551116      -0.01493454       0.00823232       0.02151078
C        9.90884287      10.72995384       8.32440757       0.00252759       0.00320708      -0.01008531
S        4.29222376      12.06033303      10.09480851       0.00229633      -0.00039464       0.00101674
N        6.19804669      12.77959422       8.16551670      -0.00274247       0.00464216       0.01104391
C        5.40202152      12.47602816       8.96906283       0.01515980       0.00842973      -0.00936249
O        0.56105359       8.12406398       9.52514262       0.00726874      -0.00176825       0.00065070
H        0.00778352       7.97676959       8.73384162       0.00164248      -0.00483372       0.00407017
H        1.40073007       8.57831180       9.28198688       0.00334118       0.00141993      -0.00633253
O        3.26482675       5.59779464       3.17362236       0.00764675      -0.00726648      -0.00060302
H        3.69728201       5.50858798       2.30204710       0.00824670      -0.00296913      -0.00080952
H        3.99251238       5.88241698       3.77861958       0.00864062      -0.01286409       0.00237049
O        0.72518935       0.76280365       3.00900602      -0.00354243      -0.00891957       0.00964952
H       -0.05034271       1.33764152       2.80955430      -0.00557495      -0.01156911       0.00978138
H        1.43238048       1.41175954       3.17924798      -0.00582661      -0.00545812       0.00676169
O        9.90480821       2.66755187       7.51497769       0.00311431       0.00024304       0.01519164
H       10.75573803       3.02856461       7.84290663       0.00716543       0.00087601       0.00387853
H       10.15741227       2.21051447       6.70345558      -0.00526357      -0.02015492       0.02359606
O        7.09517473       9.06824611       0.44140572      -0.00233650      -0.01694874       0.00529516
H        6.44316499       8.93708262       1.15029835      -0.00389314      -0.01159372       0.00543004
H        7.81365499       9.59157049       0.84176078       0.00021270      -0.01908007       0.00421982
O        3.28619333       3.66387840       7.23965746       0.00350973      -0.00849836      -0.00350477
H        3.95310369       4.09563653       7.82126452       0.00962237      -0.00259800      -0.01363399
H        3.81060969       3.12718600       6.61899375      -0.00211708      -0.01303058      -0.00508666
O        6.61546353       8.78241942       9.16024605      -0.00425997       0.00704300      -0.00516737
H        6.55683384       9.15326058      10.06279279      -0.01064989       0.00065175      -0.00373031
H        7.51972996       9.01219981       8.90683310      -0.00003530       0.00167520       0.00590247
O       10.07334829       7.04710512       7.81596674       0.00353965       0.00524399       0.00619824
H        9.39274866       7.62968772       7.42913488       0.00478758       0.00366761       0.00018054
H       10.30114085       6.46887106       7.05059032       0.00722055       0.00080037       0.01017274
O       11.07052722       5.61633378       0.74163047      -0.00887789       0.00450706       0.00053692
H       11.84395407       5.10142122       0.48728084      -0.01348658      -0.00173329      -0.00086793
H       10.50390826       5.62853788      -0.07169771      -0.01186609       0.00581516       0.00232603
O        9.54501502       2.84990649      10.38419278       0.00242716       0.00409498      -0.00026324
H        9.41609343       2.36900622       9.55528407       0.01060716       0.01022954      -0.00604444
H        9.47021409       3.79349256      10.14009063      -0.00177300       0.00540586       0.00520135
O        9.44811209       5.59697682      10.04202629      -0.01048580       0.00532976       0.00233644
H        8.54179269       5.88262666      10.28049396      -0.01150746       0.00383434       0.00000238
H        9.68168472       6.09908741       9.22602191      -0.00758687       0.00651802       0.00336239
O        9.56440107       0.07824876       4.20064038      -0.00382564      -0.01181193      -0.00208899
H       10.45511944       0.06701115       4.56546110      -0.00450261      -0.00279061      -0.00008027
H        8.96014688       0.04879009       4.95777242      -0.00611563       0.00167910      -0.00214053
O       10.31649808       2.71745080       2.53093524      -0.00267334      -0.00885133       0.00142999
H       10.59349897       2.97623585       3.43213633      -0.00433196      -0.00598659       0.00095570
H       10.84453393       3.23888169       1.91534687       0.00308633      -0.01557852       0.00063443
O        2.19478989       5.84827999       9.03802842       0.02187751       0.00263982      -0.00132619
H        1.61916184       5.07401896       8.90339917       0.01790083       0.00533870      -0.00047632
H        1.61115323       6.55048396       9.37061616       0.02423350       0.00403550      -0.00031554
O        3.76706163       7.23829378       7.22664631       0.01366951       0.00003494      -0.01524960
H        3.06219467       7.56133243       6.64918327       0.00543057      -0.01374459      -0.01329731
H        3.32394001       6.55890007       7.78212172       0.02537856      -0.00100646      -0.00741871
O        1.11247817      -0.02740242       9.35260996       0.00144659      -0.00261994      -0.00066271
H        1.08853941       0.04836825       8.38808549       0.00296188      -0.00305640      -0.00186411
H        2.03312600       0.17460082       9.57505695      -0.00076102       0.00038863       0.00098964
O        2.14396961       0.71890290       6.72449104      -0.03507372      -0.00142527      -0.01389045
H        2.79123131       1.25650253       7.19781233      -0.03565049       0.00944035      -0.02553297
H        1.53019285       1.35076263       6.32724544      -0.04581185      -0.01007155      -0.01290135
O        9.40214411      10.19850833       1.73883989      -0.00117471      -0.01368584       0.00109918
H        9.41744941       9.43533086       2.35334658      -0.00404809      -0.01166992       0.00456960
H        9.47524322      10.94871631       2.35768434       0.00038190      -0.01168569      -0.00089623
O        1.50068197       8.04566005       3.47938571       0.01093426      -0.01190912      -0.00574075
H        2.12967769       7.31598510       3.37787981       0.01278948      -0.01016241      -0.00861137
H        1.83531388       8.58791332       4.21322029       0.01259016      -0.00981786      -0.00733292
O        0.57526433       2.47258872      11.20643006      -0.00028360       0.00680023       0.00540996
H        0.75333720       1.52499581      11.31837508      -0.00110591       0.00691939       0.00814694
H       -0.38645397       2.55358655      10.94574682       0.00005104       0.00636622       0.00145447
O        8.80169366       8.19871774       3.53801548      -0.01087926      -0.00333835       0.00279360
H        8.89254762       8.29112754       4.50447474      -0.00988000       0.00083388       0.00319690
H        8.88676698       7.23883672       3.34674645      -0.00505806      -0.00340583       0.00679525
O        1.88443104       5.64244670       5.61937085       0.00861728      -0.00613456       0.00343060
H        2.22902219       5.44631021       4.73786800       0.00434386       0.00034455       0.00034361
H        2.31102021       4.99615854       6.21271567       0.01131230      -0.01082268      -0.00275986
O        4.47027015       5.59136139       0.68698180       0.00616073       0.01109728      -0.00106864
H        3.97794250       4.80248208       0.35452550       0.00463169       0.01364457      -0.00411669
H        5.34571489       5.60224908       0.27454372       0.00957061       0.02273017       0.00453884
O        8.39136605       8.64055509       6.28273885       0.00607988       0.00177467      -0.00085142
H        7.42323393       8.76225030       6.25287157       0.00690900       0.00592986       0.00330291
H        8.77452998       9.52276040       6.41222323       0.01127603       0.00144359       0.00139469
O        4.45047553      11.04761522       3.98070660       0.00024673       0.01129394      -0.00399977
H        4.07597064      10.98293042       3.07563621       0.00112333       0.01234875      -0.00417829
H        5.27724098      10.51276158       3.89816885       0.00206759       0.01350907      -0.00359404
O        2.42119913       2.90089566       3.77763672      -0.01046526       0.00284620      -0.00674291
H        3.21794307       2.65021934       4.29253890      -0.01241514       0.00174323      -0.00362596
H        2.68389520       3.71919799       3.32430256      -0.00758707       0.00337482      -0.00432307
O        7.40016042       3.58149009       6.99343075       0.00548036       0.00710388       0.01025564
H        8.34906935       3.44349289       7.20995335       0.00539632       0.00923419       0.00946772
H        6.97063164       2.77255153       7.34850146       0.00717341       0.00450576       0.01077983
O        9.14620996       5.56326008       3.21316111       0.01110971      -0.00449410       0.01869547
H        8.42582984       4.94310902       3.47086254      -0.00023860       0.00582369       0.00813217
H        9.60632400       5.19518180       2.44778757       0.00184343      -0.00067341       0.01173238
O        0.89753647       3.41336141       8.57815583       0.00419974       0.00672159       0.00259677
H        0.93852837       2.92989681       9.42690856       0.00277112       0.00706842       0.00252381
H        1.74231186       3.25981350       8.11404167       0.00308007       0.00208162       0.00159604
O        7.23730321      11.58085993       5.87231583       0.00082105       0.01233682      -0.00507694
H        6.64815436      10.80657780       5.98139375       0.00375425       0.01049844      -0.00648754
H        7.03782972      12.09116008       6.68577595      -0.00006341       0.01001405      -0.00231382
O        2.89907638       9.52818403       5.60173045      -0.00428210      -0.00192466      -0.01521988
H        2.44982142      10.19538200       6.14210441      -0.01334244      -0.00733536      -0.01586939
H        3.40920809      10.08373457       4.96808487      -0.00219813       0.00383528      -0.00794399
O        5.71170599       9.42266583       6.62783322       0.00789848       0.00873081      -0.00490186
H        5.77580909       9.24132246       7.58539868       0.00853157       0.01091533      -0.00425419
H        4.79459490       9.22990344       6.37696166       0.01306955      -0.01126112      -0.00703070
O       10.66375628       5.56403275       5.61733423       0.01007294      -0.01137763       0.02117009
H       10.22187952       5.69343973       4.75801603       0.01189147      -0.00697896       0.02107847
H       11.62041325       5.76388712       5.50439132       0.01192740      -0.01786915       0.02041224
O        1.27199555      -0.26954504       0.71995487      -0.00288279       0.00486262       0.00143377
H        1.03519076       0.07530511       1.63904428      -0.00324100      -0.00191249       0.00380591
H        2.14511516      -0.70179757       0.84656591      -0.00017904       0.00940320      -0.00137381
O        4.89585692       8.01301805       1.86427731      -0.01041094       0.00843936       0.01018670
H        5.02042926       7.76123413       2.78853847      -0.00829087       0.00169212       0.00833799
H        4.56552027       7.21759885       1.40172515      -0.00743987       0.00949024       0.00568765
O        3.79032805      10.41509830       1.38470316       0.00027251       0.01051053      -0.00165513
H        4.36356954      10.78992967       0.69868721       0.00142312       0.00435336      -0.00344895
H        4.09451899       9.48561840       1.50900547      -0.00311941       0.00976598       0.00426289
O        6.84396602       1.39553821       3.48345141      -0.00181232       0.02487452       0.00202224
H        5.94986237       1.12230935       3.24728697       0.00416058       0.01567153      -0.00918245
H        7.00189249       0.95531815       4.35210563      -0.00216113       0.01643053      -0.00142545
O        6.72440477       9.87950695       3.31277378       0.00143744       0.01075318       0.00164846
H        7.37986824       9.15328364       3.42440372      -0.00632747       0.00340950       0.00183267
H        7.25595999      10.66010984       3.10946073       0.01126531       0.00372397       0.00036786
O        4.56289276       2.17780180       5.26646674      -0.01339507      -0.00787774      -0.00696646
H        4.58937387       1.22858062       5.04263923      -0.01368392      -0.00547761      -0.02122493
H        5.40042170       2.54743522       4.95455530      -0.01339760      -0.00470228      -0.00348446
O        5.41074791       4.85992278       8.47863274      -0.00317989       0.03247394      -0.03373024
H        6.24676059       4.52446321       8.10328025      -0.00106862       0.01619993      -0.02174465
H        5.60496068       5.14820695       9.37388561      -0.02204402      -0.03761522      -0.00328448
O        0.54757376       8.22858271       0.99154256       0.00557406      -0.00399525       0.00069437
H        0.80607642       8.34931284       1.93664671       0.00863918      -0.00597629       0.00090478
H        0.19654116       7.31569362       0.89366873       0.00055944      -0.00261028       0.00136591
O        6.92042678       6.49097596      10.73385879      -0.00937691      -0.00077626       0.00442716
H        6.69851085       7.07414212       9.97968203      -0.02519608      -0.02358878      -0.00753421
H        7.12750480       7.16445879      11.40907932      -0.00285799       0.01994318      -0.01599509
O        3.13004995       8.90690474       9.37823135       0.00642709       0.00306784      -0.01771553
H        3.53519665       9.78458102       9.40203664       0.00416137       0.00332232      -0.01721924
H        3.56039082       8.41410512       8.65410863       0.00677733       0.00478375      -0.01931250
O        3.17027475       3.30777674       0.30192797       0.00690454       0.00882101      -0.00974860
H        3.63601456       2.61765750      -0.19642298       0.00462647       0.00160277      -0.00106477
H        2.22963203       3.14759200       0.10843442       0.00596175       0.00852855      -0.00608337
O       11.46130957       2.93423211       5.11204532       0.00140115      -0.01540353       0.01004817
H       12.35134082       3.05282918       4.72317761      -0.00393374      -0.00580525       0.00047505
H       11.19323710       3.81488376       5.44412882      -0.00309458      -0.01807668       0.01389796
O        7.11671058       4.05139324       4.29519764      -0.00846654       0.01723224       0.01717987
H        7.12257729       3.17977645       3.84840278      -0.01506813       0.01942213       0.01242740
H        7.32479239       3.85522090       5.23725843      -0.00517491       0.01028980       0.01566743
O        5.19392339       6.57128176       4.78492933       0.00774071      -0.02914532       0.00454083
H        5.88508725       5.89727857       4.83621794       0.00101058      -0.03755448      -0.00052769
H        4.86643475       6.71490564       5.69617748       0.00930750      -0.02689996       0.00519651
