150
Lattice="12.499681361647438 0.0 0.0 0.0 12.499681361647438 0.0 0.0 0.0 12.499681361647438" Properties=species:S:1:pos:R:3:forces:R:3 energy=-785192.1875 stress="6.1010556237306446e-05 -0.0005081031704321504 -2.1947540517430753e-05 -0.0005081031704321504 -0.00036162385367788374 -0.0006716284842696041 -2.1947540517430753e-05 -0.0006716284842696041 -0.001208567526191473" pbc="T T T"
Hg      12.19698675      13.07541532      -0.38104873      -0.01082243      -0.00816293       0.00337918
O       10.74540027       8.58269575       1.59957809       0.00615740      -0.00498137       0.00560457
O       12.55039783      10.40792127       0.37685004       0.00148597      -0.00418043       0.00045979
O       13.45703120       7.86410597       1.22250637       0.00499105      -0.00397599      -0.00245941
O       12.86456464       9.92391017       3.25200930       0.00862491      -0.00364959      -0.00040996
Mo      12.39259116       9.19612513       1.60410852       0.00568322      -0.00421302       0.00095522
O        8.30447644       2.61236252       4.00695703       0.00393301       0.01796353       0.00907511
O        8.00703093       4.13886257       2.38315937      -0.00415361      -0.02252829      -0.02540171
C       10.15779678       3.11993263       2.64093710       0.00221503       0.00063945      -0.00028238
C        8.72155162       3.36741809       2.97988600      -0.00078356      -0.00250959      -0.00836337
H       10.67110451       2.52966851       3.39490878      -0.00063573      -0.00109129       0.00014807
H       10.19505135       2.57312879       1.69538487       0.00994120       0.00710592      -0.00354901
H       10.68683923       4.05745996       2.50495008       0.00112556       0.00275475       0.00812306
H        7.31619508       2.67326893       4.05987886       0.00360909       0.01317143       0.00672589
O       10.13174644      11.81137741       1.96484749      -0.00127625      -0.00268491       0.01509291
O        8.09718348      12.71055825       2.07577142       0.00458884       0.00941116       0.01590252
C        8.98221154      11.51562531       3.97623950      -0.00200205       0.00527835       0.01598656
C        8.99297309      12.07803720       2.60474095       0.00067896       0.00420734       0.01541367
H        9.08857440      10.42913237       3.94249870      -0.00593969       0.00489578       0.01733809
H        9.86404963      11.85814023       4.51732419      -0.00072084       0.00237872       0.01560818
H        8.07327969      11.79904631       4.49674169      -0.00087498       0.00956673       0.01547728
H       10.08976952      12.17249771       1.06383097       0.00084040      -0.00116089       0.01543611
O        5.55835002       0.86542328       2.35762845       0.00346208       0.00233096       0.00943840
O        5.63072834       2.57183932       3.82388028       0.00275689       0.00629157       0.00493073
C        3.71758235       2.30711680       2.40812469       0.00260586       0.00041080       0.00547916
C        5.06583736       1.94438551       2.94263716       0.00258148       0.00314240       0.00646263
H        3.78144206       2.33857913       1.32119389       0.00519782       0.00355132       0.00569439
H        2.99606381       1.53792645       2.68868614       0.00492156      -0.00338027       0.00075262
H        3.39688587       3.26571018       2.79935794      -0.00178508      -0.00189506       0.00734906
H        6.51743037       0.69759080       2.54372415       0.00376078       0.00425792       0.00990680
O        4.46524790       5.26664856       0.59953133       0.00957644      -0.00359148      -0.00884962
O        4.26065838       7.08705209      -0.66781047       0.00390738       0.00173599      -0.00018281
C        6.37891088       6.62507369       0.36879426       0.00578833       0.00240445      -0.00354052
C        4.94659835       6.38983371       0.05624319       0.00634336       0.00005484      -0.00373772
H        6.69369579       6.09597599       1.26354497       0.00735816      -0.00149859      -0.00644681
H        6.96956043       6.25795881      -0.47626135       0.00645667       0.00822571      -0.00553830
H        6.56131323       7.69261912       0.44980527       0.00302406       0.00237849       0.00193715
H        3.53225962       5.19678063       0.34800377       0.00985661      -0.00537738      -0.00942615
O       11.75784612      -0.15230780       7.41018597      -0.00253008      -0.01521784       0.01876503
O       13.00410175       0.59332513       9.12135169      -0.00048256      -0.00427278       0.01090783
C       10.76079829       1.37631232       8.89002632       0.00447541       0.00802994      -0.00071841
C       11.96728819       0.59479538       8.47965329      -0.00015253      -0.00560915       0.01048791
H       10.14450997       1.65741674       8.04249737       0.01105985       0.00316304      -0.00711337
H       10.16644520       0.70326956       9.51495064      -0.00326015       0.01958099       0.00386228
H       11.03597054       2.23275512       9.49778269       0.00857656       0.01344027      -0.00995329
H       12.35633117      -0.94261305       7.46100961      -0.00431174      -0.01689161       0.02548310
O        6.79274425       0.44455331      11.63215379       0.00568075      -0.01181877       0.00396332
O        5.47630955       2.18935492      12.15417495      -0.01632452      -0.02640593      -0.00701427
C        7.80759324       2.56214578      11.68680757      -0.01714218      -0.00079554       0.00907364
C        6.55790001       1.74764604      11.84094116      -0.00931609      -0.01399042       0.00106162
H        8.43425211       2.38192660      12.56207164      -0.02341766       0.01007646       0.01571144
H        8.36293049       2.24983843      10.80573945      -0.00593752       0.00256482       0.01498132
H        7.58261060       3.62024065      11.62278005      -0.02867813      -0.00359017       0.00368932
H        6.00661365      -0.09912202      11.87196913       0.00899389      -0.01853814       0.00018728
O       11.34429689       3.67885972       6.65377591      -0.01597846       0.00800166      -0.01572675
O        9.41740849       4.45643329       7.48748216      -0.01115799       0.00552763      -0.00233085
C       11.48121350       5.06359538       8.55813279      -0.00463462       0.00350976      -0.01333815
C       10.62447986       4.38707637       7.54352074      -0.01015347       0.00591021      -0.00972493
H       10.87161838       5.31375951       9.42360986      -0.00182059       0.01134500      -0.01362567
H       12.34779094       4.45629040       8.81749360      -0.00983050      -0.00308397      -0.01119364
H       11.86801846       5.98131120       8.10747096       0.00418113      -0.00224596      -0.01730005
H       10.73969132       3.35158675       5.96965303      -0.02005690       0.00966041      -0.01296419
O        2.49804967       6.45466923       2.75175823       0.00296116      -0.00567168      -0.00370425
O        4.23471502       7.81538245       2.34811642       0.00047708      -0.00386882      -0.00698137
C        4.44146895       6.11665899       4.02764031       0.00326538       0.00117695      -0.00252682
C        3.72759180       6.89795628       2.96365025       0.00188459      -0.00309682      -0.00448310
H        3.80245752       6.00597533       4.90133161       0.00306958       0.00102926      -0.00272892
H        4.68393411       5.12123544       3.65026137       0.00607311       0.00108700      -0.00027645
H        5.36614869       6.61554375       4.29976753       0.00153869       0.00458217      -0.00303522
H        1.98391243       7.04562690       2.10818551       0.00190967      -0.00668011      -0.00412719
O        4.33637918      10.83541767       8.11255373      -0.00145432       0.00091755       0.00790572
O        3.48540487       8.76585640       8.03545111       0.00122166       0.00110853      -0.01004082
C        5.42540207       9.20011117       9.39359186      -0.00562388      -0.00737432       0.00104803
C        4.31269454       9.54569102       8.46343365      -0.00234467      -0.00136840      -0.00101799
H        6.36153207       9.33181549       8.84934678      -0.00536661      -0.02186671      -0.00211088
H        5.43717674       9.87713522      10.24850940       0.00403198      -0.00201534      -0.00370432
H        5.33359724       8.17542824       9.73591486      -0.01638026      -0.00419253       0.00740698
H        3.71871362      10.97348349       7.36070203       0.00392622       0.00387232       0.00358453
O        3.31800449       9.50424017      -0.04414151       0.00076781       0.00219679       0.00104362
O        5.05930111      10.88469026      -0.33262660       0.00872254      -0.00811881       0.00464138
C        3.07089475      11.67068408       0.76296974       0.00374782       0.00932622      -0.01614863
C        3.92650916      10.66563918       0.07182315       0.00421005       0.00048897      -0.00283152
H        2.09556579      11.70910003       0.27665955       0.00041464      -0.00410108      -0.01022096
H        2.88989719      11.33102695       1.78543507       0.01280496       0.02550826      -0.00910965
H        3.56041874      12.63604475       0.76480962      -0.00037481       0.01154026      -0.03504301
H        3.90139794       8.77952899      -0.36382989       0.00051925      -0.00127606       0.00802571
O        1.71606788      10.87391252       9.88705042      -0.00128877      -0.00643718       0.00361465
O        0.33145528      10.07704736       8.31678714      -0.00294870      -0.00877869       0.00617170
C        0.98173756       8.64209212      10.12068011       0.00762386      -0.00973678       0.00017464
C        0.96925167       9.91788890       9.34540865       0.00095731      -0.00780392       0.00421071
H        1.72622825       7.98288425       9.67175648       0.01312040      -0.00292077      -0.00071704
H        1.23629978       8.81536591      11.16281667       0.00485027      -0.01101539       0.00094831
H        0.00482854       8.17159699      10.03256481       0.01112399      -0.01626085      -0.00359259
H        1.50008890      11.72179024       9.42616643      -0.00612746      -0.00507575       0.00739917
O        9.32978998       7.75070507      12.19608216       0.00605106      -0.00181139       0.00455935
O        9.12979078       5.97243009      10.90212760       0.00990212       0.00435340      -0.00379288
C       10.92754697       5.96933014      12.47841438       0.00238371      -0.00492582       0.00479150
C        9.71516064       6.55196228      11.79793548       0.00640798      -0.00063404       0.00096458
H       11.82641231       6.44768002      12.08246211       0.00483237      -0.00113595       0.01515252
H       10.93145483       6.17071305      13.54787052      -0.00547475      -0.01283450       0.00627404
H       10.97380531       4.90231185      12.28164370       0.00435696      -0.00343876      -0.00264953
H        9.89732714       8.09846717      12.97760887       0.00528597      -0.00392217       0.00584599
O       12.20520117       7.90703939       4.78647428       0.00148726       0.00248639       0.00147669
O       10.35881839       9.08583103       5.18167092       0.00140047       0.00128531       0.00474995
C       10.10390180       6.76073921       4.73911792       0.00167060       0.00251269      -0.00158785
C       10.92609298       8.01978453       4.94147488       0.00161117       0.00205135       0.00181824
H        9.89250503       6.69039988       3.66856146      -0.00310457       0.00951336      -0.00106937
H       10.65373879       5.86120183       5.00916761       0.00346009       0.00127332      -0.00964790
H        9.15734322       6.82749441       5.27103285       0.00410548      -0.00105795       0.00309606
H       12.67528503       9.28821313       4.00225901       0.00639697      -0.00220346       0.00046861
O        7.89067922       2.15914963       7.18857815       0.00234014      -0.00062859      -0.00935233
O        6.57116924       2.75498382       8.90644929       0.01955956       0.00605559      -0.00832713
C        6.69947653       0.44244286       8.27537730      -0.00655034       0.00945330      -0.00621206
C        7.01236633       1.90196300       8.17839145       0.00430760       0.01065516      -0.00359559
H        6.68458166      -0.04008882       7.30018607      -0.01079185       0.00780838      -0.00537446
H        7.47660162      -0.03631723       8.87732899      -0.01126935       0.00229633      -0.00449079
H        5.75561426       0.28921270       8.78444930      -0.00817066       0.01876793      -0.00551881
H        8.16677528       3.09793360       7.23963582       0.00897630      -0.00120291      -0.01191823
O        4.33604720       3.93741894       7.17383714       0.00663334       0.00115198      -0.00441629
O        2.55529766       3.70466939       8.51765894       0.00781953      -0.00296986      -0.00249934
C        4.12749420       5.48031180       8.93168599       0.00690681      -0.00145483      -0.00209677
C        3.56968331       4.29221943       8.22746544       0.00838184      -0.00053579      -0.00319292
H        5.18036055       5.31191336       9.15448830       0.00805062       0.00094601      -0.00577762
H        4.04870400       6.35720534       8.28511110       0.00274908      -0.00032851      -0.00015198
H        3.57097705       5.67155315       9.84205887       0.00891420      -0.00482165      -0.00020336
H        3.92278034       3.16302782       6.76827962       0.00683320       0.00179695      -0.00549831
O        1.00372877       5.87360568       5.43735210      -0.00143969       0.00210142       0.00145900
O       -0.02513025       4.62246972       3.88503063       0.00483203       0.00413302      -0.00465000
C        1.70578146       3.64106814       5.20165880      -0.00096679       0.00087023      -0.00013590
C        0.80419798       4.76326154       4.76359329       0.00156069       0.00305563      -0.00092059
H        2.73490713       3.89556173       4.94641131       0.00042257       0.00187977       0.00383809
H        1.64478799       3.51563479       6.28269759      -0.00391987       0.00024950      -0.00053704
H        1.42314128       2.72206864       4.69589956      -0.00310254       0.00148465       0.00076439
H        0.40880496       6.65818178       5.07592397      -0.00035859       0.00302433       0.00033846
O        9.54342038      10.66547868       7.70700128      -0.00802366      -0.00507748       0.00691788
O        7.76477107       9.57997546       6.88032004      -0.00621712      -0.00119324      -0.00188279
C        9.42450378       8.37543963       8.16243808      -0.01296374      -0.00511974       0.00323433
C        8.81019408       9.55705132       7.48689101      -0.00869358      -0.00345272       0.00254184
H       10.50320970       8.40667201       8.01783527      -0.01285912      -0.00914701       0.00344039
H        9.22298194       8.43018498       9.23589668      -0.01230774      -0.00411368       0.00323685
H        8.99869863       7.45315732       7.78197058      -0.01600939      -0.00376549       0.00355589
H        9.16455641      11.38097910       7.17836436      -0.00434658      -0.00359862       0.00660691
O        3.45101200       8.87160651       5.18407782      -0.00192368       0.00454557      -0.00260836
O        3.47958009      11.07484433       5.57776101       0.00406927       0.00202215       0.01083267
C        5.24948830      10.09964709       4.28556225      -0.01032650       0.00779124      -0.01384836
C        3.97219486      10.09080848       5.05560612      -0.00209123       0.00444621      -0.00048715
H        6.05731265      10.04785092       5.02289765      -0.00399517      -0.02177020      -0.02297188
H        5.31923532       9.24572462       3.61712235      -0.02824568       0.02202547      -0.03433444
H        5.34189514      11.03332717       3.73716253      -0.00434167       0.02039963       0.00911540
H        2.72347937       8.91518610       5.82868041       0.00821546      -0.00009352       0.00923717
