142
Lattice="12.064484557595984 0.0 0.0 0.0 12.064484557595984 0.0 0.0 0.0 12.064484557595984" Properties=species:S:1:pos:R:3:forces:R:3 energy=-643583.375 stress="-0.000333634321577847 1.1079018349846592e-05 -0.00038434428279288113 1.1079018349846592e-05 0.0005444248090498149 -0.00046426610788330436 -0.00038434428279288113 -0.00046426610788330436 0.0002760743082035333" pbc="T T T"
Hg      11.96871676      11.69278641      -0.55905141      -0.00104267       0.00986862       0.00508231
S        9.78116558      10.75964858       8.66860680      -0.00468206       0.01173711      -0.00950438
N        8.66312763      13.17060177       7.76812984      -0.01972747       0.02136087       0.03442699
C        9.10857293      12.13855777       8.14908454      -0.01390491       0.01722641       0.01775130
S        8.71450130      12.49177666      13.02408781       0.00120926      -0.00926179       0.00487274
N        6.76266509      10.84705277      11.85199686      -0.02824378      -0.00863528      -0.01987630
C        7.56499675      11.55887916      12.33625566       0.02681015       0.02790213       0.01655617
O       12.47951291       2.94285452       4.22486065      -0.00452971       0.00558543       0.00741404
C       11.78374179       3.32491361       3.04775475      -0.00283694       0.00728524       0.00668162
C       11.49573092       2.15921475       2.12282576       0.00447886       0.00934130       0.00185677
H       10.85214206       3.84301645       3.30168668      -0.00562227       0.00260141       0.00611879
H       12.42499115       4.04539239       2.52952260      -0.00426820       0.01190433       0.01146147
H       10.96477541       2.49804668       1.23074920       0.00285311       0.00952148       0.00295344
H       12.42087736       1.68179344       1.80160163       0.00731081       0.01537318       0.00079741
H       10.86934901       1.41424497       2.61489819       0.00822017       0.00430857      -0.00094756
H       11.83539393       2.60926562       4.87615847      -0.00529015       0.00149275       0.00416557
O        8.20363073       3.22299862       2.60906686      -0.00618732      -0.01515222       0.00557107
C        8.25559510       2.53746120       3.85086175       0.00179645      -0.00985336       0.00775367
C        7.00336819       1.71974097       4.10622944       0.00520277      -0.01188645       0.01846781
H        9.13260774       1.88408355       3.89720442       0.00362825      -0.00767934       0.00615530
H        8.39062896       3.30199908       4.61977910       0.00350503      -0.00634217       0.00409022
H        7.05827511       1.22790122       5.08125051       0.01050896      -0.00525966       0.02160804
H        6.11621580       2.35477967       4.06146098       0.00330995      -0.01453249       0.01812667
H        6.90126706       0.95416035       3.33417540       0.00407799      -0.01748200       0.02411073
H        8.19112393       2.53932858       1.91513687      -0.00432910      -0.01808327       0.00774904
O        2.69543865       2.24798814       1.13691470       0.01268856      -0.00231856      -0.00402671
C        3.30579897       2.60378222       2.37286253       0.00363170      -0.00185546       0.00028259
C        3.31635963       1.45523890       3.36440778      -0.00020763      -0.00307232      -0.00103188
H        4.31227314       2.99866163       2.20236454       0.00390983       0.00047901       0.00750080
H        2.70066063       3.41450438       2.78443526      -0.00067052      -0.00354850      -0.00244637
H        3.71822591       1.78625019       4.32476181      -0.00772358      -0.00314751       0.00211836
H        2.29933415       1.10634383       3.53767834      -0.00044239      -0.00623630      -0.00824834
H        3.92934070       0.62906941       3.00441764       0.00405515      -0.00126925       0.00201728
H        3.35638735       1.89540584       0.53202408       0.01904398       0.00952885      -0.00428727
O        6.09700897       4.13013852       6.44105140       0.01056704       0.00664866       0.00435305
C        5.23077200       4.70724715       5.46426731       0.00474402      -0.00056511       0.00532269
C        5.98753661       5.40859213       4.35773321      -0.00204113      -0.00651246      -0.00292000
H        4.55862461       3.94563613       5.05766437       0.00384361      -0.00408819       0.01348978
H        4.60720924       5.41808150       6.01126416       0.00644203       0.00210902       0.00388020
H        5.28853436       5.88851271       3.67294092      -0.00650398      -0.01204255      -0.00235148
H        6.63669794       6.17671851       4.77889909      -0.00115213      -0.00269429      -0.01103392
H        6.59588687       4.71589574       3.77531122      -0.00386587      -0.00914194      -0.00176976
H        6.35279751       3.24186270       6.17228037       0.00293276       0.00142792       0.01399077
O       10.89621444       2.29728498       6.40980661      -0.00840154       0.00160003       0.00871098
C       11.44183489       3.12092751       7.43805701      -0.00006884       0.00398598       0.00255805
C       11.78897974       2.33371828       8.68633905       0.01794727       0.00532776      -0.00185567
H       12.33659731       3.57578049       7.00494712      -0.00719899       0.00786738      -0.00805214
H       10.73581518       3.92277398       7.67198487      -0.00080127       0.00089222       0.01038726
H       12.21209990       2.99400148       9.44629375       0.01896184       0.00805131      -0.00480590
H       10.89646387       1.86777527       9.10158384       0.02553704      -0.00282174       0.00563223
H       12.50927452       1.54421390       8.47310940       0.02280058       0.01180615      -0.00915511
H       10.07281126       1.89594655       6.76514892      -0.00867015       0.00839987       0.01384234
O        6.83426492       2.63466907       9.50727753      -0.01086564      -0.00037667      -0.00946307
C        7.27402861       3.26581478      10.70526483      -0.00117671      -0.01210743      -0.00750154
C        8.75678852       3.55861232      10.74164327      -0.00083643      -0.01272543      -0.01830052
H        6.70530317       4.19812322      10.77875288      -0.00026909      -0.01257432       0.00668801
H        6.99945219       2.64853491      11.57035105       0.00650544      -0.02017874      -0.01054108
H        8.99147561       4.14436011      11.63368041       0.00616694      -0.01632857      -0.01779503
H        9.32716824       2.63029191      10.79245488      -0.00087899      -0.01307979      -0.02798092
H        9.06667044       4.13010673       9.86612310      -0.00862544      -0.00937068      -0.01894350
H        7.53444564       2.07947433       9.10896686      -0.01272557       0.00368476      -0.02278034
O        8.62605042       5.16805768       7.15846740       0.00751118       0.00442827       0.00236152
C        8.79425118       6.50391752       6.71978316       0.00621557       0.00226831      -0.00419009
C        9.53898714       6.58065095       5.39646829       0.00569662      -0.00419809      -0.00486362
H        7.82614325       7.01364280       6.63825049       0.00570589       0.00090528      -0.00659744
H        9.35790899       7.03120101       7.49155860       0.00584254       0.00676134      -0.00679201
H        9.64865270       7.62813275       5.09967859       0.00812092      -0.00566186      -0.00908468
H       10.52805609       6.13018942       5.48973575       0.00454704      -0.00642836      -0.00379510
H        9.00006303       6.05228478       4.60730148       0.00357951      -0.00598720      -0.00237919
H        7.74682569       4.84835028       6.89949333       0.00827304       0.00236097       0.00195078
O        4.73012974       5.48870946       1.00815308       0.00073326       0.00184231       0.01028052
C        3.54116788       6.26372832       0.89753985      -0.00364038      -0.00575329       0.00312209
C        3.04607588       6.77276735       2.23550443      -0.00981072      -0.00132495      -0.00081360
H        3.69940355       7.10134990       0.20910299      -0.00714988      -0.00870204      -0.00118607
H        2.80182680       5.60151936       0.44379012       0.00146195      -0.01295871       0.00531524
H        2.14994341       7.38097499       2.11023704      -0.01161540      -0.00505348      -0.00669785
H        2.82705589       5.93876869       2.90380402      -0.00940672       0.00123751       0.00249116
H        3.79914613       7.40691421       2.70535709      -0.01360859       0.00351460      -0.00120973
H        5.47817111       6.08284551       1.11252072      -0.00277708       0.00684550       0.00644016
O        6.46623527      10.27027744       9.09030191      -0.01325309       0.00104809       0.00133795
C        5.08795944      10.53965052       9.08471874      -0.01401770      -0.00219911      -0.00168912
C        4.27980655       9.30453509       9.46109779      -0.01076213      -0.00223368       0.00577649
H        4.84847660      11.36502719       9.76472588      -0.01708603       0.00126642      -0.00697321
H        4.82477546      10.85307887       8.07121910      -0.01285763      -0.00801839      -0.00390500
H        3.20537992       9.49479649       9.39102072      -0.01150627      -0.00607645       0.00652005
H        4.52944323       8.47773729       8.79233097      -0.00970747      -0.00602324       0.01099332
H        4.53126700       8.99652065      10.47974308      -0.00804305       0.00435621       0.00723936
H        6.77931715      10.44096448       9.99771717      -0.01481444       0.00712398       0.00049660
O        2.28347928       9.59256335       0.37903112       0.00672990       0.00535506      -0.01445013
C        3.15239840      10.66142912       0.75123768       0.00681934       0.00333162      -0.00879356
C        4.22765310      10.20157587       1.71504155       0.00190884      -0.00078896      -0.00509012
H        3.60779122      11.11219869      -0.13527373       0.01199126       0.00427979      -0.00563890
H        2.51407555      11.41827114       1.21067103       0.00651038       0.00384465      -0.01019961
H        4.92824390      11.00997753       1.92705514       0.00204727      -0.00216530       0.00018865
H        3.77806651       9.84973189       2.64464010      -0.00286701      -0.00249287      -0.00807501
H        4.81837699       9.39856998       1.27294780       0.00263182      -0.00058423      -0.00446166
H        2.68312061       9.13722425      -0.36549754       0.00780426       0.00840657      -0.01569177
O        4.09137652       2.19399443      10.09871313       0.01421061      -0.00020468       0.01515675
C        3.74714068       3.52694286      10.44272141       0.00408106       0.00101489      -0.00005476
C        3.92529154       4.51057866       9.29845823       0.00027396      -0.00920811      -0.00913376
H        2.70262028       3.49479161      10.76003858       0.00345099      -0.00339305      -0.00251478
H        4.33161552       3.86441592      11.30599434      -0.00050080       0.01421078      -0.00194722
H        3.73137854       5.52799421       9.64937361      -0.01732378      -0.00811504      -0.02166788
H        4.94374215       4.46875413       8.90890391       0.00380379       0.00131088      -0.00097236
H        3.23846602       4.28963998       8.47995168       0.00988738      -0.02761716      -0.01227327
H        5.02415899       2.19427486       9.81202357       0.01322158       0.00372165       0.00915756
O        5.67369928       9.85098909       5.73436794      -0.00139242       0.01023149      -0.01298612
C        4.89725304       8.71657305       5.38992570       0.00063515       0.00620452      -0.00419696
C        3.40860622       8.93113599       5.56603003       0.00074238       0.00411005      -0.00127397
H        5.11851489       8.40317124       4.36092170      -0.00157988       0.00076188      -0.00311041
H        5.24924303       7.92021086       6.04934825       0.00443994       0.01084718      -0.00058758
H        2.84502314       8.04011215       5.28543231       0.00152072       0.00156739       0.00509463
H        3.17321782       9.17738332       6.60143627       0.00321930       0.00939294      -0.00192624
H        3.04555518       9.74224017       4.93209063      -0.00246977      -0.00002205      -0.00478247
H        5.39885808      10.58407796       5.17646044      -0.00635856       0.00664507      -0.01534873
O        9.24791707       7.34084151       9.94554608      -0.00734723       0.02745795      -0.00691891
C        7.84809654       7.13857963       9.79955908      -0.00487858       0.00882782      -0.00415903
C        7.10492683       7.23303578      11.11884279      -0.00403896       0.00499631      -0.00344473
H        7.42954666       7.86125889       9.09108596      -0.01463351       0.00087446      -0.00660670
H        7.74480976       6.13930963       9.37297230       0.00654899       0.00583434       0.00008412
H        6.05618925       6.95870391      10.97211111      -0.00175139      -0.00483230      -0.00135133
H        7.55468716       6.56238610      11.85323076       0.00296831       0.01049511      -0.00253019
H        7.13859307       8.25254729      11.50974309      -0.01235570       0.00621882      -0.00575112
H        9.39206458       8.27239057      10.13984139      -0.01841159       0.03328048      -0.02482413
O        9.66293617       7.50938303       1.36609879      -0.00335709      -0.01428491       0.01697972
C        9.38719731       8.80139449       1.89763321      -0.00169852      -0.00750178       0.00149533
C        8.00747493       8.90540540       2.51222947      -0.00109220       0.00146180       0.00103033
H       10.15405522       9.08639343       2.62800968      -0.00103137       0.00074691      -0.00232273
H        9.47732826       9.49670090       1.06271967      -0.00128131      -0.01766688      -0.00691420
H        7.84085173       9.91299688       2.89612624       0.00053844       0.00603636      -0.01033732
H        7.24382383       8.70316221       1.76227761      -0.00194582      -0.00640839       0.00385182
H        7.89331954       8.20033557       3.33990253      -0.00167598       0.01092483       0.00903153
H        9.58091939       6.86619846       2.07508115      -0.00146553      -0.00496230       0.02569722
O       12.23750490       9.21879738       4.70009666       0.00457463       0.00160033      -0.00497448
C       11.65540750      10.25181829       5.50343275       0.00793454      -0.00090247       0.00053187
C       10.58253115      11.02993113       4.77336714       0.00046760      -0.00254744       0.00997269
H       11.25605885       9.84880919       6.43821568       0.01535180      -0.00317726       0.00268728
H       12.48495401      10.90940058       5.76598125       0.00827116       0.00078040      -0.00465703
H       10.25187358      11.86865180       5.38735622       0.00353300      -0.00443362       0.01418759
H       10.96035097      11.40990052       3.82383445      -0.00803946      -0.00023712       0.00752047
H        9.70828622      10.40773768       4.57120082       0.00030650      -0.00450619       0.01644284
H       11.55017913       8.57759888       4.50368469       0.00454090       0.00084718      -0.00221629
