136
Lattice="12.715769642406407 0.0 0.0 0.0 12.715769642406407 0.0 0.0 0.0 12.715769642406407" Properties=species:S:1:pos:R:3:forces:R:3 energy=-674032.375 stress="-0.0021325338166207075 -0.0004952737363055348 -0.00029140300466679037 -0.0004952737363055348 -0.0007715128012932837 0.0008640942978672683 -0.00029140300466679037 0.0008640942978672683 0.00019956700270995498" pbc="T T T"
Ho      12.55938089      12.94688985      -0.82396645       0.01171297       0.00144953      -0.01505707
Br       2.97835072      11.62417654       0.73016794       0.00132632       0.00883887       0.00513969
O        2.89325737      11.96609616       2.29427541       0.00041597       0.02979343       0.00020850
O        1.38880796      11.90436419       0.12396436       0.00259766      -0.00131713      -0.00088951
O        3.89900941      12.66402946      -0.09218425       0.00082889      -0.00140315      -0.00802737
O        3.30941898      10.08988897       0.40689167       0.00367813       0.00513786       0.02724912
Br       0.86164413      11.44336042       6.36133374      -0.00355896       0.01685726      -0.00398631
O       -0.48539367      11.90883287       5.57617379      -0.01688409      -0.00405180       0.00718439
O        0.51805856      11.02901872       7.89993970       0.01548699       0.01885688       0.00073791
O        1.51617217      10.17361044       5.58777930       0.00415838       0.02241695      -0.00586438
O        1.90351024      12.69801696       6.40787003      -0.01983583       0.03028166      -0.01872125
Br      10.39596453      11.74748676      10.10734015       0.00589262      -0.01527876       0.00517315
O        9.13987327      10.79174187      10.33433711       0.01727102      -0.02513224       0.02580108
O       11.83044954      11.08342739      10.64246792       0.01793666      -0.00086955      -0.01007083
O       10.51733059      12.29910794       8.61827426      -0.01812107      -0.01968715       0.00189404
O       10.36748123      13.03519507      11.20320857       0.00703792      -0.01222886       0.00059132
O        6.70021949       4.47441372       8.30814753       0.01209289       0.00655028      -0.00975162
O        5.08445204       3.65539922       9.48180387       0.01165301       0.00890428      -0.00924814
O        5.06634679       3.32362316       7.23890900       0.00912029       0.01041198      -0.00954592
C        7.40567222       4.61299359       7.04613705       0.00973314       0.00872211      -0.01047243
C        8.76794699       5.16211192       7.36027508       0.01081383       0.00640044      -0.01175945
C        5.57062128       3.78313370       8.23084171       0.01121891       0.00889301      -0.00882512
C        3.93793020       2.80933746       9.55669639       0.00691819       0.01551674      -0.00918445
H        7.45224141       3.62887290       6.58107842       0.00772315       0.00993288      -0.01300988
H        6.82791145       5.27245031       6.39719639       0.00951830       0.01106489      -0.00768626
H        9.33408814       5.26462616       6.43390952       0.01011518       0.00608230      -0.01206957
H        8.69140477       6.14186718       7.82114661       0.01250654       0.00583833      -0.01032609
H        9.30286478       4.49236109       8.03090059       0.01054638       0.00514933      -0.01273108
H        3.13496931       3.20737282       8.94580700       0.00833109       0.02088469      -0.00763008
H        3.66176359       2.78537604      10.61006037       0.00776256       0.01614479      -0.00910065
H        4.17897299       1.80087196       9.21591750       0.00081082       0.01471516      -0.01066028
O        8.16392904       8.31663278      10.91552139      -0.00932017      -0.01966213       0.00631730
O        9.66849540       7.44559955       9.64691182      -0.00717025      -0.00709999       0.00104526
O       10.21497895       7.89502354      11.79789818      -0.00907493      -0.01987850       0.00375235
C        7.75037649       9.00438115      12.12597112      -0.01100641      -0.02820414       0.01063350
C        6.50039668       9.77300762      11.78952760      -0.00639397      -0.02050397       0.01191109
C        9.41921017       7.88872622      10.88926058      -0.00849694      -0.01627994       0.00395495
C       11.00051624       6.96486653       9.44326581      -0.00312781       0.00778237      -0.00513725
H        7.56318763       8.25898264      12.89543532      -0.01776372      -0.03349125       0.00345880
H        8.56494392       9.65612565      12.44134048      -0.00962853      -0.03463200       0.01927497
H        6.18296353      10.35442788      12.65573190      -0.00758906      -0.02507795       0.01414007
H        6.67784107      10.45998194      10.96150734      -0.00068580      -0.01597413       0.01730175
H        5.68502870       9.10194196      11.52505582      -0.00815411      -0.01511255       0.00443178
H       11.72543560       7.75377206       9.63753557      -0.01128063       0.01562977      -0.00744480
H       11.04717750       6.66181037       8.40169736      -0.00416859       0.01074019      -0.00573507
H       11.19371509       6.11070652      10.09263774       0.00947780       0.00891382      -0.00765479
O        8.53327010       8.30878317       6.43102175      -0.00211233       0.01854497      -0.00401921
O       10.32667961       7.95005553       5.28248254       0.00053857       0.02067071       0.00140762
O       10.42309646       9.44074051       6.98440942       0.00991762      -0.02131164       0.03765953
C        7.78848254       9.04872816       7.43765993      -0.00582471       0.01017517       0.00069109
C        6.65685145       8.17794882       7.91096602       0.00127715       0.00230306       0.00088720
C        9.81747788       8.65389879       6.30582092       0.00450689       0.00585467       0.01537538
C       11.68230988       8.30998657       4.94187572       0.00732520       0.01259023       0.01551393
H        8.47109689       9.30892608       8.24230829      -0.00528204       0.01300982      -0.00021154
H        7.42921374       9.96464449       6.96326608      -0.01304808       0.00795239       0.00252751
H        6.00232838       8.77227874       8.54885187      -0.00215119      -0.00329642       0.00194286
H        6.07139567       7.80678107       7.06941273       0.00218453      -0.00124697       0.00145653
H        7.02106269       7.33548456       8.49610223       0.00755343       0.00404930      -0.00019549
H       11.72189369       9.34068855       4.59658182       0.01835761       0.01561582       0.02798638
H       11.96595839       7.62007037       4.15144941       0.00620919       0.01947910       0.01088104
H       12.33850484       8.20969881       5.80163282      -0.00082538      -0.00339795       0.01938337
O        4.51616494      10.37624979       6.06017284      -0.00259918      -0.00485480       0.00415880
O        3.62247282       9.43397686       7.77715595      -0.00916338      -0.00141448       0.00256586
O        3.84754192       8.21886519       5.87538303      -0.01383984      -0.00053453       0.00229859
C        4.82414509      10.38510094       4.65043793      -0.00223848      -0.00505513       0.00424585
C        5.31279543      11.77063431       4.33047843       0.00390209      -0.00696898       0.00573754
C        3.96899937       9.24639471       6.49364825      -0.00889659      -0.00322479       0.00238913
C        3.01662275       8.29474395       8.38410721      -0.01783763       0.00248072       0.00038341
H        5.57802303       9.61731816       4.45492435      -0.00590721      -0.00821590       0.00370754
H        3.91466639      10.12825896       4.10509983      -0.00327379      -0.00017349       0.00397277
H        5.59925373      11.83496279       3.28009514       0.00285120      -0.00681539       0.00557081
H        4.52217245      12.49604454       4.52463688       0.00758231      -0.00360152       0.00756965
H        6.18599744      12.02656875       4.92924124       0.00576425      -0.01154870       0.00466636
H        2.07895572       8.05544142       7.88344471      -0.01710707       0.00728226      -0.00311807
H        2.83267845       8.58614701       9.41505169      -0.02100286       0.00399680      -0.00077784
H        3.68732712       7.43433252       8.34147573      -0.02281526      -0.00146693       0.00350443
O        9.73390667       2.06954786       2.71010259       0.00531310      -0.02419446       0.00023930
O        7.86476472       2.67994281       3.63048935       0.00764050      -0.00982359      -0.00748638
O        8.27375436       0.46783840       3.38013728      -0.00307059      -0.01418543       0.00813189
C       10.66824278       1.01889160       2.41700189       0.00405186      -0.02704281       0.00678056
C       11.72281839       1.60961286       1.50469264      -0.00302504      -0.03424704      -0.00612522
C        8.57995755       1.62450177       3.25815561       0.00342697      -0.01471567       0.00087394
C        6.61891839       2.33023710       4.28273325       0.00577842       0.00227740      -0.00557544
H       11.10790696       0.65569097       3.34836170       0.01043713      -0.01540022       0.00816435
H       10.13552817       0.19166009       1.94655455       0.00287664      -0.03321812       0.01965876
H       12.58304355       0.92012983       1.44052654      -0.00313766      -0.03405636      -0.00371696
H       11.29175936       1.87055891       0.52555392      -0.01260003      -0.04686953      -0.00541661
H       12.12973169       2.53549100       1.91546263      -0.00449384      -0.02830589      -0.01887749
H        6.02410660       1.70195011       3.62389659      -0.00021398       0.00515783      -0.00287712
H        6.12052081       3.27277626       4.47636252       0.01347074       0.00678173      -0.00850248
H        6.82219635       1.79397266       5.20800169       0.00222963       0.00387135      -0.00398663
O        1.05409623       4.27491389      10.60059331      -0.00158701       0.01429278       0.00224334
O        0.94669392       2.47625080       9.39112765      -0.00020877       0.02022381      -0.00387502
O        0.58521474       2.31692627      11.59691209      -0.00253216       0.01009265      -0.00459725
C        1.17803187       4.88808240      11.93381042      -0.00999205       0.01501533       0.00198734
C        1.24115396       6.37631301      11.76284681       0.00705926       0.01381940      -0.00140974
C        0.84435571       2.99389015      10.58595900      -0.00162124       0.01458177      -0.00149637
C        0.81614657       1.03625531       9.31662012      -0.00427210       0.02168256      -0.01285252
H        0.32304109       4.57559633      12.53201476      -0.01926634       0.02454952      -0.00678492
H        2.09021077       4.47882524      12.37267825      -0.01916221       0.00794266       0.01346642
H        1.49465757       6.82446490      12.72340813       0.00141583       0.01471972      -0.00058621
H        2.01128928       6.65724989      11.04630647       0.01797374       0.00301440       0.00647545
H        0.28230715       6.78315480      11.45031712       0.01495171       0.02253672      -0.01329835
H        1.47954796       0.54946025      10.05524377      -0.00152175       0.01485609      -0.01976313
H        1.16184660       0.73560825       8.32888738      -0.00869562       0.02784007      -0.01602718
H       -0.24420336       0.76504588       9.39140426      -0.00447167       0.02248853      -0.00910133
O        5.38512341       5.10569420       2.65287051      -0.00735934      -0.00179288       0.00053411
O        6.94127703       6.45948388       3.29760380      -0.00784230      -0.00340158       0.00402865
O        5.90636366       6.86538691       1.32464374      -0.00105911      -0.00407571       0.00002456
C        4.35179024       4.74099809       1.71813756      -0.00473833      -0.00131661      -0.00250944
C        3.80308231       3.40821379       2.16001938      -0.00477047      -0.00177985      -0.00499396
C        6.06531656       6.21410549       2.32799361      -0.00473893      -0.00389671       0.00254029
C        7.78173888       7.60346112       3.05673231      -0.00142039      -0.00843656       0.00295460
H        3.59030768       5.52570653       1.72861315      -0.00505349      -0.00170547      -0.00340197
H        4.78006386       4.70094803       0.71494959      -0.00219807       0.00035078      -0.00136381
H        2.94845464       3.12852156       1.54165061      -0.00403276      -0.00116985      -0.00605956
H        4.55173831       2.62442768       2.06169540      -0.00456879      -0.00149366      -0.00490942
H        3.47776364       3.44609496       3.19960757      -0.00575677      -0.00241756      -0.00540459
H        8.38298961       7.44731875       2.16157878       0.00893942      -0.01968822       0.01206857
H        8.41342572       7.68723043       3.93239017      -0.01200627      -0.00117428       0.00960988
H        7.17158780       8.49685252       2.92992685       0.00310457      -0.00807267      -0.01398160
O        8.49229925       1.88218250       9.29527601       0.00522240      -0.00068066       0.00054827
O        9.86371885       2.13433866       7.65279366       0.00821620      -0.00082940       0.00291541
O        7.95480857       0.96465323       7.29327792       0.00458992       0.00748050      -0.00279045
C        7.28928793       1.31683584       9.86339289       0.00522610      -0.00272453      -0.00206089
C        7.11085814       1.92638247      11.22834056       0.00219508      -0.00499457      -0.00168151
C        8.69416529       1.59449466       8.00556416       0.00599599       0.00263369       0.00031328
C       10.28167938       1.81365604       6.31318971       0.00532924       0.00451297       0.00062306
H        6.45791965       1.52757289       9.19305484       0.00581172      -0.00317250      -0.00285906
H        7.40635126       0.23122218       9.91230496       0.00674560      -0.00265008      -0.00319508
H        6.21437087       1.51846087      11.69831429       0.00248580      -0.00721553      -0.00348584
H        7.96608727       1.69531078      11.86274094       0.00177738      -0.00408828      -0.00088969
H        7.00430035       3.00720370      11.15226092       0.00032171      -0.00513536      -0.00050012
H       10.46186074       0.74447219       6.21868388      -0.00296462       0.00391632      -0.00585673
H       11.20921874       2.35900151       6.16392031       0.00957847      -0.00233667       0.00354875
H        9.52560215       2.14242406       5.60278593       0.00774634       0.01476747       0.00279750
