150
Lattice="12.458166631016097 0.0 0.0 0.0 12.458166631016097 0.0 0.0 0.0 12.458166631016097" Properties=species:S:1:pos:R:3:forces:R:3 energy=-528602.4375 stress="0.0005656837020069361 -0.000325716522638686 0.000271192635409534 -0.000325716522638686 4.2307063267799094e-05 0.0009405111777596176 0.000271192635409534 0.0009405111777596176 0.0003385477466508746" pbc="T T T"
Ho      12.34987863      12.31668951       0.84671686      -0.00101200      -0.00802907       0.00211412
P        6.87404436       9.28356557      -0.17801331      -0.00320451      -0.00142621       0.00379801
F        6.74768660       9.39230401       1.40262041      -0.00813529      -0.00452476       0.00360043
F        5.50197383      13.28056288       1.20990851       0.00557649       0.04571468      -0.01835945
F        7.02033249      10.85922672      -0.37207405      -0.01241557       0.00006238       0.00714875
F        6.79504171       7.69887531      -0.16068540       0.00767093      -0.00173724       0.00154731
F        5.30221667       9.38126105      -0.42092202      -0.00270192      -0.01110521      -0.00093460
F        8.49267818       9.18486291      -0.08500517      -0.00228451       0.00902695       0.00834221
P       11.25756963       9.41947296       4.23961596       0.00357877      -0.00935291      -0.00705412
F       12.37620691      10.17687589       5.03413411       0.00606596      -0.00676391      -0.01296817
F       13.03694847      11.97596524       2.65492685       0.01693565      -0.01721441      -0.00601679
F       12.06658945       9.32601904       2.85713095       0.00414012      -0.01743001      -0.00700930
F       10.23144612       9.33503504       5.44317440       0.00535446       0.00183956      -0.00498104
F       10.53641351      10.72401165       3.71172347       0.00640675      -0.00990951      -0.01483363
F       11.81022364       7.97373325       4.63266713       0.00101696      -0.00801253       0.00119913
P        8.13702414      12.46026737       6.51170243       0.00168050       0.00280076       0.00277612
F        7.91776344      11.40795651       7.73330463       0.01942842      -0.00018185       0.00369644
F        8.65093951      13.56297950       7.60641776       0.00421309       0.00465405      -0.00074381
F        9.65336717      11.95168040       6.34576541       0.00253499       0.01275644      -0.01255405
F        7.62152830      11.35479344       5.45949850      -0.00213864       0.00124204       0.00608516
F        6.61231531      12.98487600       6.72006980      -0.00030839      -0.00678849       0.01813028
F        8.34990331      13.53180877       5.32263684      -0.01722921       0.00584739       0.00207287
O       10.00215062      11.27242166       0.92244475      -0.00635505       0.00905818      -0.00797745
O       10.37887843      13.16461928       1.88915149       0.00439170      -0.00044021       0.00589191
C        8.25358755      12.14509569       2.39200223      -0.00293303       0.00920636      -0.00405797
C        9.57420642      12.24931273       1.75693114      -0.00167568       0.00581253      -0.00170952
H        7.46716105      12.33608465       1.65593225      -0.00120473       0.01786046      -0.00388345
H        8.10451674      11.14224929       2.79164736      -0.00860910       0.00748903      -0.01040164
H        8.17934389      12.86036036       3.20453792      -0.00040360       0.00498056       0.00016332
H        9.35784451      10.56054878       0.75389343      -0.00935894       0.01294154      -0.01436457
O        3.06026087       0.94591359       1.36248450       0.00341386      -0.00011992      -0.03201571
O        1.09748630       1.72265895       0.69244350      -0.00866902      -0.00253110       0.00092536
C        2.78026741       3.31727270       1.27670828      -0.00684640      -0.00072181      -0.00723603
C        2.29882608       1.89819300       1.11278119      -0.00385156      -0.00068307      -0.01355624
H        3.38160388       3.40578801       2.18138848      -0.00624065      -0.00395581      -0.00717062
H        3.42145426       3.54193629       0.42130029      -0.00698334       0.00446929      -0.00592875
H        1.93486900       4.00110803       1.31779056      -0.00792567      -0.00236410      -0.00327881
H        4.53177803       0.91744979       1.30737980       0.00254202       0.02589575      -0.02517188
O        8.38314268       3.39072606       1.59090210       0.00089151      -0.02280537       0.01609620
O        8.52668318       4.42513262       3.57217716       0.00135428       0.00131637       0.00322837
C        6.39139954       3.57386919       2.84665255      -0.00107682       0.00229057       0.01006030
C        7.85356426       3.84627557       2.75114949       0.00044656      -0.00543854       0.00921923
H        5.86147171       4.44456542       2.44654063       0.00269602       0.00447494       0.00976946
H        6.11319200       2.69463613       2.26782551      -0.00557386       0.00281520       0.01157123
H        6.12196002       3.45544220       3.89388144      -0.00063163       0.00548529       0.01059571
H        9.33080011       3.58384495       1.62331282       0.00206688      -0.02876781       0.01678236
O       10.35580501       3.00736432      11.38814641       0.01699519      -0.00942698       0.01027134
O       11.19414087       0.95101577      11.54267069       0.00430846      -0.01559713      -0.00421847
C        8.84074624       1.22478687      11.10568860       0.00861323       0.00067748      -0.01734053
C       10.22680686       1.68558400      11.36067688       0.00885350      -0.00811231      -0.00371588
H        8.18324564       1.60047314      11.89432030       0.00288181       0.00262079      -0.02307016
H        8.49542871       1.65002596      10.16162338       0.02006187       0.00396173      -0.02008560
H        8.81008769       0.14116314      11.05055507       0.00326233       0.00083145      -0.01989790
H       11.29151934       3.23286708      11.52047592       0.01787782      -0.01848592       0.02073179
O       11.63173257       5.48154419       7.62727716       0.00142199       0.01861222      -0.00201434
O       11.14959873       4.27400965       5.79919560      -0.00754589       0.00747693       0.00710726
C        9.81398808       6.20678478       6.31596785      -0.01215875       0.00413018       0.00874466
C       10.90470117       5.20740860       6.52535335      -0.00576639       0.01081991       0.00540850
H        9.13450662       6.16567883       7.16594807      -0.00443142       0.00593986       0.01508546
H       10.24127460       7.20335764       6.25662179      -0.01733213       0.00582315      -0.00075868
H        9.28069201       5.97094615       5.39961177      -0.01943751      -0.00338666       0.01478563
H       12.37418677       4.85911354       7.63314310       0.00586316       0.02364147      -0.00527915
O        2.57790925       6.78568376       1.81872989      -0.00611556       0.00155908       0.00404921
O        4.76175285       6.99041733       2.27642359      -0.00272954      -0.01081002      -0.00531810
C        3.28059613       8.84296334       2.72260320       0.01202659       0.00281900      -0.01226035
C        3.65424712       7.47706814       2.25175684      -0.00005889      -0.00307113      -0.00467434
H        2.33776369       9.17240140       2.29587364       0.00918029       0.00416480      -0.00504754
H        3.13788069       8.76637378       3.80232015       0.02325214       0.01259696      -0.01017752
H        4.08316111       9.54977739       2.52847965       0.01356025      -0.00288679      -0.02649126
H        2.86410158       5.86957633       1.69135287      -0.01372632      -0.00182122       0.01065162
O        6.81562564       9.05254987       8.30468056       0.00742066       0.00262648       0.00385416
O        7.11761844       9.05983231      10.45278845       0.00401258       0.00262499       0.00459813
C        5.68430714      10.77252516       9.44505151       0.00472358       0.00194436       0.00197238
C        6.57852683       9.60313153       9.45861610       0.00496411       0.00228679       0.00342041
H        5.52391011      11.10606984       8.42559245       0.00667060       0.00221340       0.00165629
H        4.74336505      10.49939324       9.92597425       0.00368431       0.00129353      -0.00006050
H        6.13069257      11.56939963      10.03638969       0.00305609       0.00190687       0.00310814
H        7.47050247       8.34400670       8.42005270       0.00705439       0.00259304       0.00471601
O        0.10985692      10.12226398      -0.37210985      -0.00453922      -0.00133985       0.00041705
O        1.80925053       8.86175712      -1.16855882      -0.01918326       0.01269463      -0.00536592
C        2.25999146      10.98874341      -0.08758817      -0.00343490       0.00082460      -0.02155103
C        1.43836744       9.85709531      -0.61636928      -0.00540140      -0.02075827      -0.02281836
H        2.01702276      11.92619450      -0.61107823      -0.01173536      -0.00123052      -0.01820534
H        2.07899968      11.13410939       0.98823594       0.00786304      -0.00244566      -0.02068716
H        3.32599361      10.81593077      -0.20328629      -0.00600159      -0.00001166      -0.03482203
H       -0.43418781       9.34034552      -0.63696411      -0.00884345      -0.00648236       0.00787580
O        1.83547269       9.84537369       7.59457202      -0.00326455      -0.00003320      -0.02385752
O        1.39354992       7.69082732       7.10879646       0.00103724      -0.00409412      -0.01185882
C        3.53102246       8.28924761       8.03386693      -0.00640839       0.00375129       0.00229198
C        2.14639714       8.54007451       7.51947503      -0.00123560       0.00077647      -0.01128155
H        4.24132621       8.93134026       7.51550418      -0.00256239       0.00629942       0.01075456
H        3.56508532       8.52414845       9.09951988      -0.01887241       0.00264580       0.00310820
H        3.79067760       7.24848368       7.87882455      -0.00181033       0.00445232       0.00458909
H        0.94803162       9.99090516       7.22934148      -0.00033525      -0.00297932      -0.03209762
O       11.81419646       5.74364718      11.24243122       0.01597577       0.01788878       0.01776335
O       11.17274503       7.86030012      11.54862049      -0.00698602       0.01117778       0.02198951
C        9.55827976       6.26933012      10.74900824       0.01284826      -0.00260136       0.01039879
C       10.89678757       6.72868115      11.20509222       0.00655593       0.00735003       0.01700468
H        9.63159124       5.61359041       9.88083111       0.02195900       0.00038263       0.00913301
H        9.09505558       5.68315386      11.54636210       0.01436506      -0.00860189       0.00682759
H        8.93211964       7.13637756      10.56044644       0.00629000      -0.00744361       0.00977046
H       12.64777085       6.14287466      11.53840965       0.01139945       0.02431065       0.02286905
O        8.68102664       7.07201293       2.00643835       0.00341222      -0.00724185      -0.00075197
O        9.78484021       8.49848372       3.25661699       0.00453891      -0.01039129       0.00086537
C       10.97545171       6.64146359       2.21396389       0.00082982      -0.01808736       0.00992867
C        9.80020962       7.47264832       2.55623515       0.00307277      -0.01193486       0.00233844
H       10.64696312       5.66708424       1.86832178      -0.00265218      -0.00866351      -0.01247948
H       11.50699764       7.15678852       1.41039377       0.02352032      -0.00964198       0.03103456
H       11.66373425       6.54065950       3.04479264      -0.01657131      -0.03930522       0.02181110
H        7.95736761       7.69784028       2.19417581       0.00513160      -0.00463384      -0.00237384
O        7.64804407       3.63630103       6.33227612       0.01091135       0.00666041       0.01460421
O        8.79900572       4.01511332       8.22869717       0.00649393      -0.00314569       0.01916331
C        6.52426444       3.26210704       8.35380030       0.00161797       0.00871110       0.00945151
C        7.78187747       3.67595113       7.66079076       0.00684273       0.00341564       0.01532414
H        5.65842798       3.61396136       7.80002121       0.00600605       0.02286877       0.01133682
H        6.49822764       2.17134027       8.34930602      -0.00949326       0.00901407      -0.00194649
H        6.52669884       3.62332028       9.37851558       0.00313986      -0.00155797       0.01307921
H        8.51484219       3.71199387       5.89909712       0.01334625       0.00050637       0.01823633
O        3.13202635       3.57448614       8.53283685      -0.00704039       0.00252473      -0.00402178
O        3.76633653       2.85669473      10.56150878      -0.01236256      -0.00524449      -0.00412866
C        3.82462211       5.21780326      10.07326941      -0.00880010      -0.00290823       0.00277613
C        3.58405253       3.76722597       9.79658837      -0.00988394      -0.00057870      -0.00292248
H        4.64726315       5.56191627       9.44425300      -0.00991409      -0.00036601       0.00260842
H        2.95222831       5.81325260       9.80611791      -0.00927825      -0.00163245       0.00679061
H        4.08403801       5.36676088      11.11671432      -0.00701595      -0.00683879       0.00297645
H        3.06225694       2.61702440       8.40454281      -0.00829285       0.00314951      -0.00668613
O        1.75553350       4.81412650       5.88530596      -0.00990447       0.00914431      -0.00264761
O        1.09905894       4.85514395       3.73841073      -0.01111352       0.00271803      -0.00383365
C        1.28332625       2.73174549       4.85706704      -0.00516177       0.00811994      -0.00034779
C        1.33751730       4.22126454       4.73316961      -0.00814629       0.00744081      -0.00174588
H        2.29715721       2.32960393       4.77850147      -0.00328350       0.00816836       0.00366826
H        0.86689570       2.43839864       5.81805249      -0.01573494      -0.00379933       0.01286861
H        0.68518542       2.31290577       4.05447527      -0.00384989       0.00234329       0.00005212
H        1.83742837       5.77782204       5.73131229      -0.01194224       0.00843078      -0.00388652
O       11.45847344      11.25827152       8.37461574      -0.00037695      -0.01089203      -0.00798173
O        9.80165745      10.54891603       9.72242239       0.01051939      -0.00265333       0.01042581
C       11.17824266       8.94231832       8.57487597       0.00383395      -0.00782597       0.00426033
C       10.71036948      10.30874084       8.96328735       0.00940883      -0.00798744      -0.00024468
H       11.39288968       8.89600991       7.51078934      -0.00268242      -0.01186041       0.00371206
H       12.09844142       8.69991804       9.10830399       0.00688916      -0.00537249      -0.00096573
H       10.42846974       8.20272653       8.83464175       0.00592251      -0.00625367       0.01187231
H       10.99147588      12.10447377       8.45012612       0.01007190       0.00498158      -0.01665246
O        4.65151367       5.11286688       6.20128420      -0.01138663      -0.00070310       0.00089619
O        3.65258433       6.83557254       5.17860133      -0.00085640       0.00265050      -0.00370225
C        6.05608374       6.73357808       5.20780676      -0.00169414      -0.00780541       0.00283429
C        4.66859815       6.26104917       5.49846633      -0.00484920      -0.00120416      -0.00024828
H        6.55542416       6.98662340       6.14501524      -0.00267730      -0.00869013       0.00363719
H        6.64103830       5.93794452       4.74600207      -0.00396669      -0.01085450       0.00532794
H        6.01390233       7.60488954       4.56295365       0.00355884      -0.00835858       0.00169700
H        3.71874829       4.85472947       6.33461823      -0.01289487       0.00374825      -0.00061390
