146
Lattice="12.51596622285252 0.0 0.0 0.0 12.51596622285252 0.0 0.0 0.0 12.51596622285252" Properties=species:S:1:pos:R:3:forces:R:3 energy=-414494.34375 stress="-0.0012643818045035005 -4.384002568258438e-05 -1.7420769381715218e-05 -4.384002568258438e-05 3.3124735637102276e-05 0.0002667857479536906 -1.7420769381715218e-05 0.0002667857479536906 -0.0012819309486076236" pbc="T T T"
Ho      12.62055875      11.36335575       1.27480341      -0.00088429      -0.00797439       0.00977775
P       11.32276367       9.45466945       0.51566087       0.01292042       0.02134804      -0.00079599
O       12.00792291       9.39909196       1.96011595      -0.00851321      -0.00443840      -0.00715661
O       12.60884801       9.95935351      -0.31040461       0.00575757       0.00021318       0.00231361
O       10.56931465       8.30568635       0.00232870      -0.00811315      -0.00083756      -0.01924056
O       10.61836692      10.88491435       0.68034579       0.00666022       0.00265539      -0.00746726
C        5.26568282       3.37078822      11.66365992       0.00048275      -0.00166684       0.00181486
C        6.60028807       4.10346513      11.70774828       0.00016024      -0.00125176       0.00270709
C        4.06001979       4.29347989      11.79788579       0.00020751      -0.00267994       0.00536545
C        7.80601169       3.18278296      11.56362093       0.00045590       0.00018781      -0.00237193
C        2.73524797       3.54385000      11.84746413       0.00064018      -0.00322169       0.00541150
C        9.13080573       3.93189853      11.59696279       0.00004780       0.00066775      -0.00103344
H        5.19132691       2.81052179      10.72504994      -0.00004790       0.00099652       0.00030327
H        5.23765116       2.62053374      12.46004738       0.00108685      -0.00375170      -0.00044245
H        6.68068913       4.66229095      12.64794881       0.00118559      -0.00471418       0.00454572
H        6.62776609       4.85716636      10.91239140      -0.00141414       0.00160451       0.00551969
H        4.16898417       4.90200568      12.70234588       0.00122683      -0.00437295       0.00628188
H        4.05491353       5.00135452      10.96307143      -0.00080844      -0.00080399       0.00689748
H        7.78164797       2.43353156      12.36271458       0.00190970      -0.00299129      -0.00554475
H        7.71920910       2.62470837      10.62487151      -0.00028853       0.00403666      -0.00452611
H        2.59752729       2.92387314      10.95933927      -0.00035255       0.00044867       0.00326811
H        1.88627847       4.22636680      11.91055877       0.00103934      -0.00353412       0.00849234
H        2.69700822       2.88426763      12.71828414       0.00094412      -0.00551747       0.00376268
H        9.18904786       4.66384810      10.78907988      -0.00168188       0.00478496       0.00276072
H        9.25524583       4.47968092      12.53203595       0.00133667      -0.00402169       0.00154743
H        9.97901691       3.25373199      11.49351789       0.00010180       0.00181039      -0.00586595
C        5.00329144       8.33363825       3.37709132       0.00229836       0.00043020      -0.00252107
C        3.76867024       8.81649495       2.63491240       0.00304645       0.00758418       0.00118479
C        4.87750487       6.95493243       4.01048066      -0.00060210      -0.00116235      -0.00643146
C        3.97817344      10.20714368       2.04274576       0.00863290       0.00699371       0.00261000
C        6.13725687       6.57192906       4.77320406      -0.00437394      -0.00300276      -0.00073710
C        2.65919041      10.82177024       1.59552932       0.01146141       0.01751778       0.01085119
H        5.86092091       8.34446808       2.69783510       0.00130004      -0.00006130      -0.00367904
H        5.23939562       9.05808868       4.16612095       0.00592518      -0.00328071      -0.00048074
H        2.91462749       8.83556816       3.31893511       0.00496235       0.01028123       0.00322199
H        3.49801728       8.11314127       1.83978848      -0.00263763       0.00994158       0.00118315
H        4.01926470       6.94732944       4.69002507      -0.00370777      -0.00288923      -0.01044855
H        4.65910049       6.20971853       3.23751142       0.00348115       0.00040799      -0.00891310
H        4.44372442      10.85611063       2.79107138       0.01894917       0.00248486      -0.00100648
H        4.67321868      10.15737336       1.20114410       0.00225241       0.00248529      -0.00219992
H        6.99174540       6.47918275       4.10261306      -0.00097755      -0.00299703       0.00351277
H        6.02408369       5.62875500       5.30960386      -0.00782379      -0.00348419      -0.00231618
H        6.38757004       7.34116610       5.50592118      -0.00773624      -0.00397335       0.00139657
H        2.14449596      10.15546968       0.88467260       0.00372273       0.01350744       0.02029440
H        2.03375239      10.91363229       2.50577500       0.01999737       0.03879668       0.01268479
H        2.78590871      11.81292251       1.13107852       0.01855042       0.00922179      -0.00180474
C        3.19971989       2.64640163       3.47590689      -0.00102322      -0.00621783      -0.00380898
C        4.63579289       2.94028207       3.89713085      -0.00279458      -0.00691782       0.00154513
C        2.22032168       2.58523091       4.64032123      -0.00597511      -0.00763265      -0.00840682
C        5.59195494       2.99895196       2.71183917       0.00113228      -0.00722351       0.00484478
C        0.79872282       2.24135719       4.22068325      -0.00310647      -0.00913890      -0.01674512
C        7.03852727       3.28489382       3.08853538       0.00019217      -0.01090952       0.01033543
H        2.86870454       3.41143351       2.76304571       0.00159610      -0.00565591      -0.00423017
H        3.17603968       1.69166559       2.93175834       0.00074822      -0.00544775      -0.00473367
H        4.97612441       2.17522835       4.60506432      -0.00560538      -0.00716335       0.00239787
H        4.66506546       3.89217693       4.43957659      -0.00462638      -0.00709561       0.00170192
H        2.57413002       1.85339263       5.37175472      -0.00958830      -0.00808179      -0.00726011
H        2.21899764       3.55039778       5.15588224      -0.00888638      -0.00822964      -0.00728847
H        5.53625301       2.04962179       2.16762915       0.00126090      -0.00633037       0.00344712
H        5.23849047       3.76509001       2.01429701       0.00508855      -0.00559932       0.00476967
H        0.40879300       2.96262491       3.50041736      -0.00102749      -0.00869265      -0.01698466
H        0.11907201       2.21784186       5.07299727      -0.00744416      -0.00987314      -0.02038564
H        0.76704193       1.24464678       3.75170415       0.00026074      -0.00961079      -0.01701799
H        7.12820966       4.24147603       3.60296066       0.00062181      -0.01184379       0.01176019
H        7.43458299       2.51358951       3.75217405      -0.00389311      -0.01260215       0.01061738
H        7.67871302       3.32839547       2.20574553       0.00340238      -0.01151543       0.01280297
C        8.48672584       9.96375141       4.38217086       0.00022992       0.00054780       0.00139922
C        9.20587711       8.63061149       4.20644552       0.00239629       0.00181541       0.00238866
C        8.60567903      10.54011290       5.78679954      -0.00044030       0.00379997       0.00013155
C        8.95416504       8.00339131       2.84343294       0.00334564       0.00052238       0.00261250
C        7.84344938      11.84491242       5.97232336       0.00050700       0.00515756      -0.00551510
C        9.65989161       6.67309050       2.63702663       0.00690848       0.00254425       0.00286022
H        8.86997125      10.67933402       3.64739720      -0.00203991       0.00041604       0.00047562
H        7.42546181       9.83187133       4.14332713       0.00048354      -0.00132765       0.00175880
H        8.88856796       7.94159808       4.99999202       0.00300930       0.00188957       0.00265521
H       10.28446781       8.77526841       4.33391012       0.00200695       0.00336058       0.00222083
H        8.23227176       9.80266402       6.50348195      -0.00244166       0.00635818       0.00154342
H        9.66206818      10.68820166       6.03449483      -0.00075662       0.00363828       0.00104927
H        7.87723392       7.87279312       2.70215542       0.00371417      -0.00277159       0.00383744
H        9.27308032       8.69323110       2.06233948       0.00090666       0.00109926       0.00232181
H        8.20748407      12.61509027       5.28901857       0.00303017       0.00271598      -0.00691779
H        7.93893172      12.22734964       6.99013297      -0.00161447       0.00826789      -0.00653735
H        6.77828609      11.70453456       5.76986146       0.00092438       0.00584789      -0.00771453
H       10.73983769       6.79499574       2.72661505       0.00668493       0.00577904      -0.00100129
H        9.33550401       5.92679385       3.36977525       0.01171233       0.00302159       0.00478451
H        9.46771951       6.29009897       1.63538894       0.00443745      -0.00034910       0.00433293
C        1.99789741       9.64983598       7.43640651       0.00121650      -0.00273137       0.00168592
C        1.91544471       9.00045505       6.06015013      -0.00194374       0.00239988      -0.00045621
C        2.98280318      10.80831934       7.53360481      -0.00025347      -0.00170071       0.00371215
C        0.92358204       7.84092259       6.01532674      -0.00234172       0.00292598      -0.00246668
C        3.05564197      11.39056263       8.94060333       0.00483282      -0.00800727       0.00581670
C        0.81353862       7.15785569       4.65833025      -0.00367364       0.00531277      -0.00345585
H        1.00482037      10.00335385       7.72704296       0.00179595      -0.00554638       0.00629378
H        2.26769854       8.88813795       8.17698093       0.00458852      -0.00531724      -0.00248359
H        2.91132760       8.64754683       5.76457381      -0.00277439       0.00297575      -0.00382398
H        1.62333179       9.75289339       5.31574142      -0.00316386       0.00492471       0.00272642
H        3.97768372      10.46906661       7.22694094      -0.00122610       0.00167122      -0.00294063
H        2.69519678      11.59155481       6.82262217      -0.00479984       0.00138378       0.00892229
H        1.20846921       7.10897559       6.78001752      -0.00228319       0.00150865      -0.00405937
H       -0.06145711       8.21351609       6.31356037      -0.00200573       0.00271237      -0.00125065
H        2.08640629      11.77770181       9.26306674       0.00549975      -0.01158003       0.01086634
H        3.78072473      12.20287466       9.00146688       0.00313376      -0.00673969       0.00569011
H        3.34738233      10.62308729       9.66048665       0.00959495      -0.00950564       0.00118820
H        0.48869757       7.85189182       3.88014235      -0.00476830       0.00603732      -0.00215656
H        1.77180768       6.73203589       4.35017040      -0.00407988       0.00582088      -0.00518353
H        0.08787115       6.34227097       4.68991036      -0.00354013       0.00519629      -0.00376961
C       10.74210925       7.28421929       8.80870728      -0.00164759      -0.00154920       0.00116584
C        9.92224117       6.26530000       8.02828166      -0.00137073      -0.00510612       0.00576310
C       10.02548747       8.62723518       8.90968138      -0.00590008      -0.00427219       0.00557351
C       10.59896347       4.91924417       7.80708651       0.00194860      -0.00326157       0.00469148
C       10.91177520       9.75535973       9.40688201      -0.00419208       0.00342700      -0.01674648
C        9.71760225       3.96060389       7.01517634       0.00477844      -0.00512856       0.00392912
H       10.95612279       6.91773312       9.81738871       0.00559040      -0.00080094      -0.00010076
H       11.70988066       7.42221042       8.31590748      -0.00512666       0.00172197      -0.00407954
H        9.66664605       6.69244795       7.04973947      -0.00576837      -0.00720540       0.00600231
H        8.96682275       6.10522197       8.54078418       0.00066671      -0.00749393       0.00860287
H        9.62137689       8.88271837       7.92469808      -0.02249326      -0.01175271       0.01104274
H        9.17240289       8.51687454       9.58529060       0.00594875      -0.00377070       0.01990998
H       11.54551616       5.07470913       7.27766130       0.00140974      -0.00053628       0.00481939
H       10.85841659       4.47597617       8.77349712       0.00312153      -0.00336888       0.00427699
H       11.39600876       9.48888106      10.34307255       0.01739793       0.01151363      -0.02608770
H       10.33960953      10.66845411       9.57910418      -0.00653841      -0.00011398      -0.00873697
H       11.69696487       9.98227377       8.68378705      -0.02237907       0.00559226      -0.03472912
H        8.76958072       3.78917896       7.53126265       0.00494030      -0.00807778       0.00322281
H        9.48201451       4.37258369       6.03088663       0.00410019      -0.00511946       0.00408602
H       10.19295468       2.98967096       6.86549752       0.00740570      -0.00366977       0.00343221
C        4.75462001       4.66922846       8.11880248      -0.00225502       0.00420341       0.00034049
C        4.73900850       6.19131522       8.16612635      -0.00414056       0.00414380      -0.00075742
C        3.36245143       4.05183575       8.07871319      -0.00134164       0.00259265      -0.00334997
C        6.12069502       6.80654995       8.34422487      -0.00567657       0.00598425       0.00402329
C        3.38943923       2.53059068       8.10094914       0.00018631       0.00263351      -0.00512828
C        6.10481013       8.32713917       8.30044986      -0.00740884       0.00582695       0.00308284
H        5.32562019       4.33455388       7.24425763       0.00064895       0.00432869       0.00239152
H        5.29639383       4.28530475       8.99008816      -0.00453891       0.00546475       0.00220382
H        4.08907163       6.52248761       8.98494863      -0.00750329       0.00381903      -0.00341454
H        4.28200555       6.57883197       7.24711365      -0.00115524       0.00295914      -0.00260934
H        2.78136304       4.42131713       8.92993853      -0.00359175       0.00104763      -0.00430033
H        2.83901505       4.40458066       7.18414900       0.00022829       0.00291720      -0.00411505
H        6.54406379       6.47236311       9.29688417      -0.00916412       0.00711486       0.00583762
H        6.78978069       6.42143570       7.57032086      -0.00212950       0.00632957       0.00697374
H        3.97348948       2.13399951       7.26777822       0.00071043       0.00436651      -0.00551465
H        2.38813968       2.10015793       8.04167744       0.00064990       0.00192875      -0.00616030
H        3.84918143       2.16469985       9.02067198       0.00013456       0.00183385      -0.00549959
H        5.69903732       8.68512495       7.35080191      -0.00046144       0.00482602      -0.00003457
H        5.47810022       8.73562166       9.09623393      -0.01397459       0.00533755      -0.00214222
H        7.10578643       8.74267165       8.41599697      -0.00903472       0.00724489       0.01050800
