139
Lattice="13.04304962488961 0.0 0.0 0.0 13.04304962488961 0.0 0.0 0.0 13.04304962488961" Properties=species:S:1:pos:R:3:forces:R:3 energy=-603354.1875 stress="0.0006056162528693676 -0.0006053383985999972 0.0004948716959916055 -0.0006053383985999972 0.0003177155158482492 9.507402410235954e-06 0.0004948716959916055 9.507402410235954e-06 0.00014923751587048173" pbc="T T T"
Ir      11.69199414      12.54127185       0.53234409       0.00403792       0.00352681       0.02091998
F       12.54024270      13.72305184      12.38889858       0.02031212       0.01230285       0.04201050
F       12.19829892      13.34057950       6.12898276       0.02683139      -0.01427707      -0.02804744
F        5.89869638      13.94849932       9.67886116      -0.01779279      -0.02239370       0.02427077
O        4.01476467       9.62408794       9.40401473       0.01171890       0.01320691       0.00850573
O        4.93141081       7.69519782       9.15094828       0.00247366       0.00851908       0.00915365
O        5.56007254       9.36467411       7.75725393      -0.01410472      -0.00385708      -0.01056182
C        3.92077607      11.05318289       9.14895901       0.00761402       0.01133074      -0.00358951
C        2.53489422      11.48056132       9.56279829       0.00729996       0.01196568      -0.00450204
C        4.90236380       8.94499917       8.68032501       0.00061500       0.00661582      -0.00131202
C        5.87359898       6.82767446       8.49964974      -0.01189616      -0.00027131       0.00019746
H        4.69193596      11.55643174       9.73472245       0.00751054       0.01830551      -0.00925034
H        4.13709834      11.24612907       8.10040576       0.00457986       0.00226184      -0.00545925
H        2.47969003      12.56827048       9.55058314       0.00535425       0.01162390      -0.01506758
H        1.76478700      11.08611022       8.89620755       0.00648847       0.00425475       0.00089720
H        2.31721660      11.14743975      10.57798563       0.01018364       0.02162977      -0.00078776
H        5.73730768       6.84850581       7.42095025      -0.02539735      -0.00352565       0.00195268
H        5.66130714       5.83301920       8.87143720      -0.01342724       0.00246966       0.00709297
H        6.88853290       7.14079929       8.74712692      -0.00661653      -0.00651869      -0.01386283
O        4.91734384       3.40530849      11.18383544      -0.00489151      -0.00536191      -0.00294063
O        2.76897415       3.21429419      11.21649283      -0.00455269      -0.00678058       0.00091805
O        4.01208317       1.61551012      12.24347886      -0.00242357       0.00586534       0.01533294
C        6.21107262       2.82106655      11.25201140      -0.00408414      -0.00557953       0.00010550
C        7.17765558       3.81174539      10.68630691      -0.00666556      -0.00799663      -0.00901502
C        3.91646323       2.63448579      11.60726588      -0.00316439      -0.00346446       0.00664091
C        1.59701893       2.41995979      11.44640684      -0.00335939      -0.00328779       0.01821053
H        6.41654198       2.45660961      12.26372415      -0.00244004       0.00675532       0.00396394
H        6.13636873       1.70966188      10.42944335      -0.00909641      -0.01082897       0.01460320
H        8.18667069       3.39795041      10.72194710      -0.00560084      -0.00568250      -0.00827867
H        6.93549385       4.00208124       9.63750777      -0.00960386      -0.01500275      -0.00941122
H        7.17910227       4.78037748      11.20366689      -0.00730797      -0.00502020      -0.01469764
H        1.57286176       1.58277693      10.74967442      -0.00394570      -0.01745701       0.03575495
H        0.75501863       3.07744247      11.25684417      -0.00436893      -0.00778303       0.00667582
H        1.57026470       2.03296882      12.46041453      -0.00143027       0.01693247       0.02563950
O        8.80586972       5.53427673       6.85207302      -0.00233013      -0.00700867       0.00174323
O        7.89708713       6.80860484       5.36501775      -0.00607286      -0.00555857       0.00459567
O        9.05656380       7.77466101       7.05494659      -0.00149208      -0.01104748      -0.00181669
C        9.63710417       5.35267299       8.02078055      -0.00015009      -0.00602657       0.00090533
C        9.83645634       3.87370958       8.21694945      -0.00103927      -0.00638467       0.00112680
C        8.63107804       6.80174564       6.48292712       0.00009969       0.00011945       0.00550902
C        7.50939832       8.12203514       4.91585329      -0.00252877      -0.00355984       0.00503066
H       10.57832353       5.87997332       7.85818476      -0.00049660      -0.00671360      -0.00168069
H        9.13344675       5.82106534       8.86982750       0.00126150      -0.00524883       0.00128138
H       10.37569564       3.70590056       9.14985720       0.00048719      -0.00571826       0.00056399
H        8.87768042       3.36179468       8.28159608      -0.00098345      -0.00557319       0.00344366
H       10.40280398       3.44512666       7.39499191      -0.00203332      -0.00698344       0.00091189
H        6.98173244       8.64706866       5.70824417      -0.00346512      -0.00331974       0.00388837
H        6.86332548       7.95067325       4.05996674      -0.00200193      -0.00194076       0.00405115
H        8.38167120       8.69846894       4.61568696      -0.00037241      -0.00587006       0.00773397
O        7.49347601       5.78244569       0.72729299      -0.00080967      -0.00148821      -0.00063779
O        5.77844060       7.09734133       0.69066603       0.00362696       0.00440152      -0.00337900
O        7.79304632       7.96412948       1.25781079       0.00531012      -0.00319737      -0.00017107
C        8.91748484       5.58195189       0.88842400      -0.00187850      -0.00648266       0.00392928
C        9.19820932       4.10915325       0.76252327      -0.00598209      -0.00684470      -0.00211859
C        7.09322642       7.04011672       0.92441479       0.00396222       0.00080222      -0.00080279
C        5.22231516       8.41974130       0.78059402       0.00727952       0.00598671      -0.00239790
H        9.42912104       6.16774333       0.12006863       0.00296000      -0.00428039       0.00883102
H        9.21357457       5.98065783       1.86031837      -0.00448193      -0.01216175       0.00708947
H       10.26744200       3.93004296       0.86241174      -0.00713646      -0.01088255       0.00415828
H        8.69655868       3.54672612       1.54768486      -0.01316758      -0.00919037      -0.00853816
H        8.86332542       3.73187581      -0.20121808      -0.00089297      -0.00035438      -0.00634687
H        5.35567263       8.82014527       1.78593027       0.00280500       0.00229357      -0.00035587
H        4.16913370       8.30272314       0.54705146       0.00829244       0.00980166      -0.00856963
H        5.70977899       9.07743862       0.06418022       0.01323120       0.00694026       0.00246838
O        2.06575344       8.21522611       2.73704309       0.00156873       0.00292400      -0.00420649
O        2.55573765       6.46207962       1.57068007       0.00563394       0.00364788      -0.00471579
O        3.32914740       6.59484931       3.69606268       0.00270581       0.00586799      -0.00633317
C        2.13743510       8.97496994       3.96985027      -0.00281209       0.00137305      -0.00280514
C        1.27181816      10.19607891       3.79901358      -0.00543067      -0.00017750      -0.00436841
C        2.71579334       7.04400763       2.76192741       0.00560683       0.00273585      -0.00154614
C        3.15358954       5.15451855       1.45431312       0.00777306       0.00421437      -0.00314528
H        1.79878668       8.34139286       4.79096286      -0.00339885      -0.00045580      -0.00449130
H        3.18274367       9.22866162       4.15668376      -0.00383908       0.00385830      -0.00022638
H        1.32829193      10.82540992       4.68695888      -0.01245598      -0.00056840      -0.00354347
H        1.59463652      10.78665433       2.94112610      -0.00290523       0.00188452      -0.00182825
H        0.22608939       9.92342434       3.65286728      -0.00369370      -0.00300090      -0.01044624
H        4.23201306       5.22547730       1.56719492       0.00743654       0.00578737      -0.00176017
H        2.89669093       4.81532840       0.45553436       0.00961562       0.00344815      -0.00349647
H        2.74277444       4.48492047       2.20882878       0.00751136       0.00412002      -0.00351778
O        9.41747497      10.68821314       0.79159417      -0.00486627       0.01038992      -0.00872564
O        7.35322415      11.28339488       0.55422196      -0.00570667       0.00597960      -0.00553790
O        8.66176861      12.53702010       1.90462427      -0.00478129       0.01824737      -0.01631805
C       10.75266112      10.93615880       0.85857783      -0.00594041       0.00530010       0.00018717
C       11.50473786       9.64202354       0.76692885      -0.00984983       0.00295934      -0.00410124
C        8.47341540      11.62505587       1.15138228      -0.00717101       0.00987458      -0.01195884
C        6.22241493      12.11865868       0.90155562      -0.00679706       0.00518173      -0.00732636
H       10.51006223      13.45963784       0.83857182      -0.00162451       0.00217088      -0.00269002
H       11.08347614      11.67939095       1.88503974      -0.00857249      -0.00285898       0.01013124
H       12.54964673       9.76984742       1.05132799      -0.00412676       0.00107829      -0.02785137
H       11.04228595       8.88719048       1.40303680       0.00333101       0.00981250       0.01283482
H       11.46910246       9.28317860      -0.26290250      -0.03510171      -0.00552960       0.00064933
H        6.01804341      12.02375944       1.96746805      -0.00495211       0.00923219      -0.00617015
H        5.39922432      11.74910982       0.30076458      -0.00806345       0.00146459      -0.00365415
H        6.42836022      13.15530463       0.64946877      -0.00956227       0.00503632      -0.01200191
O       11.52501372       3.96314975       3.15336785      -0.00027904       0.00423161      -0.00353965
O       10.81913564       1.97673701       3.66108473       0.00302339       0.00504786      -0.00334775
O       10.49575109       3.65597257       5.14152832       0.02008295       0.00237888       0.01543963
C       11.66014558       5.34951994       3.51626523       0.00638521       0.00311561      -0.00299835
C       12.32302335       6.05065785       2.36169379       0.00389221       0.00348105      -0.00405657
C       10.90868353       3.22549422       4.09353803       0.01461047      -0.00287342      -0.01141369
C       10.31064915       1.03387832       4.59518232       0.01299238       0.00012702      -0.00247967
H       10.67101430       5.75294144       3.74623432       0.00834388       0.00647648       0.00192787
H       12.25728050       5.41561332       4.42793370       0.01015660       0.00022397      -0.00458393
H       12.50305091       7.09670896       2.60937971       0.00823092       0.00229281      -0.00362520
H       13.28238091       5.59146030       2.13316466       0.00159687       0.00048772      -0.00840356
H       11.70555102       6.00912930       1.46474366       0.00023399       0.00622065      -0.00174037
H       11.37857111       0.58088416       5.49680899       0.01894832      -0.00482956      -0.01695412
H        9.93974130       0.20158190       4.00436938       0.00239614       0.00484759      -0.00279771
H        9.56798892       1.50019123       5.24393544       0.01957294      -0.00172162       0.00728470
O        5.29362909       3.15553088       5.15563706      -0.00594576      -0.00617954       0.00208789
O        3.93012452       2.16551000       6.51125362      -0.00511515      -0.00861540       0.00014864
O        4.96826827       4.05247316       7.20662237       0.00275406      -0.01363850       0.00899363
C        6.19307092       4.25641813       4.87940298      -0.00490111      -0.00717992       0.00342417
C        6.93859706       3.92811231       3.61596948      -0.00496972      -0.00616100       0.00300327
C        4.75264566       3.20430901       6.37598737      -0.00318950      -0.01288551       0.00169307
C        3.36534433       2.03376819       7.83045011      -0.00264204      -0.01603013       0.00068552
H        5.60022339       5.16786986       4.78283380      -0.00363135      -0.00623542       0.00462611
H        6.87017909       4.37507130       5.72139879      -0.00466123      -0.00879720       0.00389034
H        7.64718157       4.73176776       3.41339031      -0.00442746      -0.00657409       0.00338609
H        7.49553719       2.99692451       3.72840581      -0.00578251      -0.00690736       0.00177529
H        6.26873163       3.83466521       2.76069069      -0.00536728      -0.00492785       0.00305511
H        4.15161045       1.76448647       8.53768320      -0.00424123      -0.03516044      -0.00475487
H        2.62819905       1.24145429       7.74101248      -0.01477081      -0.00367260      -0.00596353
H        2.88958088       2.96651356       8.12853148       0.01237884      -0.01266211       0.01352235
O        7.66177122      11.22750000       5.70722936       0.00487947       0.00422636       0.00266586
O        5.70537089      11.43541588       4.79828319       0.00723524       0.00467579      -0.00186539
O        6.04923603      12.34879449       6.84203028       0.00384027       0.01085865      -0.00202858
C        8.55837475      11.38663088       6.84422106       0.00407922       0.00948769       0.00258401
C        9.91903554      10.90153301       6.41819428       0.00372845       0.00364244       0.00810964
C        6.44415956      11.72999572       5.89322492       0.00638258       0.00490081      -0.00357819
C        4.35308686      11.89569289       4.90143423       0.00764060       0.00748914      -0.00687559
H        8.55538190      12.43714623       7.13582159       0.00613201       0.01169533      -0.00442521
H        8.14854828      10.79756407       7.66606407       0.00150943       0.01654884       0.00647974
H       10.64163125      11.07507394       7.21765707       0.00368958       0.00822747       0.00716886
H        9.89424839       9.83582417       6.20068627       0.00167364       0.00208083       0.01584812
H       10.27124129      11.44859228       5.54564342       0.00581753      -0.00350814       0.00424622
H        3.81990318      11.31726103       5.65758576       0.00536765       0.01294559      -0.00440994
H        3.91024084      11.72958047       3.92263347       0.00905031       0.00264992      -0.00670445
H        4.31805229      12.94974918       5.16965654       0.00891734       0.00921577      -0.01304539
