139
Lattice="13.057651760452847 0.0 0.0 0.0 13.057651760452847 0.0 0.0 0.0 13.057651760452847" Properties=species:S:1:pos:R:3:forces:R:3 energy=-809431.25 stress="0.00016937089094426483 -0.0004248617187840864 -0.00012543056800495833 -0.0004248617187840864 -0.00015786550648044795 0.00018245321552967653 -0.00012543056800495833 0.00018245321552967653 1.2049573342665099e-05" pbc="T T T"
Ir      11.74865427      12.60503099       0.49039464      -0.00091648       0.00457209       0.00544599
Br      11.80311983      13.00763748      11.25780213       0.00935830       0.00201821       0.00545387
Br      12.58319488      13.73501709       8.68253897       0.01269342      -0.00819522       0.00257301
Br       6.91300368      14.59190815       8.32029004       0.00860986       0.03122798      -0.03673136
O        4.00996395       9.39750761       9.51413494       0.01498979       0.00665268       0.00860378
O        4.96581687       7.48772628       9.21202018       0.00754301       0.00011349       0.01021007
O        5.62830648       9.22804278       7.93062964      -0.03059375      -0.02295041      -0.00987089
C        3.85942615      10.81521818       9.23037363       0.01121920       0.00426757      -0.00517857
C        2.49374798      11.21655340       9.72179649       0.01167244       0.00292359      -0.00317883
C        4.93736324       8.75813857       8.80177236       0.01592964       0.00708714      -0.02422088
C        5.94277398       6.68103975       8.53210303      -0.00693523      -0.00948420      -0.00188586
H        4.65802693      11.35294867       9.74497342       0.01018339       0.00923505      -0.01063374
H        3.99870991      10.97977692       8.16357444       0.00791653      -0.00492915      -0.00554681
H        2.34585803      12.28754177       9.58731606       0.00807553       0.00171721      -0.01122944
H        1.70662182      10.70262565       9.17040728       0.01059403      -0.00293045       0.00281779
H        2.37799253      10.98755857      10.78182246       0.01515606       0.01156183      -0.00112854
H        5.85080155       6.79762773       7.45539575      -0.02221962      -0.01420301       0.00060400
H        5.72249822       5.65713167       8.80106108      -0.01115941      -0.00533691       0.00818841
H        6.94210384       6.97801396       8.85147783      -0.00180173      -0.01509641      -0.01627381
O        5.02202164       3.56266425      11.29544766      -0.00377816      -0.00576168       0.00208268
O        2.88644869       3.26661235      11.27486320      -0.00270012      -0.00975317       0.00730653
O        4.20765406       1.56177519      11.97888535       0.00266461      -0.01170826      -0.00526369
C        6.37241266       3.06895672      11.47685086      -0.00197089      -0.00112846       0.00234389
C        7.28604449       4.06297897      10.81527708      -0.00572675      -0.00224769      -0.00430125
C        4.06220294       2.68112889      11.55195247      -0.00069979      -0.00843608      -0.00064334
C        1.74605537       2.39584867      11.34489336      -0.00124438      -0.01161382       0.00974854
H        6.55492671       2.96844776      12.55069480      -0.00081841       0.00644439       0.00246847
H        6.45412110       2.09581793      10.98998769      -0.00006263      -0.00399405       0.00890419
H        8.31682877       3.71517814      10.88626070      -0.00434013       0.00326112      -0.00068448
H        7.04386125       4.11204616       9.75549911      -0.00450569      -0.01153722      -0.00483865
H        7.20142137       5.05008106      11.27065036      -0.01002080       0.00066462      -0.01150937
H        1.76816618       1.67179381      10.53300623       0.00073040      -0.01458985       0.01262581
H        0.88132108       3.04049329      11.22242427      -0.00257872      -0.01369926       0.00784427
H        1.71421282       1.87880023      12.30261278       0.00007565      -0.00842141       0.01184565
O        8.83429931       5.57848571       6.85008730      -0.00059292      -0.00251609       0.00461813
O        7.89782179       6.83506584       5.36300660      -0.00451694      -0.00342787       0.00661471
O        9.12588832       7.82081629       6.99071576       0.00048518      -0.00126314       0.00319856
C        9.68246817       5.40514599       8.01603181       0.00281083      -0.00119060       0.00182548
C        9.88834145       3.93365236       8.23633032       0.00640914      -0.00071084       0.00137820
C        8.66934305       6.83691065       6.46258326      -0.00266689      -0.00473499       0.00304163
C        7.50451311       8.14537910       4.91891814      -0.00417159      -0.00322640       0.00613816
H       10.61750531       5.93724720       7.83196401       0.00099713       0.00102010      -0.00072981
H        9.18413694       5.88932043       8.85965591       0.00415954      -0.00244823       0.00391740
H       10.45666475       3.78729623       9.15593324       0.00755343       0.00022621       0.00071885
H        8.93982373       3.39883788       8.32833996       0.00659761      -0.00250043      -0.00074227
H       10.44511450       3.48988539       7.41666616       0.00817494       0.00111049       0.00140527
H        6.99981598       8.67478645       5.72466395      -0.00295310      -0.00258006       0.00636545
H        6.83235750       7.97429046       4.08299074      -0.00527020      -0.00346419       0.00752062
H        8.36775287       8.72063566       4.59082659      -0.00372404      -0.00451709       0.00431650
O        7.51589362       5.77444954       0.79593978       0.00273322      -0.00006187       0.00018138
O        5.80704550       7.09614441       0.73003064       0.00699754       0.00513870      -0.00227444
O        7.83168543       7.97249576       1.24561194       0.00876689      -0.00135648       0.00280967
C        8.94358246       5.57880997       0.92173715       0.00157481      -0.00505728       0.00486666
C        9.22904443       4.10460574       0.82087241      -0.00285705      -0.00560820       0.00023452
C        7.12359402       7.04163326       0.95352591       0.00617790       0.00069702       0.00043309
C        5.25526420       8.42299775       0.77521962       0.00998813       0.00634104       0.00032771
H        9.43033684       6.14749492       0.12534016       0.00650701      -0.00360906       0.00905067
H        9.26488467       6.00005142       1.87565811      -0.00085870      -0.00988129       0.00779638
H       10.30401343       3.93649487       0.85682767      -0.00364628      -0.00921042       0.00510533
H        8.78305631       3.55725262       1.64865906      -0.00891769      -0.00730928      -0.00418702
H        8.84463172       3.69828384      -0.11000154       0.00052865      -0.00034307      -0.00333095
H        5.37768988       8.85070776       1.77040250       0.00504994       0.00148929       0.00281540
H        4.20450593       8.30259784       0.53239756       0.01109579       0.00983183      -0.00623216
H        5.75332958       9.06007320       0.04768832       0.01574323       0.00830036       0.00614503
O        2.07081335       8.21711966       2.69944904       0.00677636       0.00013919      -0.00118649
O        2.55178475       6.45247571       1.54472408       0.00851356       0.00186092      -0.00291186
O        3.36541279       6.61997205       3.65256912       0.00893402       0.00054324      -0.00241232
C        2.18115983       8.98942682       3.91777157       0.00495073      -0.00098139      -0.00011179
C        1.29530824      10.19781952       3.76473859      -0.00078776      -0.00509667       0.00263947
C        2.73095034       7.04955931       2.72420861       0.00755560       0.00132889      -0.00310653
C        3.15987611       5.14843586       1.43922262       0.00980489       0.00274554      -0.00433993
H        1.88125310       8.36433635       4.75984164       0.00861731      -0.00378209      -0.00064504
H        3.22860026       9.25985353       4.06074440       0.00372040       0.00346830      -0.00081729
H        1.39900734      10.84542833       4.63513869      -0.00355258      -0.00601760       0.00376187
H        1.56760963      10.77068806       2.87809363      -0.00428104      -0.00215871       0.00341190
H        0.24814423       9.90587066       3.68360460       0.00076118      -0.01016632       0.00208687
H        4.23736490       5.23083999       1.55215480       0.00977087       0.00366318      -0.00366426
H        2.90724006       4.79633569       0.44399308       0.01056635       0.00343185      -0.00471547
H        2.75486965       4.48712101       2.20438776       0.01040618       0.00140344      -0.00499320
O        9.44470567      10.86011618       0.55106959      -0.00457707       0.00917248      -0.00762068
O        7.35519904      11.39061733       0.45031985      -0.00455417       0.01032004      -0.00566972
O        8.63126524      12.36086011       2.04417626      -0.00470172       0.00111026      -0.00228989
C       10.76851511      11.00349531       1.09697041      -0.00501359       0.00387740      -0.00447752
C       11.49684294       9.71968612       0.76977287      -0.00715460       0.00412717      -0.01065336
C        8.48789942      11.61453385       1.10805226      -0.00415068       0.00850987      -0.00196159
C        6.22938667      12.13864095       0.94660702      -0.00463284       0.00797728      -0.00185823
H       10.67694457      13.58193954       0.99511417      -0.00050604       0.00617829       0.00427077
H       10.67383463      11.16839399       2.18235016      -0.00633268      -0.00154881      -0.00397941
H       12.50195621       9.72527042       1.19398033      -0.00805363      -0.00013944      -0.00793099
H       10.94458909       8.87559886       1.18867982      -0.01028630       0.00317001      -0.01735006
H       11.57825887       9.58181327      -0.30750005      -0.00400010       0.01044070      -0.01105529
H        6.11491632      11.97191795       2.01664277      -0.00227498       0.00634764      -0.00238064
H        5.37306435      11.77260966       0.38864881      -0.00547162       0.00724228      -0.00038838
H        6.36504483      13.19981385       0.74723351      -0.00700276       0.00824580      -0.00022271
O       11.50200150       3.97344043       3.14164547      -0.00139377       0.00400037      -0.00197729
O       10.67923300       2.00890205       3.56551581      -0.00555958       0.00627008       0.00133837
O       10.45518506       3.64183731       5.11473181       0.01069230       0.00533426       0.00436985
C       11.69096151       5.34418330       3.54782894       0.00617874       0.00270253      -0.00120103
C       12.33481884       6.06549191       2.39538896       0.00561675       0.00087465      -0.00279167
C       10.84108337       3.23680493       4.05059911       0.00186020       0.00506717       0.00171387
C       10.04660135       1.09585039       4.49221667      -0.00186311       0.00678732       0.00473605
H       10.72125164       5.76524537       3.82238175       0.00928801       0.00676928       0.00236884
H       12.31789094       5.36123442       4.44142831       0.00935543      -0.00109206      -0.00340933
H       12.53819200       7.10108370       2.66757580       0.00923400       0.00020565      -0.00311831
H       13.27922086       5.59864374       2.12378193       0.00352675      -0.00183931      -0.00533332
H       11.68974830       6.06382773       1.51735349       0.00306648       0.00299781      -0.00096230
H       10.70867424       0.91642409       5.33776002       0.00587761       0.00007580      -0.00290000
H        9.86589765       0.19390596       3.91856203      -0.01266524       0.00967923       0.00387892
H        9.10876679       1.50806802       4.85726573       0.00491217       0.01138234       0.01602207
O        5.27748206       3.14561064       5.16600930      -0.01482832      -0.00149474      -0.00367618
O        3.85577076       2.19845934       6.50108483      -0.01420563      -0.00539315      -0.00610356
O        4.69933275       4.21968093       7.06905329      -0.00966033      -0.01138401       0.00064135
C        6.19848192       4.23041133       4.92083670      -0.00693199      -0.00559032       0.00443947
C        6.95752574       3.90835703       3.66337054      -0.00699258      -0.00567415       0.00424147
C        4.62782526       3.27274331       6.32795366      -0.01167203      -0.00277650       0.00013131
C        3.23996814       2.14666361       7.79804593      -0.00960723      -0.01330878      -0.00449947
H        5.62997906       5.15704402       4.82882724      -0.00309858      -0.00155628       0.00448167
H        6.86340145       4.31654604       5.77803361      -0.01167220      -0.01385585       0.00528485
H        7.67665746       4.70653621       3.47661428      -0.00128151      -0.00921902       0.00887941
H        7.50276908       2.97010854       3.76884971      -0.01200087      -0.00989199       0.00218119
H        6.29543604       3.83067257       2.80016543      -0.00485747       0.00063528       0.00286166
H        4.02635599       2.09627481       8.55251545      -0.00707674      -0.02551551      -0.00812295
H        2.63402681       1.24601420       7.79811176      -0.01614784      -0.00893071      -0.01020231
H        2.61629331       3.02479309       7.95842607      -0.00266626      -0.01087594       0.00667460
O        7.68544276      11.35227156       5.58134917      -0.00292391       0.00625516       0.00672522
O        5.76735810      11.60474816       4.59082544       0.00145832       0.01050438       0.00160658
O        5.87941260      11.93195229       6.82728783      -0.00904220       0.00980729       0.01095104
C        8.48314315      11.31431766       6.80240140      -0.00410473       0.00570179       0.00650194
C        9.88903998      10.94597948       6.40932351      -0.00408500       0.00359504       0.00898588
C        6.40643596      11.65906228       5.78745924       0.00350031       0.00498077      -0.00677133
C        4.38333331      11.94702827       4.70601653       0.00279848       0.01457876      -0.00562760
H        8.41286853      12.29328371       7.28090933      -0.00308983       0.00647080       0.00574613
H        8.03926658      10.56994155       7.46440206      -0.00558394       0.00667530       0.00713149
H       10.52618827      10.98875018       7.29286550      -0.00434823       0.00452761       0.00888775
H        9.93246495       9.93418496       6.01070037      -0.00487130       0.00277731       0.01049361
H       10.29019759      11.64210931       5.67419008      -0.00298046       0.00181307       0.00766446
H        3.88213176      11.26014102       5.38952862      -0.00288264       0.01653734      -0.00695288
H        3.97342367      11.85438616       3.70250308       0.00661538       0.01555182      -0.00698188
H        4.26767529      12.96335319       5.07985547       0.00355436       0.01555771      -0.00701129
