142
Lattice="12.111188681302515 0.0 0.0 0.0 12.111188681302515 0.0 0.0 0.0 12.111188681302515" Properties=species:S:1:pos:R:3:forces:R:3 energy=-799252.4375 stress="-0.0016821804456412792 -0.0001381091569783166 0.00035161268897354603 -0.0001381091569783166 0.0006699161604046822 -1.4839559298707172e-05 0.00035161268897354603 -1.4839559298707172e-05 -0.001861147815361619" pbc="T T T"
Ir      11.28046567      11.54275107       0.37354612       0.01631314      -0.01491166      -0.03385650
Br       7.92725915      10.92488294       9.62206023      -0.00412884       0.01776612      -0.00463084
O        7.74302823      12.15461543       8.59631925      -0.00498995       0.01099145      -0.01326692
O        8.78653669      11.45354595      10.92759581       0.00203884       0.02569348      -0.01249260
O        6.50279522      10.33268529      10.10489398      -0.00416279       0.02523649       0.00440511
O        8.81804527       9.73900070       8.95781759      -0.00970399       0.01114380       0.00052667
Br      10.98145871      11.43292558       2.93823181       0.00244069       0.00482941      -0.02434769
O       11.89650467      12.67401787       3.52593755      -0.01349086       0.01399946      -0.01740050
O       11.59526927      13.19548789       0.11753838       0.00974759       0.01823494      -0.01489414
O       11.25022609       9.90350349      -0.05788097       0.01114801       0.01762480      -0.01851563
O       11.69671518       9.98575824       3.30729477       0.00777888       0.01126671      -0.01418728
Br       6.16655898      10.49703553       4.96019722      -0.00599455      -0.00504904       0.00192948
O        7.38093993       9.77768213       4.17453805      -0.00527585      -0.00318676       0.00218767
O        6.34079739      12.10928479       4.90687523      -0.00764243      -0.00480163       0.00372353
O        4.74737957      10.10523513       4.25700818      -0.00489521      -0.00651661       0.00102592
O        6.14756050       9.99574657       6.50357956      -0.00625386      -0.00448571       0.00194097
O        8.36107973      12.88933840       1.03356429       0.00479448       0.00242215       0.00559720
C        7.92015950      11.79333598       1.82246727       0.00290167      -0.00178260      -0.00108773
C        6.54721285      11.31793252       1.42545825       0.00109768       0.00310013      -0.00144228
H        8.62627706      10.95756769       1.71952116       0.00097644      -0.00237113      -0.00661842
H        7.94487607      12.12533383       2.86089869       0.00447009      -0.00784215       0.00076580
H        6.26217585      10.45397582       2.02099370       0.00169126      -0.00037375      -0.00591242
H        5.80817674      12.10669384       1.57121863       0.00242466       0.00284757       0.00557397
H        6.52969034      11.01822396       0.37729090      -0.00192430       0.00970362      -0.00321504
H        8.47046497      12.53219182       0.12832427       0.00325284       0.00879197       0.00304481
O        2.58449638       2.32628462       8.73191744       0.01557419      -0.00538456      -0.00918528
C        3.12216104       3.45810603       9.40124338       0.00831220      -0.00433192      -0.00507718
C        3.10053807       3.33692511      10.91102528       0.00365741      -0.00824495      -0.00584108
H        4.15006263       3.63342547       9.05727625       0.00868469      -0.00052062      -0.00161980
H        2.52322506       4.31070354       9.07074406       0.00633356      -0.00586620      -0.00525807
H        3.45474546       4.26572404      11.36409732       0.00595880      -0.01103899      -0.00254466
H        2.09264725       3.14364333      11.27971345       0.00222632      -0.00590380      -0.00860569
H        3.76028723       2.53756683      11.25229924       0.00002256      -0.01133591      -0.00643003
H        2.88944423       1.49845089       9.14510669      -0.00192101      -0.00455417       0.00580220
O        1.42175046       2.64426911       2.45656835       0.00433052       0.00010943      -0.00731564
C        2.59447723       1.92907827       2.10473174       0.00363755      -0.00453782      -0.00041680
C        3.07687266       1.00530380       3.20605630      -0.00564285      -0.00526911       0.00288528
H        2.43073904       1.35725407       1.18010763       0.00642984      -0.00481775      -0.00070477
H        3.35822300       2.67723424       1.88450178       0.00757861      -0.00776953       0.00290235
H        3.99933666       0.50603121       2.91103838      -0.00610477      -0.00908747       0.00819812
H        3.27680829       1.57042885       4.11620058      -0.00812712      -0.00503013       0.00329165
H        2.33237746       0.24169633       3.43134169      -0.00976023      -0.00209481      -0.00018852
H        0.75296275       1.99308833       2.71297199       0.00073764       0.00277381      -0.01007540
O        6.02959451       2.44963997       3.18730867       0.00169337      -0.01974738       0.01234704
C        6.36799076       3.48715825       4.09166442       0.00713111      -0.01761019       0.00733358
C        5.71013706       3.32187110       5.44754059       0.00647882      -0.00715636       0.00829780
H        7.45868917       3.54878437       4.21345887       0.00745946      -0.02282828       0.00720876
H        6.05103078       4.41953877       3.61786482       0.01192650      -0.01821876       0.00317550
H        6.02073080       4.12260317       6.11985505       0.00756379      -0.00263801       0.00241722
H        4.62349406       3.34554782       5.35593956       0.00664002      -0.00573690       0.00727805
H        5.99311985       2.36632198       5.89278262       0.00420816      -0.00432789       0.01557477
H        6.11219381       1.60713785       3.65394028      -0.00074426      -0.01849979       0.01522097
O       12.23199724       1.14571402       8.20830709       0.02898830      -0.00503021       0.02234727
C       11.10877891       1.88454417       8.69095665       0.01689038      -0.00919473      -0.00019515
C       11.50837120       3.25196072       9.20118120      -0.00112778      -0.00417590       0.00182816
H       10.37466342       1.98011733       7.88148504       0.02963412      -0.01529114      -0.01264811
H       10.62635701       1.30227522       9.48195739       0.00742999      -0.00874510      -0.00549865
H       10.64816437       3.79414673       9.59194721      -0.01356123      -0.01071176      -0.01631720
H       12.23687227       3.15218773      10.00629215      -0.01490425       0.00562857       0.01586239
H       11.94868243       3.85520540       8.40421546       0.00741344      -0.00311339       0.00702739
H       13.01241072       1.72309595       8.27119017       0.02239382       0.00588689       0.01343117
O        6.18626280       2.08941359      11.81371240       0.00294000       0.00906026       0.01042513
C        6.78127017       3.32900919      11.48391864       0.00296175       0.00723124       0.00453913
C        8.15229638       3.17158704      10.85035143       0.00131261       0.00471401       0.00174913
H        6.09642148       3.81920501      10.78530093       0.00177264       0.00495952       0.00414112
H        6.84844638       3.97243673      12.37171216       0.00531844       0.01076192       0.00162345
H        8.55733955       4.14600701      10.57278516       0.00062274       0.00376293      -0.00223559
H        8.84877298       2.70819260      11.55092923       0.00299101       0.00687651       0.00151925
H        8.09093266       2.54041609       9.96209482      -0.00087836       0.00193614       0.00401729
H        6.78043085       1.65723209      12.44957352       0.00303888       0.01055700       0.01111288
O       11.57075410       6.14972758       6.07235344       0.01319492       0.00770599       0.00252432
C       10.43809789       5.41042665       5.66448146       0.01785403       0.00269604      -0.00042127
C        9.28047667       5.48224601       6.64132611       0.01200658       0.00428949      -0.00743300
H       10.09823560       5.73657589       4.67169330       0.02317992      -0.00315076      -0.00409192
H       10.77579044       4.37534808       5.55963522       0.02143395       0.00312006       0.00592550
H        8.44993529       4.86328918       6.29303940       0.01674145      -0.00169251      -0.00784911
H        9.59421803       5.14078798       7.62649724       0.00778302       0.01232455      -0.00337532
H        8.91255182       6.50281050       6.74304113       0.00702468       0.00326520      -0.01608153
H       11.33542228       7.09369193       6.11240399       0.01124437       0.00766078      -0.00668156
O        4.00447966       7.62904797       3.02162122       0.00607675      -0.00919542       0.00294694
C        2.72113700       7.07506949       3.31087972       0.00389159      -0.00351751       0.00345457
C        2.48719689       5.93825215       2.34592286      -0.00297382      -0.00021476       0.00151160
H        2.68815127       6.70727906       4.34102751       0.00362044      -0.00540063       0.00269473
H        1.93873998       7.83681966       3.21337424       0.00755006       0.00041538       0.00602990
H        1.56238637       5.41032850       2.57343835      -0.00560370       0.00452755       0.00088384
H        2.44307073       6.30832892       1.32049376      -0.00172943       0.00202540       0.00245407
H        3.30319865       5.21807345       2.41621895      -0.00732188      -0.00504841      -0.00040315
H        4.20256380       8.38486056       3.59726851       0.00790243      -0.00879985       0.00176675
O        2.45938139      11.82589210       9.53214650      -0.03891939       0.00521851       0.02895688
C        3.12804312      10.56968267       9.36589374      -0.02518122       0.01578087       0.00293527
C        2.14420207       9.42309479       9.27672046      -0.01474750       0.00564814      -0.00289945
H        3.77614522      10.59741980       8.48222005      -0.03312248       0.03465530      -0.00343204
H        3.78789535      10.45542629      10.22489240      -0.01757699       0.00925965      -0.00380850
H        2.66771571       8.47027308       9.35156714      -0.01043560       0.00785848      -0.00136888
H        1.41933339       9.47168135      10.08853070      -0.01959874      -0.00100061      -0.00671540
H        1.59956354       9.43880215       8.33040414      -0.01091132       0.00143277      -0.00504959
H        1.63423137      11.83233625       9.02731492      -0.02565812       0.01632151       0.00586011
O        4.22700774       8.83549622       0.51913181       0.00201967      -0.01326537       0.00201029
C        3.73194863      10.10016985       0.92495439       0.00280219      -0.01194346      -0.00136524
C        2.22401599      10.16349085       0.95190305       0.00313628      -0.01107370      -0.00210517
H        4.12093269      10.37062883       1.90971483       0.00317675      -0.00936612      -0.00228596
H        4.12054320      10.83427489       0.21469347       0.00324702      -0.01421982      -0.00341868
H        1.90266261      11.18539630       1.16549310       0.00415677      -0.00936961      -0.00774385
H        1.81373378       9.86713430      -0.01008843       0.00369304      -0.01599906      -0.00061195
H        1.79644700       9.51948346       1.72113814       0.00169232      -0.00607106       0.00115237
H        4.19104123       8.26730253       1.30746056       0.00262319      -0.01085466       0.00376436
O        6.08931148       7.15081517       6.04607833      -0.00216973       0.00090879       0.00295004
C        4.80815562       6.66838660       6.39948619       0.00091386      -0.00351328       0.00696185
C        3.80836483       7.76480368       6.69202125      -0.00259805      -0.00704789       0.00798334
H        4.46513316       6.04712044       5.56703703       0.00130057      -0.00597724       0.00870216
H        4.88817018       6.00821535       7.27614731       0.00574124      -0.00199854       0.00761408
H        2.83195590       7.34136012       6.93186255      -0.00037281      -0.01062931       0.01045965
H        4.14481606       8.36606306       7.53647930      -0.00319964      -0.00468394       0.00653124
H        3.69922205       8.43884680       5.84246826      -0.00706551      -0.00868793       0.00733706
H        6.18614302       8.05766213       6.37416206      -0.00404194       0.00094183       0.00341713
O        9.48449194       7.00993058       9.57026949      -0.01459897       0.01020875      -0.00088325
C        8.08037694       6.83303182       9.65328196      -0.01392919       0.00721355      -0.00290090
C        7.57054140       6.99175960      11.07193822      -0.01701610       0.00544220      -0.00379157
H        7.56826897       7.53413925       8.98654542      -0.01473859       0.00626177      -0.00333780
H        7.88081015       5.82330977       9.28294592      -0.01107940       0.00691688      -0.00379077
H        6.49362327       6.81817664      11.12773014      -0.01626389       0.00075915      -0.00563631
H        8.08558572       6.29749791      11.73531373      -0.01521647       0.00778072      -0.00270440
H        7.76262229       8.00204912      11.43421047      -0.02235033       0.00641105      -0.00389009
H        9.63882298       7.96004305       9.63034353      -0.01624267       0.01043391       0.00223986
O        9.94654411       7.42136962       1.44152789      -0.00453174       0.00491124       0.00517637
C        9.14149444       7.61703119       2.59535499      -0.00255603       0.00663938       0.00573197
C        8.05192494       6.57527479       2.75304213      -0.00409400       0.00875098       0.00816493
H        9.76241627       7.66057403       3.49779990      -0.00154293       0.00597454       0.00516224
H        8.69517988       8.60363470       2.47555737      -0.00084189       0.00731617       0.00591081
H        7.48598757       6.75896185       3.66840933      -0.00368614       0.01190969       0.00767550
H        7.36379500       6.60688553       1.90874406      -0.00423735       0.00780454       0.00823209
H        8.47822854       5.56977990       2.80888961      -0.00574473       0.00827222       0.01079118
H       10.42124894       6.59124495       1.53773505      -0.01041961       0.00140713       0.00182411
O       11.10134796       8.91528944       5.81835104       0.00656649       0.00171894      -0.01281127
C       11.04112325      10.12624165       6.57698894       0.00095239      -0.00423676      -0.00383005
C        9.78682679      10.92559060       6.29915887       0.00109339      -0.00444397      -0.00401103
H       11.05583073       9.83551555       7.62776632      -0.00297801      -0.01253557      -0.00612444
H       11.93173436      10.73211529       6.37829071       0.00098598      -0.00150234       0.00451909
H        9.78653107      11.83968480       6.89207756      -0.00272439      -0.00825803       0.00185205
H        9.70431230      11.20547206       5.24801993       0.00650791       0.00214739      -0.00272910
H        8.90177577      10.35416011       6.56667555       0.00072747      -0.00675309      -0.01012526
H       11.26460715       9.17641831       4.89626156       0.00704316       0.00833866      -0.01065224
