150
Lattice="16.41507419389323 0.0 0.0 0.0 16.41507419389323 0.0 0.0 0.0 16.41507419389323" Properties=species:S:1:pos:R:3:forces:R:3 energy=-1601595.625 stress="-0.0008731389534659684 2.8778576051990967e-05 0.00023016355407889932 2.8778576051990967e-05 -4.462628567125648e-06 0.00010945458780042827 0.00023016355407889932 0.00010945458780042827 -0.0005357376066967845" pbc="T T T"
Ir      17.19377427      17.07587420       0.75345905      -0.00510528      -0.00069398       0.00336258
O        9.07415118      15.07797606       7.13072089       0.00396430       0.00261486       0.00271297
N        8.10833726      13.67831112       5.44199582      -0.00571352       0.00155282       0.00954819
C        8.57491947      14.38482477       6.30058630      -0.00103993       0.00212406       0.00628194
O        5.93160839      15.76043433       3.57709973      -0.00515807       0.00625968      -0.02954602
N        4.91613327      13.74319784       2.77319047      -0.00675976       0.00088096      -0.01456442
C        5.45243371      14.73002769       3.17086546      -0.00801268       0.00047654      -0.02277283
O        2.84948649      16.44413167       8.47943741       0.02352834       0.02101064      -0.00809240
N        3.81461745      17.95088375       6.88966503       0.03127050       0.02072453       0.00199270
C        3.32476965      17.21081195       7.69541970       0.00997502      -0.00797293       0.02600664
Cl      10.01939260      10.42634487       6.37612443       0.00490278      -0.00044249       0.00444153
Cl      12.89438651      10.87652855       6.19846544       0.00472891      -0.00157270       0.00024536
Cl      11.18956502      12.81582579       7.55878680       0.00539236       0.00568873      -0.00922503
C       11.42766779      11.11499168       7.18578193       0.00544617       0.00394329      -0.00039305
H       11.57296143      10.57327996       8.11229176       0.00584832       0.00901696       0.00235876
Cl      12.43500512      10.02352167      12.97234634       0.00159475       0.00292008      -0.00251470
Cl      13.96500154       9.98124542      15.45624735       0.00546014       0.00877669      -0.00494637
Cl      12.91623514       7.49352929      14.36068119      -0.00805782       0.00826371       0.00927597
C       13.55878077       9.09769641      13.97649282      -0.00104194       0.00318062       0.00052562
H       14.46856663       8.96240794      13.40415921      -0.00261381      -0.00382483      -0.00010408
Cl       0.40141222       7.87465272       0.69187104      -0.00165336      -0.00484813      -0.00324304
Cl       2.75437156       6.24528395       1.28466414       0.00132265       0.00085053      -0.00153953
Cl       2.95522519       9.15569384       1.28878145      -0.00000633       0.00097266      -0.02384514
C        1.91748371       7.78095080       1.61552547       0.00232541       0.00298477      -0.00933601
H        1.65431397       7.77594015       2.66579642       0.00710663       0.01054155      -0.00821128
Cl       8.07136507       5.80554680       8.19313150       0.00258903       0.00312445      -0.00330889
Cl      10.01459225       6.17418818       6.05579433      -0.00500986      -0.00261819      -0.01091591
Cl       9.67675097       3.55041000       7.27653672       0.00299117       0.00218043       0.00016865
C        8.86704499       5.05022042       6.81235819      -0.00108626      -0.00094901      -0.00295905
H        8.11312775       4.80371177       6.07472086      -0.00306788      -0.00517650       0.00067237
Cl       1.30677946      10.66408664       8.23705464      -0.00103611      -0.00571774      -0.00041276
Cl       3.84514776       9.39811381       8.90071373       0.00101089       0.00201908       0.00446421
Cl       3.30963742      12.15523955       9.73211956      -0.00587648       0.00436032      -0.00586595
C        2.62553257      10.56591855       9.42293280      -0.00116050       0.00188541       0.00005748
H        2.20086753      10.19214404      10.34663838      -0.00013065       0.00394858       0.00125685
Cl       9.14123258       0.90561588       4.72635798       0.00537121       0.01173761       0.00890499
Cl       6.57624706       2.05762495       5.50139053      -0.00690919      -0.00429413      -0.00703365
Cl       8.16698109       3.29921458       3.36935824      -0.01091540      -0.00488037      -0.01053561
C        7.70632933       1.76418949       4.18927055      -0.00067672      -0.00323769      -0.00122559
H        7.19997378       1.14594799       3.46134480       0.00681233      -0.01270169       0.00165612
Cl      11.22965801      13.95498192      15.11479213      -0.00032784      -0.00449782      -0.00209387
Cl      11.15124635      14.35406660      12.22811203       0.00183532      -0.00669427      -0.00229430
Cl      12.85721004      16.05214161      13.88910369       0.00278547      -0.00754049      -0.00272603
C       12.15322408      14.43597214      13.67551204       0.00094106      -0.00663390      -0.00189999
H       12.97097010      13.73362904      13.56334444      -0.00004719      -0.00769921      -0.00099890
Cl      13.01649860       7.51784724       4.13937880       0.00323676      -0.00250795      -0.00421810
Cl      10.66388521       8.72432020       2.91832763      -0.00895274      -0.00823998       0.01405646
Cl      13.26577180      10.02924614       2.66165548      -0.01429531       0.00017375      -0.00055651
C       12.40280206       8.48314903       2.78831775      -0.00898712      -0.00234196       0.00200231
H       12.60648575       7.93486160       1.87657163      -0.01340523       0.00019343      -0.00049177
Cl       5.53029923       4.41592669      -0.60797320       0.01030246       0.00894839      -0.00907493
Cl       8.10283119       5.62526993       0.03680809       0.00416389       0.01209179       0.00694438
Cl       5.88553657       7.30185609      -0.85100172       0.00186309       0.01076779       0.01020393
C        6.35600681       5.84688896       0.03856104       0.00367615       0.00727955       0.00287881
H        6.03545887       5.97506590       1.06536915      -0.00000679      -0.00051808       0.00261214
Cl      15.19846258       1.34610088       3.63549559       0.00849064       0.00626743      -0.00134665
Cl      14.46584694       3.62574990       1.98001330      -0.03542457      -0.00965749      -0.00439447
Cl      14.91666340       0.94664065       0.70819845      -0.00622696      -0.00734633       0.00244066
C       14.34749245       1.90260187       2.23291291      -0.00974701      -0.01010796       0.00317657
H       13.30606638       1.60652125       2.27609968      -0.00492436      -0.02548954       0.01214993
Cl       6.97001146       8.65276984       5.70636623      -0.00101954       0.01173770       0.00759673
Cl       6.58478738       9.44449569       2.92225685      -0.00480327       0.00266212       0.00520551
Cl       7.10046166       6.64819758       3.59079054      -0.00158685       0.00576439       0.01387143
C        6.35997039       8.17469396       4.12722953      -0.00241801       0.00664652       0.00978384
H        5.29703543       7.98939361       4.22030958      -0.00193498       0.00555351       0.01164275
Cl      10.44053822       5.05621621      13.21583845       0.00553921      -0.00372082      -0.00334507
Cl       7.71694325       4.04553860      12.90675051       0.00490713      -0.00080027      -0.00304168
Cl       9.68998349       3.59562071      10.80413967       0.00590365      -0.00925641       0.00018620
C        9.42107584       3.76834305      12.53708155       0.00461445      -0.00420421      -0.00069059
H        9.71383414       2.84267039      13.01730582       0.00295490      -0.00318974       0.00213540
Cl       3.62971291      13.35347140      -0.80201046       0.00539163       0.00538987      -0.01619813
Cl       5.42409966      11.18031091      -0.04982630      -0.00241970      -0.00006622      -0.01113816
Cl       6.50417162      13.83670497      -0.62959119       0.00566894      -0.00178969      -0.00290814
C        5.14094777      12.93258325       0.04221014       0.00067683       0.00049160      -0.01043785
H        5.03627666      13.21099889       1.11517781      -0.00327307      -0.00074704      -0.01038593
Cl      -0.59897989       3.27291826      14.84337699       0.00635701      -0.00798825       0.00210441
Cl       1.23400873       2.90637385      17.21685200      -0.02106968       0.00157639       0.02166337
Cl       2.13936794       4.19128939      14.67663973       0.01923215      -0.04303514       0.01433889
C        0.74777444       3.95617444      15.68930115       0.00728495      -0.01281974       0.00548378
H        0.47376420       4.88633223      16.18030442       0.01339702      -0.00281180      -0.01036453
Cl       7.84816214       9.21585444       9.43211034      -0.00260371      -0.00105991       0.00569466
Cl      10.52347410       8.21815893      10.04233019      -0.00138673      -0.00188303      -0.00111394
Cl       9.88907042      11.03857451      10.43776499       0.00371663       0.00034636      -0.00932806
C        9.25862424       9.38353409      10.47284675       0.00184178       0.00104897      -0.00078297
H        8.94998298       9.17027838      11.48939783       0.00571761       0.00544854       0.00118944
Cl       2.71383707       3.62319647      10.30323163      -0.00560582      -0.00090522       0.00735739
Cl       0.08132554       4.73709206      10.89825449      -0.00623608      -0.01330131       0.02630795
Cl       0.34018767       1.93212919      10.13458766      -0.00175455      -0.00513113      -0.00191480
C        1.10719436       3.28052612      10.95781765      -0.00259245      -0.01161756       0.00865184
H        1.22530163       3.02100478      12.00221161       0.00135535      -0.02193888       0.00569353
Cl       4.91265621      14.25474691       7.25683128      -0.01996696       0.00464302      -0.01705164
Cl       6.48588443      11.87211347       7.88735418      -0.01522729       0.01781207       0.02324617
Cl       4.44655123      11.77148165       5.80071672       0.01900125      -0.00667399      -0.01017469
C        5.64698946      12.78861103       6.61282361      -0.00074047       0.00521748       0.00411147
H        6.43982943      13.08524194       5.90154050       0.01050180       0.00561514       0.01468909
Cl       8.73812482       9.74396441      16.49439557       0.00422323      -0.00038565      -0.00042123
Cl       9.19117459       8.34424809      13.98530355       0.00154953      -0.00564629       0.00176431
Cl       8.56975768      11.20029379      13.96893695      -0.00067747      -0.00686568      -0.00377426
C        9.35192446       9.88663899      14.85155931       0.00144868      -0.00404809      -0.00160223
H       10.40992960      10.11094786      14.90582283       0.00135264      -0.00295433      -0.00343934
Cl      10.55394886      13.66661855       3.87576773      -0.01383209      -0.00228475       0.00037760
Cl      11.83055680      15.99807073       2.70831771      -0.02350190      -0.01377663      -0.03315951
Cl      13.46169123      13.92720524       3.99410425      -0.01466310       0.00811215      -0.00758773
C       11.97829317      14.25190454       3.06546072      -0.01709406      -0.00867397      -0.00935956
H       12.09047902      13.75674874       2.10996290      -0.01723414      -0.02091260      -0.00302622
Cl      -0.05321006      12.96202646       5.30271798      -0.01024871       0.01214790       0.00709242
Cl       0.76835832      15.62520289       6.15089921       0.04228309      -0.00443426       0.00711745
Cl       2.18451611      14.26878016       3.97445948      -0.00759411      -0.01339288      -0.01754296
C        0.64040002      14.52263605       4.79105551       0.00592169       0.00416853       0.00398135
H       -0.05537143      14.95480959       4.07986540       0.00232014       0.01630840       0.01473871
Cl       2.34515469       1.59736025       3.62367645       0.01321849      -0.00237745       0.00625960
Cl       3.04287131       0.27751048       1.01888899      -0.00414288       0.00705963      -0.00442579
Cl       4.74562418       2.39335593       2.17831239      -0.00893556       0.01995122      -0.01891130
C        3.68269027       1.11065303       2.65996958       0.00549272       0.01046351      -0.01077658
H        4.25583859       0.30312586       3.11798373       0.01793459       0.01399156      -0.01954558
Cl      14.50091614       5.74080255       7.39310697      -0.00488210       0.00832564      -0.00392248
Cl      13.25839805       3.46237350       6.07039147       0.01870040      -0.01035169       0.00510475
Cl      13.17237054       3.68451580       8.97902105       0.00614148       0.00617579       0.00251251
C       13.16980758       4.56055548       7.45206017       0.00467454      -0.00240082      -0.00214498
H       12.24252350       5.11639130       7.37730570       0.00075805      -0.01013552      -0.00874111
Cl       5.61347606      -0.08531203      10.70433793      -0.00267980      -0.01452497       0.00809747
Cl       3.04375890       0.08919659      12.07768554      -0.00388950       0.01846588       0.00103914
Cl       5.50135573       0.76606267      13.50433164      -0.00101995       0.00306851       0.00250149
C        4.67451048       0.76021468      11.92902709       0.00285026       0.00178541       0.00033079
H        4.56919848       1.79088064      11.61702944       0.01354498       0.00100905      -0.00567529
Cl       0.09971158       6.55928883       4.36373644       0.00688643       0.00415114      -0.00889644
Cl       2.22437024       8.01761035       5.73838892       0.00362188       0.00453991      -0.00396446
Cl      -0.05206817       9.45645036       4.63815508       0.00241297       0.00319496      -0.00250345
C        0.50021660       7.95117385       5.38403852       0.00415690       0.00229369      -0.00580435
H       -0.03142976       7.83296327       6.32120123       0.00376087      -0.00064314      -0.00655296
Cl       1.72537063       4.47455431       6.71885239      -0.00702661       0.01656651       0.01395162
Cl       3.80010639       4.79315692       4.68681273      -0.00882053       0.00143065       0.01036295
Cl       4.43122530       5.29880355       7.48198474      -0.00248498       0.00717425       0.00805551
C        3.45497237       4.32509019       6.36682214      -0.00806417       0.00762856       0.01226471
H        3.70614303       3.25107653       6.51395419      -0.00967188       0.00773352       0.01445214
Cl      14.29163916      13.74887119       0.32464916      -0.00193800       0.00508764       0.00069958
Cl      16.50489225      12.10761381       1.25437004      -0.00525806       0.00829336       0.01210274
Cl      17.07300082      14.81716712       0.36358248      -0.00173572       0.00121704      -0.00857317
C       15.80104492      13.69000604       1.20089097      -0.00102076       0.00970545      -0.00025249
H       15.66954883      14.10104573       2.19555371       0.00107024       0.01856659      -0.00362939
Cl       2.69065294       7.23080222      11.89682033      -0.00500312       0.00127365       0.00588864
Cl       5.44922900       6.81691841      11.02944427      -0.00850958      -0.01567781       0.00323099
Cl       4.75142427       9.17678114      12.61368827       0.00691111      -0.00978276       0.00052868
C        4.40257217       7.47231042      12.28996796      -0.00322974      -0.00814788       0.00369187
H        4.60561969       6.92312326      13.20097571      -0.00558966      -0.00791822       0.00435436
Cl      15.80569922       9.85549835      11.20549202       0.00608721      -0.00579301       0.00575157
Cl      14.26202977       7.40858969      10.85280746       0.00117907      -0.00268021       0.00705482
Cl      14.39723516       9.36768257       8.69599263       0.00206138      -0.00254166       0.00758328
C       15.25504630       8.62602170      10.04254641       0.00225979      -0.00422305       0.00636561
H       16.14277684       8.13733908       9.65698874       0.00094378      -0.00588542       0.00518712
