146
Lattice="12.564751723332385 0.0 0.0 0.0 12.564751723332385 0.0 0.0 0.0 12.564751723332385" Properties=species:S:1:pos:R:3:forces:R:3 energy=-730317.4375 stress="-0.0025966260582208633 -0.0006817365938331932 -0.0009842462022788823 -0.0006817365938331932 -0.0022918281611055136 -0.0010389320668764412 -0.0009842462022788823 -0.0010389320668764412 -0.002055665710940957" pbc="T T T"
Ir      13.15364576      10.42557757       0.68209034      -0.00246185      -0.00639164      -0.00837353
P       11.29588448       8.39851340       0.54324441       0.00811177      -0.00892061      -0.03358036
O       12.82841984       8.59080882      -0.03809647       0.00888824       0.00053301      -0.02594429
O       11.15263432       7.13617042       1.31874528       0.01940775      -0.02397311      -0.03822410
O       11.47194815       9.71009509       1.48987802       0.00133732      -0.02166730      -0.01698732
O       10.33555952       8.65173375      -0.57578992       0.01202476      -0.01047112      -0.02302313
S        7.87228906      11.73678186       8.83517229      -0.00853661       0.00823915       0.00393653
O        7.95922053      12.28555832      10.22150382      -0.00970418       0.02044463      -0.00114226
C        9.15241338      12.58472396       7.89240186      -0.00926027       0.00199151      -0.00227198
C        6.46376421      12.55833776       8.06481386      -0.00869334      -0.00222504      -0.00537121
H       10.11293504      12.21610474       8.24798182      -0.01000912       0.01274306       0.00902463
H        9.06507937      13.66262509       8.04054363      -0.01552713       0.00320050      -0.01816016
H        9.03416285      12.32732920       6.84217199       0.00002033      -0.01333125       0.00084100
H        6.29194018      12.14289287       7.07303008       0.00033969      -0.00808627      -0.00419925
H        6.64051720      13.63362479       8.02984625      -0.01428728      -0.00171000      -0.00954998
H        5.61262378      12.34403183       8.70875877      -0.01153743      -0.00373331      -0.01005337
S        5.91475511       2.48846853      10.58433255       0.00898570      -0.00547642       0.00918758
O        5.10411479       1.60215862      11.47058133       0.01372468      -0.00293326       0.01545703
C        7.56017163       2.61232652      11.30196869       0.00757504       0.01081504       0.00858980
C        5.42952680       4.19325032      10.94874499      -0.00173956      -0.00634158      -0.00259978
H        7.98486154       1.61564095      11.20626891       0.01564499       0.01433623       0.01318103
H        7.47457591       2.91906607      12.34512112       0.00503431       0.01511292       0.00673103
H        8.14492304       3.32348426      10.71824892       0.00178386       0.01253022       0.00540105
H        6.09579484       4.86396658      10.40750252      -0.00673492      -0.00574648      -0.00750262
H        5.50209346       4.36727840      12.02282208      -0.00257451       0.00151658      -0.00409183
H        4.40427206       4.32927248      10.61078848      -0.00261576      -0.01542573      -0.00265608
S       12.08429096      11.48298098      11.67166376      -0.00315890       0.00021529      -0.00298786
O       12.70520540      12.78595843      11.35354711      -0.00688040       0.00447083       0.00519085
C       12.04162007      10.46951637      10.22287529       0.00346412       0.01140943      -0.00994122
C       10.36581898      11.70536332      12.01783445      -0.00413930      -0.00768974      -0.00340888
H       13.06325976      10.18538117       9.97842974       0.00497362       0.01644751      -0.00800751
H       11.58482413      11.04216379       9.41911168       0.00487743       0.01669632      -0.00652657
H       11.44438127       9.59947099      10.50944642       0.00563060       0.00778839      -0.01826450
H        9.91802997      10.71797558      12.16080547      -0.00010489      -0.00969037      -0.00653258
H        9.90027652      12.22899065      11.18386723      -0.00712891      -0.00622566      -0.00056812
H       10.31711604      12.29926707      12.92595038      -0.00665025      -0.01146091      -0.00122212
S        9.90931456       8.73071037       8.26900998      -0.00657964      -0.00129294       0.00824976
O        8.72827973       7.95231119       8.73677176      -0.00543344      -0.00801587      -0.00082451
C        9.82927238       8.77607872       6.46454947      -0.00069882       0.00438051       0.00837982
C       11.33901271       7.65405703       8.44432018      -0.00372326       0.00369006       0.00892967
H        8.91907835       9.31791275       6.21237181      -0.00207138       0.00111636       0.00718212
H        9.76798779       7.76855065       6.06073180       0.00433469       0.00526375       0.00606678
H       10.70740896       9.29213254       6.07538731      -0.00203930       0.00878335       0.01184047
H       12.22471793       8.08951122       7.97782515      -0.00428551       0.00909396       0.01366702
H       11.10427004       6.68790386       7.99868250       0.00159517       0.00572386       0.00245893
H       11.48857360       7.53653425       9.51709202      -0.00697363      -0.00081675       0.00871274
S        2.31658278       8.15953093       5.74462563      -0.00361091      -0.00141577       0.00337958
O        1.82389476       8.22730993       7.16166736      -0.00123048      -0.00340064       0.00369525
C        3.71750944       7.02542783       5.73339586      -0.00034451       0.00319490      -0.00004873
C        3.28659513       9.65162557       5.46347533      -0.00861186       0.00113124       0.00196478
H        3.33133848       6.04017153       5.99052993       0.00363763       0.00211774       0.00082926
H        4.44949648       7.37301217       6.46334879       0.00017038       0.00538824      -0.00189745
H        4.13421814       7.00510730       4.72553758      -0.00289162       0.00444115      -0.00090939
H        3.70811084       9.59830305       4.46255669      -0.01015230       0.00228852       0.00141980
H        4.07087922       9.70841469       6.21948057      -0.00797059       0.00354282       0.00079799
H        2.59895490      10.49194731       5.52655573      -0.01082727      -0.00109452       0.00295275
S       12.07949935       3.17261533       2.11557076       0.00477111      -0.00152305       0.00562251
O       13.46720524       3.43379642       1.61290219       0.00745153      -0.00588395       0.01153278
C       11.87895460       1.39255901       1.88434716      -0.00234838       0.00075132      -0.00149280
C       10.92267291       3.71918401       0.85200055       0.01140368       0.00734223       0.00412685
H       12.49714961       0.90422778       2.63706192      -0.00531432      -0.00466399      -0.00289176
H       12.23945555       1.15865030       0.88079471      -0.00251538       0.00328403      -0.00174686
H       10.84071660       1.09335407       2.02102121      -0.00352716       0.00495797      -0.00410333
H        9.92778011       3.41839732       1.17986718       0.00961186       0.01030208       0.00060897
H       11.19930502       3.27246968      -0.10344707       0.01226157       0.00801259       0.00435302
H       10.97976965       4.81068334       0.81943265       0.01596447       0.00691739       0.00584410
S        9.00420720       1.62104221       3.81021888       0.00777555      -0.00144577       0.00344643
O        8.92924615       3.04983004       3.37879173       0.00742719      -0.00157571       0.00365341
C        7.58994958       1.27374322       4.87183360       0.00782615      -0.00175678       0.00232047
C       10.31255454       1.51300287       5.05517790       0.00691482      -0.00057707       0.00381845
H        6.70115653       1.63281530       4.34965096       0.00813057      -0.00214739       0.00207879
H        7.68976380       1.78740259       5.82696528       0.00744072      -0.00163239       0.00209171
H        7.52427980       0.19320565       5.00731522       0.00842210      -0.00154491       0.00240158
H       10.52528219       0.46398530       5.25868973       0.00553386      -0.00018972       0.00611392
H       10.01848557       2.03787168       5.96408464       0.00672552       0.00143819       0.00228971
H       11.18476773       1.98227385       4.60490861       0.00759435      -0.00242099       0.00372402
S        7.37788569      10.70740907       2.14208638       0.00259960       0.00227803      -0.00597644
O        7.56091078       9.87877899       0.91521810       0.00086045       0.00440991      -0.00735354
C        7.27537470      12.40919410       1.53592582       0.00561957       0.00372630      -0.00081268
C        8.93855736      10.70795848       3.02130299       0.00266856      -0.00252551      -0.00679556
H        6.52754517      12.37446833       0.74306405       0.00692303       0.00802572      -0.00191329
H        8.22163208      12.73493144       1.10802217       0.00638761       0.00492070       0.00239019
H        6.94356617      13.08407113       2.32290130       0.00513941       0.00046770       0.00147310
H        8.84356277      11.32128944       3.91601034       0.00654146       0.00203766      -0.00989314
H        9.75870706      11.02962864       2.38430505       0.00361595      -0.00917491      -0.00871463
H        9.08277793       9.66478551       3.29974832      -0.00220739      -0.00180450      -0.00248005
S        3.53084184       2.48008613       3.31530380       0.00563502      -0.00283736       0.00824654
O        4.84294286       2.50080906       4.03639081       0.00671887      -0.00301420       0.00571603
C        3.05884942       0.73351703       3.23493913       0.00104087      -0.00170583       0.00861198
C        3.90469992       2.62925801       1.56511504       0.00474726      -0.00450988       0.00846922
H        2.74128829       0.41753438       4.22599764       0.00178055      -0.00201391       0.00848407
H        3.94437398       0.17225734       2.93111425      -0.00281368      -0.00553378       0.00535215
H        2.24950767       0.60223944       2.51802163      -0.00119097       0.00257644       0.01067346
H        2.98434662       2.53504985       0.99277238       0.00544848      -0.00381035       0.00756250
H        4.63753410       1.88044978       1.27143629       0.00460355      -0.00505479       0.01040920
H        4.31583520       3.62642263       1.42701843       0.00636568      -0.00535001       0.00916961
S        7.91876891       6.42044853       2.69061388       0.00733340      -0.00030959      -0.00661302
O        7.49081097       7.62311315       3.48392347       0.01111913      -0.00130439      -0.00394380
C        7.74368873       6.80374351       0.94380193       0.00414097       0.00322935      -0.00519753
C        6.55004811       5.25320052       2.78812665       0.00628847       0.00160208      -0.00633774
H        8.47987767       7.55838720       0.67272366       0.00356504       0.00332253      -0.00526185
H        6.73207217       7.16865525       0.76369760       0.00434440       0.00443102      -0.00232442
H        7.94083130       5.88339869       0.39154031       0.00267309       0.00475198      -0.00767203
H        6.77619772       4.39394914       2.15771269       0.00426706       0.00257891      -0.00791925
H        5.62926300       5.76089214       2.49172015       0.00660153       0.00304276      -0.00445544
H        6.47872202       4.89436028       3.81298622       0.00730319       0.00031913      -0.00694853
S        8.06662204       4.39980578       6.17963923      -0.01012206       0.00102186      -0.00283647
O        8.34894645       3.52789647       7.37613501      -0.01295689      -0.00540650      -0.00724745
C        9.65050670       5.09494735       5.67581953      -0.00892699       0.00248879       0.00487772
C        7.32143119       5.91842068       6.77134651      -0.00904170      -0.00185329       0.00432000
H       10.24723539       4.27673369       5.28506682      -0.01074830       0.00550893      -0.00354676
H       10.12684810       5.54727746       6.54432419      -0.00900276      -0.00722647       0.00957157
H        9.49478598       5.81419111       4.87317571      -0.00765063       0.01119478       0.01299255
H        7.20181879       6.59473679       5.92142691      -0.00771686       0.00216927       0.00768971
H        7.92884286       6.38671091       7.54785840      -0.00845331      -0.00615406       0.00604680
H        6.33943260       5.65042383       7.15718644      -0.00922661      -0.00263342       0.00261318
S        2.55608344       5.81516347       2.09244282       0.00278616      -0.00204206       0.00076225
O        3.56304106       6.92313268       2.32897123       0.00204980      -0.00127697      -0.00284989
C        2.05139850       5.98258871       0.37267558      -0.00142795      -0.00397167       0.00255620
C        1.03707040       6.35090422       2.88320320       0.00364846      -0.00315747       0.00354531
H        2.96779442       5.92020459      -0.21302194      -0.00331353      -0.00609751       0.00026272
H        1.55281442       6.93869783       0.21865836      -0.00041138      -0.00359946       0.00233218
H        1.39240458       5.14974417       0.14297643      -0.00327598      -0.00293042       0.00543029
H        0.16996274       5.97789350       2.34831828       0.00372979      -0.00138321       0.00290321
H        1.02160213       7.43827293       2.84319692       0.00481115      -0.00333878       0.00596337
H        1.05569567       5.99869244       3.91236743       0.00455817      -0.00568389       0.00250857
S        5.57826713       9.25391560       9.10357513      -0.00850557       0.00051278       0.00660753
O        5.71946365       9.07485854       7.62539240      -0.00819223       0.00923061       0.00578773
C        5.82269341       7.65170707       9.88345010      -0.00482203      -0.00302863      -0.00290346
C        3.80315473       9.37242452       9.41277471      -0.00826138      -0.00553207       0.00708754
H        6.86776798       7.39762155       9.71973839      -0.00409597       0.00095243      -0.00294563
H        5.14706108       6.92608057       9.43001226      -0.00195409      -0.00190730      -0.00836658
H        5.62743877       7.75915532      10.95081983      -0.00693249      -0.01019194      -0.00284281
H        3.60394334       9.18760557      10.46735698      -0.00792592      -0.00987709       0.00619441
H        3.27850394       8.65352216       8.78043748      -0.00608478      -0.00445291       0.00443636
H        3.49005761      10.37909379       9.13810564      -0.01070076      -0.00568596       0.01055202
S        3.03749532       9.32816078       1.03012543       0.00115258       0.00053009      -0.00655007
O        1.94139309       9.53101934       2.10815296      -0.00299788      -0.00808813      -0.00980216
C        4.58265301       9.58050595       1.85288695      -0.00224280       0.00167662      -0.00104982
C        2.89791153      10.96032338       0.21111962      -0.00201410       0.00272861      -0.00058739
H        4.75533680       8.72700523       2.50209189      -0.00370009       0.00067276      -0.00247656
H        4.56099192      10.51796778       2.40501274      -0.00470340       0.00050378       0.00036281
H        5.36469200       9.59290013       1.08822364      -0.00061293       0.00385821       0.00099398
H        3.34070747      10.94513991      -0.78189754      -0.00180817       0.00744094      -0.00022639
H        3.36235313      11.72262444       0.83496474      -0.00401157       0.00137345       0.00233400
H        1.85732959      11.45106235      -0.01081286      -0.00293808       0.00213104       0.00256485
