149
Lattice="17.828721242838352 0.0 0.0 0.0 17.828721242838352 0.0 0.0 0.0 17.828721242838352" Properties=species:S:1:pos:R:3:forces:R:3 energy=-2580936.25 stress="-0.0016926961252465844 -0.0002020935426116921 6.250034857657738e-05 -0.0002020935426116921 -0.0011987711768597364 0.00022240280668484047 6.250034857657738e-05 0.00022240280668484047 -0.0009923928882926702" pbc="T T T"
Ir      17.25623384      18.57314999       0.09270550      -0.00815305       0.00744247      -0.00458395
I       -0.05648543      16.89581361       8.91473594       0.01079061      -0.00184529      -0.00367904
I       15.84876856      16.48419027       7.07652395       0.00519546      -0.00411009       0.00406052
I       16.45455351      16.80418082      16.22213674       0.01692654      -0.00415277      -0.00107031
Cl       9.95969264       4.96322259       8.71076506      -0.00307471      -0.00856585       0.00978771
Cl       7.73279640       3.33723803       9.58964456      -0.00806539      -0.00242275       0.00511560
Cl       7.57939619       4.77584672       7.07657640       0.00006878      -0.00064822       0.00601119
Cl       7.51430830       6.23381831       9.58520500      -0.00081098      -0.00285065       0.00660178
C        8.19635252       4.83080367       8.74245391      -0.00308902      -0.00354729       0.00701416
Cl       2.39339765      10.50657481      10.07652987       0.00188370       0.01303533       0.01114380
Cl       1.05576431      11.87611474      12.24593771      -0.00447515       0.02059337       0.00214961
Cl       0.37601500      12.49346838       9.48328357      -0.00485089       0.00116019      -0.00025618
Cl       2.90636086      13.33788944      10.57709804      -0.00773290       0.01581267      -0.00389671
C        1.67980626      12.05050808      10.59824106      -0.00371585       0.01279388       0.00217561
Cl       7.95291207       0.98611592       6.13208889       0.01010644       0.02649343      -0.01242277
Cl      10.13825357       0.16081939       4.41053314      -0.00311954      -0.01366845      -0.00590408
Cl      10.64054661       1.88668614       6.68847417       0.01702175       0.00045471      -0.01819003
Cl       9.23970037       2.90761963       4.36259520       0.02513759      -0.00080553      -0.02093953
C        9.48947272       1.48667594       5.39977923       0.01501512       0.00163372      -0.01577767
Cl      12.20043986      13.68174966      13.98531779      -0.01870212      -0.01327066       0.00988841
Cl      10.69760011      14.28150127      16.39992338       0.00542721       0.00140745       0.01886651
Cl      12.80340157      16.07058889      15.52077221      -0.00433533      -0.00281352      -0.01239699
Cl      13.47234577      13.45421774      16.58237991       0.00609154       0.00450420      -0.00162965
C       12.29219774      14.37158582      15.61724161      -0.00237388      -0.00195804       0.00351536
Cl      13.19595583      11.26105507       1.86763190       0.00393835       0.00728168      -0.01983437
Cl      16.06768304      11.42932763       1.53400787       0.00535026      -0.00218067       0.00039792
Cl      14.84814865       8.91959526       2.32825488      -0.00820125       0.00028512      -0.01563177
Cl      14.91119077      11.13477598       4.18839884      -0.01265622      -0.00682907      -0.00878307
C       14.75387743      10.68284512       2.47739621      -0.00316821      -0.00029301      -0.01087936
Cl      12.83577269       2.28613137       1.77092063       0.00380690       0.00986685       0.01048277
Cl      15.07075499       1.51738238       0.06726844      -0.01143587      -0.00534006       0.00026563
Cl      15.48581220       2.35247119       2.93419321      -0.00024906       0.00320466       0.00152214
Cl      14.72000776       4.33497222       0.96971937      -0.00388025      -0.00072578      -0.00316293
C       14.52201320       2.68493822       1.52709295      -0.00578471       0.00464708       0.00661683
Cl       6.18071489       7.23847699       3.82642264       0.00629914      -0.00638174      -0.00448263
Cl       3.94061164       9.05633277       3.54038039      -0.00640982      -0.02108619       0.00306237
Cl       3.96974232       6.54695622       2.09238568       0.01243529      -0.01071739      -0.01013812
Cl       5.78864076       8.69358206       1.35144947       0.00037497       0.00476348       0.00504109
C        4.97381799       7.88514101       2.70616102       0.00310272      -0.00846686      -0.00162803
Cl      11.71515310       5.33116619      14.06196629       0.01380625      -0.00958516       0.00489467
Cl      10.72517336       3.31011592      12.22958659       0.01294903      -0.01388279       0.01050025
Cl       9.28134882       5.79743425      12.56329618       0.01844236      -0.01116318      -0.00131960
Cl       9.31582739       3.83829356      14.70598840       0.01182273      -0.00211199       0.00648978
C       10.25300259       4.56302222      13.38915618       0.01429693      -0.00903978       0.00509287
Cl       3.91909106      12.21551232       1.21852724       0.00304714       0.00698808      -0.00956118
Cl       6.03746632      11.75754013      -0.71521217      -0.00152886       0.00556967      -0.01498175
Cl       6.47378785      13.55186314       1.52314835       0.00631727      -0.00058390      -0.01089169
Cl       4.68953358      14.31984615      -0.63897227       0.00702911       0.00301683      -0.00176283
C        5.28137351      12.94711723       0.34471202       0.00457460       0.00315706      -0.00889122
Cl       0.32112535       2.71581643      18.68275454      -0.00522859       0.00973395      -0.01088050
Cl       2.05078943       2.63370743      16.24480257      -0.00204070       0.01059392      -0.00863595
Cl       1.62221750       5.12930426      17.65801607      -0.01230038       0.01071124      -0.01485118
Cl      -0.51778808       3.94009574      16.09999269      -0.00712103      -0.00004604      -0.01242670
C        0.91291507       3.65179577      17.05514837      -0.00772282       0.00767311      -0.01104385
Cl      10.64111687      11.42675070      10.14945199      -0.00346850      -0.00419670      -0.00105651
Cl       8.25032993       9.79293462      10.30288692      -0.00719202       0.00181907      -0.00625153
Cl      10.34692848       9.44964903      12.25252986      -0.01401421      -0.00076678      -0.00073320
Cl      10.76778180       8.59179175       9.51743382      -0.00780427      -0.00418636       0.00253823
C       10.00324134       9.81338466      10.54897715      -0.00813517      -0.00179828      -0.00135963
Cl       6.31886688       5.86178656      14.30395557       0.01399320      -0.00720981      -0.01279286
Cl       5.15670695       4.33008332      16.45674847       0.00800453      -0.00047010      -0.01168361
Cl       3.47578691       5.34866342      14.30702385       0.01216784       0.00697652      -0.00967288
Cl       4.61337074       7.16281528      16.25594016       0.02296894       0.00143090      -0.01190919
C        4.88936312       5.67717211      15.32740029       0.01441624       0.00044776      -0.01155346
Cl       4.57668614      13.84090082       5.11544972       0.01495467       0.00145617       0.01092678
Cl       1.95914353      12.60783917       4.99314012       0.02243692      -0.00978259      -0.00920016
Cl       2.48030890      14.66889839       6.95953158      -0.00240785      -0.00598383      -0.00736280
Cl       3.71048618      12.06508638       7.22515787       0.00621952       0.00108775       0.00602743
C        3.18141668      13.29401285       6.08147330       0.01121498      -0.00295875       0.00022598
Cl       9.30614404      10.97961713      15.40293559       0.00697273      -0.00454703       0.00519004
Cl      11.37120246      10.24753837      17.29020225       0.01137066      -0.03190869      -0.01106939
Cl      10.38759749       8.27964749      15.41344318      -0.02371043      -0.01578301      -0.00828713
Cl       8.70262770       9.16607651      17.59051557       0.00183296      -0.00128722       0.00472030
C        9.94241209       9.67281420      16.42200481      -0.00079551      -0.01359969      -0.00230033
Cl      -0.37036884       6.04313842      13.37506055      -0.00433171       0.03243598       0.00130460
Cl      -0.68027748       6.07115249      10.50160884      -0.00287953      -0.00125479       0.00185260
Cl       1.43702488       4.50751939      11.70679522      -0.01359333       0.00078171       0.02066895
Cl       1.57997428       7.40821196      11.73736355       0.00512001      -0.00110826      -0.01391965
C        0.49511067       6.01049548      11.82647045      -0.00398672       0.00744739       0.00250150
Cl      13.70836772      16.98853354       4.24468276       0.00181402      -0.00429900       0.01137280
Cl      14.52187398      14.35635094       3.34222184       0.00031233       0.00066578       0.00437093
Cl      15.95779954      16.70262953       2.40857427      -0.00731084       0.00185548      -0.00402451
Cl      13.27289684      16.21341445       1.48244992      -0.00846684       0.00305553       0.01079783
C       14.35338425      16.04192923       2.87534744      -0.00381828       0.00040804       0.00636050
Cl       3.33200412      17.33881795       4.59520879       0.02068692      -0.00177145      -0.00931472
Cl       3.72111556      15.88868712       2.15634431      -0.00053322      -0.00287428       0.00041109
Cl       1.47049333      17.62062996       0.28399358      -0.00810447       0.01114555       0.02939302
Cl       1.15635486      15.89415932       3.42583584      -0.01962835       0.00946230       0.01381038
C        2.74145913      16.35974024       3.39763252       0.04226143       0.02072774       0.01012437
Cl       5.35165662       2.63830238       4.07874923       0.00225603       0.00937989      -0.00282568
Cl       6.73904465       0.62389144       2.51834206       0.00124747       0.00436705       0.00445141
Cl       6.66264029       3.37915045       1.61059785      -0.00005394      -0.00040734      -0.00617272
Cl       4.25977905       1.74979156       1.52867565       0.00100634      -0.00024086       0.00221530
C        5.75758406       2.10206176       2.43467647       0.00063865       0.00297519      -0.00017680
Cl      15.61623971       5.33374551       7.61167014      -0.00784481      -0.00706618      -0.00023765
Cl      13.71170574       6.57622948       9.41394835      -0.00062923       0.00039726       0.00120860
Cl      13.10051792       4.04089744       8.13683054      -0.00075951      -0.00968257       0.02406253
Cl      13.16651594       6.49100393       6.57422333      -0.01646370      -0.02195777       0.00579870
C       13.89385492       5.61662514       7.93745611      -0.00634828      -0.00945264       0.00760961
Cl       3.71203406      -0.25318677      14.26433368      -0.02876033      -0.00712718      -0.00214514
Cl       3.97013701       2.10640828      12.60347345      -0.00538634      -0.00969493       0.00932336
Cl       1.59114920       0.45547700      12.40677871      -0.00881386       0.00679256      -0.02063773
Cl       4.13459789      -0.53492354      11.40951767      -0.00345230      -0.01627031       0.01172853
C        3.35439980       0.43903892      12.66516298      -0.01232564      -0.00596094      -0.00493139
Cl      -0.63587600      10.27461148       6.64426188      -0.00355971       0.01379779      -0.00075248
Cl      -0.64374856       7.60597493       5.52472867      -0.00825180       0.00800225       0.01580412
Cl       1.85652306       8.88902522       6.25906808      -0.00654379       0.00673054       0.00799483
Cl       0.36569866       9.79712003       3.94305357      -0.00446124      -0.00293094       0.00357771
C        0.24008948       9.14498546       5.59346498      -0.00567307       0.00613396       0.00663844
Cl       4.40582416       7.42657097       8.12695701      -0.00825053      -0.00336200       0.00741085
Cl       1.89735360       5.97817429       8.27413525      -0.00547260      -0.00801295      -0.00328397
Cl       4.37583021       4.58843646       8.74848750      -0.00426482      -0.00456041      -0.00361311
Cl       3.73682349       5.51391110       6.06868055      -0.00113485       0.00377205      -0.00065497
C        3.59607921       5.87038364       7.80115204      -0.00482887      -0.00320425      -0.00021580
Cl       3.81044831       9.66815834      13.68276643      -0.00945449       0.01548666       0.00708315
Cl       5.20606845       8.35443880      11.51586037      -0.00953831       0.01814899       0.00707200
Cl       6.70015780       9.42125721      13.76953894      -0.01132450       0.00908988       0.01193017
Cl       5.45984923      11.22601308      11.88862154      -0.00167646       0.01553938       0.01379839
C        5.29891350       9.66568824      12.71919540      -0.00809023       0.01475540       0.01006673
Cl       5.77527369      14.76372271       9.51447667      -0.00165120       0.00572181      -0.00537831
Cl       7.38739173      15.23357637       7.16436000       0.01208630       0.01345272       0.00615424
Cl       7.73494143      16.90531854       9.50794004      -0.00983468       0.01252198       0.00878477
Cl       5.32781346      17.14215902       7.90645809       0.00063348       0.00448614      -0.00582173
C        6.56748906      16.00542440       8.52097031      -0.00003463       0.00944376       0.00082472
Cl      15.26819253      12.05188965      11.69301376      -0.01222259      -0.00214416       0.00814676
Cl      13.65296876       9.67300472      11.44538932      -0.00403273      -0.00732970       0.00917631
Cl      16.42891183       9.59286242      10.64840966      -0.00262988       0.00100282       0.01498638
Cl      14.51697908      11.09139165       9.06163419      -0.00440520      -0.00886171       0.00939688
C       14.97440767      10.59918534      10.71528350      -0.00589165      -0.00426617       0.01043788
Cl       8.91656132       9.67819229       4.35395269       0.00355969      -0.00037511      -0.00421077
Cl       8.06004026       8.17201079       6.67627003       0.01294214      -0.00490981      -0.00502944
Cl       6.58038494      10.52510647       5.85863360       0.00837135      -0.00492965       0.00225858
Cl       9.21985290      10.79435282       7.01597562       0.00960091      -0.00494644      -0.00312808
C        8.19774985       9.79495129       5.97632453       0.00859426      -0.00382339      -0.00239449
Cl      -0.22410908       1.27550919       5.52602597       0.00220057      -0.00688207      -0.00337701
Cl       2.17705579       2.31461499       6.75081503      -0.00206923       0.00349206      -0.00544003
Cl       0.21559844       4.14485508       5.63911146      -0.00754827      -0.00586128      -0.00859889
Cl       1.81421596       2.52937060       3.88012653      -0.00213698      -0.00385374      -0.00469273
C        0.99305258       2.57320644       5.44873872      -0.00131911      -0.00349571      -0.00578195
Cl      16.24455089       2.40468209      10.37401835       0.00773323      -0.00708391       0.01462394
Cl      15.80770068       1.41044025      13.07358176      -0.00366619      -0.01484901       0.00866836
Cl      13.70563837       1.20190661      11.08162015       0.00175375       0.00092584       0.00259981
Cl      14.43379174       3.79550300      12.15368040       0.00874996      -0.00677735       0.01423919
C       15.05304858       2.20597088      11.67514100       0.00363097      -0.00692293       0.01030427
Cl      10.74869111      14.77381847       6.18179068       0.00514813       0.00247836      -0.01188001
Cl      11.41673738      12.35962176       4.74701711      -0.00116608       0.00247476      -0.01340037
Cl      10.86458356      14.77862056       3.27842469      -0.00492032       0.00155938      -0.01105219
Cl       8.70572161      13.40959652       4.62815945      -0.00025839       0.00290234      -0.00288472
C       10.43562151      13.82839333       4.71408437      -0.00060141       0.00226417      -0.00992645
