148
Lattice="16.244420909314883 0.0 0.0 0.0 16.244420909314883 0.0 0.0 0.0 16.244420909314883" Properties=species:S:1:pos:R:3:forces:R:3 energy=-1605234.25 stress="-0.0013663172721862793 0.00010611997277010232 0.0003166416863678023 0.00010611997277010232 -0.0009507430950179696 -0.0003375677770236507 0.0003166416863678023 -0.0003375677770236507 -0.0014681611210107803" pbc="T T T"
Ir      16.52452920      17.10494811      -0.03966876       0.00435913       0.00385034       0.00265904
Cl       0.87000140      15.95443257       7.37369183      -0.00193143       0.01152968       0.00918937
O        2.24092317      15.72304811       6.89476741      -0.00934124       0.00516862       0.00444674
O        0.86405016      16.60052552       8.69296078      -0.00256801       0.00542271       0.00593686
O        0.08200941      14.71887002       7.36790145      -0.00962090       0.00143600       0.01159153
Cl      12.13476070      14.72318582      10.41133096      -0.03435574       0.01969445       0.01366878
O       13.52441445      14.71458109      10.87050030       0.01904631      -0.02297007       0.01731771
O       11.34105564      15.77272129      11.05449116       0.02597606      -0.01969814      -0.01441061
O       11.51074712      13.40091487      10.55151734      -0.01104844      -0.00727963       0.00556597
Cl       7.84586308      15.15819930       6.63027894       0.04379678       0.01801133      -0.01096144
O        9.20592042      15.69033573       6.77865452      -0.02678967      -0.02754837      -0.01140127
O        7.65001279      14.56392169       5.29472654       0.00503422      -0.01240492      -0.01214051
O        7.51606840      14.19464910       7.68809230      -0.00671878      -0.01581168       0.00844836
Cl       6.64361679       4.18556390       6.16748055      -0.03273768       0.01404393       0.01823151
Cl       4.79652906       6.11498776       5.04532967       0.00055125       0.01037867      -0.03958958
Cl       7.54864489       6.90901918       5.61676056      -0.00642022      -0.00014248       0.00699002
C        6.47889287       5.59861202       5.10820464      -0.00422211       0.00155920      -0.00032504
H        6.77614072       5.29852493       4.10998368       0.01222567      -0.00939377       0.00872421
Cl       3.40371443      14.60001352       9.95787219      -0.00700065       0.00659643       0.00235152
Cl       0.77153660      13.82172339      10.95965799       0.00420505      -0.01779541       0.01078771
Cl       3.12228168      13.66476174      12.70688378       0.01021031       0.00803518       0.00340053
C        2.32974028      14.53616020      11.33995573      -0.00182359      -0.00169763       0.00498620
H        2.16400971      15.54922827      11.68234462      -0.01120616      -0.00349206       0.00377432
Cl      10.72175204       9.72838901       6.35575416       0.01335710      -0.00441509       0.00393906
Cl      10.40945347      12.63572533       6.57242151      -0.00150716      -0.00516576      -0.00448366
Cl       8.21182212      10.98786444       5.57492695       0.01736516      -0.01603188      -0.02660882
C        9.60027381      11.08123299       6.66825897       0.00672062      -0.00722994      -0.01071774
H        9.23312532      10.95771184       7.67695978      -0.00562884      -0.00779245      -0.01555353
Cl      15.41572322       9.53309531      13.30645783       0.00707418       0.02416548      -0.01978581
Cl      13.34957831      11.20514487      12.08257940      -0.01321805       0.00499028      -0.00907725
Cl      12.87104332       8.35207480      12.49339593       0.01552652      -0.00122339      -0.01452234
C       13.66806173       9.81268674      13.10510161       0.00324888       0.00576168      -0.01400054
H       13.26542298      10.00974691      14.09054910       0.00358400      -0.00094652      -0.01259404
Cl       7.82552002       5.23442185       9.47084552       0.00767261      -0.00325642       0.00405800
Cl      10.23023812       6.25831374       8.14398064       0.00164190      -0.00544697       0.00889895
Cl       9.95184167       3.39229548       8.72447935      -0.00590315      -0.01512146      -0.00809972
C        9.12640838       4.89401325       8.31031794       0.00417057      -0.00901190       0.00232925
H        8.65290503       4.75669873       7.34970446       0.01110819      -0.01113942       0.00019190
Cl       2.77804406      10.29826037      11.10992769       0.00065887      -0.00198436       0.01681626
Cl       5.10603536       8.54290106      11.09250773       0.01116243       0.01277786       0.03799153
Cl       5.27625901      11.20713341       9.90301640      -0.00189880       0.00180387       0.01396257
C        4.53670223      10.23048233      11.16930352       0.00114441       0.00933971       0.02105792
H        4.85710352      10.62847616      12.12410492      -0.00343312       0.02049841       0.01775342
Cl       9.39379227       2.13135326       1.19758871       0.01050690       0.00636636      -0.00228065
Cl       8.57068063       0.70892787       3.60975799       0.02147225      -0.01215833      -0.01201528
Cl       9.68994706       3.40434463       3.81658662      -0.01545659       0.00126788       0.00266133
C        8.71969830       2.26894104       2.82815118       0.00341989      -0.00873175      -0.00431872
H        7.73247150       2.70661570       2.74159297      -0.00140068      -0.02063364      -0.00566624
Cl       9.44637277      15.05150509      13.80897770      -0.00019976       0.02505092       0.00152650
Cl      12.20849363      14.11005370      13.86866063      -0.01506254      -0.00689647       0.00518760
Cl      11.56147997      16.76186978      14.89361550       0.01337160       0.00154811       0.00886345
C       10.98636255      15.09486634      14.67547116      -0.00253093       0.00795629       0.00392852
H       10.82036877      14.67995989      15.66114361      -0.00851315       0.00776993       0.00371921
Cl      14.95341976      10.96719635       7.70733161      -0.01736681       0.01579270      -0.00843352
Cl      13.78547551      11.74508688       5.15711987       0.00789303       0.01732975      -0.01838611
Cl      16.19555341      10.10439864       5.20576999      -0.00733078      -0.00223672       0.00378498
C       14.67527191      10.49078941       6.04264514      -0.00943218       0.01243822      -0.00891982
H       14.06776994       9.59463846       6.03891049      -0.01635088       0.01765615      -0.01052562
Cl       7.46473544       6.69330130       1.77014378      -0.00885080       0.01436300       0.00384429
Cl       5.57429898       4.55577409       1.15756610       0.00141728       0.00739402      -0.00063900
Cl       4.65178110       7.31154282       1.27341191      -0.00072443       0.00817528      -0.04053507
C        6.00854634       6.25026412       0.87121829       0.00434662       0.00424885      -0.01127326
H        6.22757350       6.36563038      -0.18316922       0.01806746      -0.00712227      -0.00922027
Cl      12.96175964       2.66867894       2.85200966       0.01201238       0.00884497       0.01493885
Cl      15.08080613       2.36330064       0.83330893      -0.00161475      -0.00406474       0.00421405
Cl      15.61050663       1.81854287       3.73172431       0.01406359       0.00374034       0.00161785
C       14.38015569       1.74052435       2.51641964       0.00637658       0.00285944       0.00966132
H       14.12205288       0.71602849       2.26110442       0.00144775       0.00323126       0.01467378
Cl       5.28152876      11.67513091       3.88683107       0.00154789       0.00203347       0.00673726
Cl       3.47029120       9.40027800       4.22789315       0.00206307       0.00317702       0.00990942
Cl       3.10858293      11.20090862       1.98409175       0.01200423      -0.01009099      -0.00079664
C        4.29106764      10.46308498       3.08271324       0.00732845      -0.00309382       0.00850501
H        4.94252498       9.84092528       2.47877786       0.01077758      -0.00533530       0.01504312
Cl       7.56273269       4.24866915      14.44864823      -0.01738371      -0.02514580      -0.00790235
Cl      10.23349563       5.19553759      13.76191627      -0.01978061      -0.00547585       0.01197717
Cl       9.19172423       2.76005301      12.53784121       0.00225079      -0.01218045       0.00188897
C        8.79460337       4.35160223      13.16034934      -0.00959342      -0.01617143       0.00089204
H        8.37780390       4.94617968      12.35581657      -0.00681788      -0.01790698      -0.00131533
Cl       7.41785232      12.92844791      -0.08251519      -0.00258142       0.01668684      -0.00603350
Cl       5.52085646      10.84399479      -0.84515455       0.01074933       0.00578390      -0.00202170
Cl       7.30611218      10.41946850       1.41370484       0.01202059       0.02165297       0.00121027
C        6.38285233      11.62543274       0.49038937       0.00504345       0.01278548      -0.00278433
H        5.64191683      12.04934616       1.16038175       0.00227621       0.00827219      -0.00353859
Cl      -0.04554838       3.70975484      13.84764529      -0.00192767       0.01080805       0.01354294
Cl       1.86163313       2.38415284      15.69259559      -0.00019038       0.01016387       0.01079959
Cl       2.49925853       4.95779307      14.54710437      -0.00339893       0.01100017       0.01557282
C        1.15184079       3.98661111      15.07677142      -0.00233048       0.00913414       0.01339742
H        0.69363329       4.42968674      15.95591241      -0.00185814       0.00639337       0.01443973
Cl      10.02053410      10.59888999      10.18064384      -0.01190633       0.00604597      -0.01103722
Cl       7.99403691       8.94255411       8.87983270      -0.00572836      -0.00562011      -0.00405675
Cl       9.32517715       7.99725912      11.30082639       0.00592391       0.00501621      -0.00593486
C        8.73884296       9.41235575      10.41602110      -0.00400954      -0.00044108      -0.00655330
H        7.96415136       9.86990723      11.01853099      -0.00561690      -0.00453150      -0.00570545
Cl       2.90296841       2.10869946      11.93697304       0.00615114       0.00177427       0.01192607
Cl       5.37511471       1.61064832      10.47068770       0.00361212       0.00299524       0.00188130
Cl       4.79324288       4.28749148      11.49770997       0.00141173       0.00132692      -0.00224668
C        4.61809398       2.53681763      11.75766533       0.00520315       0.00271529       0.00264830
H        5.11656767       2.30069601      12.68982729       0.00904980       0.00344086       0.00001368
Cl       2.29506062      12.99368590       5.12846869      -0.00505742      -0.00122756       0.00614724
Cl       4.61279190      13.29606949       6.90455535      -0.00847721       0.00458288       0.00877780
Cl       2.18200521      11.97341945       7.85277881      -0.00932109       0.00499613       0.00766736
C        3.22244540      12.29679280       6.47288167      -0.00740654       0.00265984       0.00884490
H        3.60938729      11.34869289       6.12543169      -0.00543861       0.00258112       0.01222175
Cl       9.07676061      10.90870688      13.52046530       0.03241757       0.01874430      -0.00352061
Cl       9.63679592       8.38954401      14.90498425       0.00566891       0.01026872      -0.00417534
Cl      11.10011647      10.81657407      15.61117370       0.00861779       0.00272464       0.01281841
C        9.56308997      10.14952381      15.03437266       0.01105113       0.01055637      -0.00185429
H        8.82045961      10.38537593      15.78301853       0.00580972       0.01153409      -0.00769013
Cl      -0.63914517       7.24545405       7.81954343      -0.01371992       0.00388132       0.00270665
Cl       2.17477694       7.54796211       8.55702626      -0.00714517       0.00106566      -0.02135558
Cl       0.06988210       7.99232711      10.53386014       0.01037644      -0.00242442      -0.00354773
C        0.56239024       7.07833305       9.11242827      -0.00285996       0.00007081      -0.00881496
H        0.59977401       6.02755974       9.37832993       0.00032768      -0.00007159      -0.01190729
Cl      12.01306335      15.20523275       4.58192660       0.01160666      -0.01141912       0.00257745
Cl      10.37593217      13.41324381       2.95457414      -0.01288927       0.01363488       0.00125116
Cl      12.17543080      15.30586166       1.67364502      -0.00996211       0.01179501       0.00371125
C       11.90903904      14.26055827       3.10038211      -0.00629367       0.00214647      -0.00339639
H       12.70465675      13.52517671       3.10259550      -0.01228076      -0.00357062      -0.01529542
Cl       4.00432020      14.35242143      -0.11782220      -0.01062981      -0.01890801       0.01420702
Cl       1.74320467      14.65246498       1.70510659      -0.03029193      -0.02169929      -0.01060673
Cl       1.40464628      15.48333538      -1.10377332       0.01284445       0.01394525      -0.00293970
C        2.29455683      14.25718034       0.11920254      -0.01326251      -0.00822538      -0.00782919
H        1.90360679      13.29878022      -0.20657310      -0.01705242      -0.00053707      -0.02327218
Cl       4.60741721      -0.61000791       3.86089766       0.01162127      -0.01567578      -0.02781358
Cl       5.24477221       2.19968339       4.20605755       0.00475839      -0.01588246      -0.00936997
Cl       4.53683905       1.20617993       1.56255535      -0.00332652      -0.00003744      -0.01329663
C        4.27368580       1.02288832       3.32297521       0.00507088      -0.01256271      -0.01391280
H        3.22969557       1.24700491       3.50832217       0.00553298      -0.01725648      -0.00806907
Cl      12.16438686       5.23542262      11.04230710       0.01270264      -0.03522101       0.03053302
Cl      14.96742706       4.53169829      10.78621662       0.02030651      -0.00216663       0.01697910
Cl      13.26166923       4.52875382       8.42719895       0.00522301      -0.02751103       0.02844125
C       13.56993399       5.29318856       9.98686766       0.00681610      -0.02088476       0.02405930
H       13.82687422       6.33173120       9.80923660      -0.00620840      -0.01864329       0.02114959
Cl       1.60224005       6.83153933       5.19367142      -0.02243781      -0.00012358      -0.01202273
Cl       1.50202393       5.57448250       2.56723442      -0.00651912       0.00536098      -0.01584302
Cl      -0.94152656       5.88539235       4.14415940      -0.01511933      -0.00086738      -0.02696027
C        0.62765833       6.58214664       3.74100435      -0.01434810       0.00173386      -0.01707948
H        0.46472848       7.55437305       3.29098424      -0.01351796       0.00203234      -0.01594045
Cl       2.20863469       2.60087318       5.86824146      -0.00035737       0.00310242      -0.01124769
Cl       0.07628247       3.60107901       7.57569331       0.00304264       0.01268724      -0.01442213
Cl       2.83863712       3.66583399       8.51454334      -0.00024039      -0.01225607      -0.00588846
C        1.76887600       3.77755878       7.11654673       0.00546963       0.00127864      -0.00827409
H        1.89290825       4.76135984       6.68522198       0.01447233       0.00154164      -0.00413674
Cl      14.10282382       9.72228514       1.30321956       0.00917231      -0.00368631       0.00643437
Cl      16.55916496      10.83069712       0.19590585      -0.00047804       0.01135508       0.00221583
Cl      14.13797345      12.44672281       0.24973874      -0.00453170       0.00368363       0.02667277
C       15.06308010      11.18920856       1.07917589       0.00304356       0.00069787       0.01243523
H       15.33728627      11.55454133       2.06224265       0.00690227      -0.00527021       0.01296827
