142
Lattice="12.42777108092879 0.0 0.0 0.0 12.42777108092879 0.0 0.0 0.0 12.42777108092879" Properties=species:S:1:pos:R:3:forces:R:3 energy=-573282.6875 stress="0.000856944709084928 0.00022960947535466403 -0.00021335671772249043 0.00022960947535466403 -0.00035667611518874764 0.00016864177450770512 -0.00021335671772249043 0.00016864177450770512 -0.0007921097567304969" pbc="T T T"
Ir      12.29490256      12.49494210      -1.18814367      -0.01282302       0.01521898      -0.00486480
O        4.27539642      11.46331383       6.05371341       0.01052737      -0.00292444      -0.00243568
N        2.97194235      12.89329225       4.62792459       0.01405239       0.00596797       0.00353909
C        3.61655775      12.18886012       5.33768060       0.01165161       0.00207457      -0.00012644
O        3.14145773      10.63639855       0.48101537      -0.03957283      -0.00485623      -0.00692943
N        0.91654973      11.34599476       0.03397911      -0.03322899       0.01639740      -0.00548337
C        2.05565919      10.99748129       0.24202991       0.00639471      -0.00913596       0.00286419
O        7.83385559      11.21178126      10.63992756       0.01402402       0.01552288      -0.01043454
N        5.43576637      11.41628246      10.66997051       0.01474929       0.01925567       0.02208465
C        6.62241488      11.30843740      10.66088550       0.01427206       0.01733284       0.00553999
O       11.18787370      10.55605626       8.21199909      -0.01099621       0.00372545       0.00316930
C       11.28157320      10.38475149       9.61538278      -0.00318554       0.00319912       0.00250101
C       10.99870350      11.72672260      10.22728301      -0.01143396      -0.00002360       0.00530190
C       10.23814433       9.41219409      10.16512068       0.00775313      -0.00710976       0.00542119
H       12.29053204      10.05082511       9.89504073       0.00071800       0.01106432      -0.00301406
H       11.28562868      13.67780805      11.42770767      -0.01628725       0.01375430      -0.01087401
H       12.47560416      13.62322691      10.14650869      -0.01820114       0.01112092      -0.01190508
H        9.97684438      12.08475389      10.08341677      -0.01649749      -0.00962365       0.01628752
H       10.06980783       9.58522393      11.22513483       0.01451792      -0.01322821       0.00748445
H       10.57724121       8.38754576      10.04166585       0.01472875      -0.00405143      -0.00164432
H        9.28707008       9.58710615       9.66640224       0.00318953      -0.01165314       0.01247056
H       11.30940759       9.67357135       7.81103179      -0.00889398       0.00422817       0.00257891
O       11.31202124       7.91986163       7.20142798      -0.00303769       0.00238085       0.00721407
C       10.03004583       7.28551960       7.38816038      -0.00516623       0.00389360      -0.00210935
C        8.92152716       8.11585721       6.77198269      -0.00042689       0.00932497      -0.00335434
C       10.05707092       5.85433567       6.88985377      -0.00513662       0.00628203      -0.00906506
H        9.90367024       7.27583125       8.46995173      -0.01063611      -0.00099550      -0.00270724
H        7.94683307       7.72271850       7.05934423      -0.00263129       0.00994434      -0.01022086
H        8.98828457       9.15055545       7.10638776       0.00011182       0.00744471       0.00249611
H        8.97995031       8.09365977       5.68040190       0.00499357       0.01511144      -0.00316221
H        9.11812842       5.35390351       7.13189248      -0.00754949       0.00687975      -0.01726612
H       10.87558562       5.30113431       7.35206803      -0.00899132       0.00237073      -0.00698170
H       10.17875274       5.82007490       5.80397459       0.00134000       0.01148856      -0.00846246
H       11.53237881       7.89940808       6.26380349       0.00472259       0.00019986       0.00913525
O        4.16756519       8.82908896       5.33130054      -0.00219381      -0.00524996       0.00217801
C        3.00773964       8.56474954       4.57154220      -0.00396705      -0.00008699       0.00268149
C        1.73982562       8.93635215       5.33355457      -0.00153053       0.00181407       0.00606871
C        3.04817997       9.23889040       3.20849487      -0.00350823       0.00284928       0.00445074
H        3.01373346       7.47572427       4.42266231      -0.00753517       0.00021356       0.00029597
H        0.85891124       8.64567598       4.75280596      -0.00369261       0.00796983       0.00618417
H        1.71383006       8.43889233       6.30320747      -0.00198832      -0.00221813       0.00400168
H        1.69633816      10.01550809       5.49215516       0.00314966       0.00122830       0.01086613
H        2.21091318       8.91099665       2.58885594      -0.00687864       0.00937829       0.00567259
H        3.96655956       8.99570530       2.67680768      -0.00644311      -0.00164314       0.00140446
H        2.99322116      10.32424080       3.30730410       0.00314695       0.00296217       0.00674328
H        4.18932960       9.77874366       5.58480880       0.00239453      -0.00511250       0.00039045
O        6.46697178       4.18840742       9.44493526       0.00131369       0.01691854      -0.00070274
C        7.44493875       3.14624072       9.41068707      -0.00218046       0.01386952      -0.00457144
C        8.52173176       3.40165908      10.45378730       0.00119269       0.00828551      -0.00645220
C        6.82021433       1.77730123       9.57868022      -0.00626183       0.01569015      -0.00518388
H        7.87782388       3.22376385       8.41051424      -0.00386363       0.01389004      -0.00527352
H        9.30513483       2.64234244      10.40251326      -0.00135487       0.00598934      -0.01052193
H        8.97173795       4.38637585      10.31955671       0.00382907       0.00718819      -0.00566484
H        8.08574519       3.35227232      11.45396776       0.00371101       0.00730773      -0.00550041
H        7.57494488       0.99448968       9.49552551      -0.00857927       0.01372282      -0.00682560
H        6.05159821       1.59391267       8.83059859      -0.00749913       0.01874353      -0.00474611
H        6.37249671       1.66433487      10.56823862      -0.00559711       0.01620210      -0.00488751
H        5.99314385       4.13923826      10.28536025      -0.00176539       0.01223569      -0.00263143
O       11.61462270       7.46465220       0.00130093       0.00931966      -0.00656468       0.01069786
C       10.70752693       7.95890893       0.99194280       0.00767714      -0.00366811       0.00750512
C        9.52954795       7.01838899       1.16976914       0.00249857       0.00193584       0.00214498
C       11.43526780       8.25471728       2.29173234       0.00382274      -0.00698146       0.01042354
H       10.34779471       8.90185114       0.57899023       0.01343516      -0.00183392       0.00678590
H        8.78840090       7.44607819       1.84590341       0.00187263       0.00544810      -0.00080374
H        9.04692157       6.82482770       0.21167089       0.00553533       0.00505324      -0.00001225
H        9.85422646       6.06456437       1.59075652      -0.00425863       0.00009172       0.00309694
H       10.74889102       8.66879399       3.03353327       0.00242871      -0.00535013       0.00825307
H       12.23365262       8.97630530       2.12055254       0.00648022      -0.00931898       0.01370328
H       11.86982990       7.33956745       2.70527070      -0.00034571      -0.00851433       0.01133133
H       11.99584500       6.64782979       0.33743349       0.00250651      -0.01003874       0.01010169
O       11.81792689       1.98756543       1.85528216       0.01330596       0.00756735      -0.00800840
C       10.71234336       2.69668784       2.41030797       0.01084438      -0.00221580      -0.00040968
C       11.19027660       3.92822797       3.16164158       0.00276464       0.00120682       0.00016296
C        9.78772763       3.03468294       1.26354883       0.00304109      -0.00379857       0.00524282
H       10.16892301       2.04460049       3.10645278       0.01856810      -0.00761577       0.00005600
H       10.34420248       4.51695576       3.52022822      -0.00256357      -0.01096493       0.00765037
H       11.80059008       3.65017424       4.02377828       0.01244701       0.00817023      -0.00486465
H       11.79892912       4.54644365       2.49774050      -0.01125436       0.01228780      -0.00213510
H        8.90276409       3.55780950       1.62854411       0.00244337      -0.00842026       0.01145092
H        9.46467843       2.12625392       0.75743456       0.00534378      -0.00373346       0.00361197
H       10.30379372       3.66696379       0.53785792      -0.00343396       0.00119701       0.00492863
H       12.47766304       1.84548397       2.54185007      -0.01121528      -0.04803529       0.00192457
O        6.79277182       2.31664236       5.84132186      -0.00704312      -0.01267148      -0.00947380
C        7.92248076       1.55885719       5.36917249      -0.00659430      -0.01792385       0.00000381
C        9.15648315       2.31924162       5.81075003      -0.00653338      -0.01528764      -0.00372708
C        7.88124696       0.14336417       5.90497861      -0.00850444      -0.01302636       0.01305449
H        7.88370520       1.53816010       4.27194555      -0.00396678      -0.02795668       0.00017524
H       10.05654865       1.84467974       5.41962857      -0.00638197      -0.01948164       0.00167325
H        9.12053875       3.34819435       5.45243773      -0.00449782      -0.01799464      -0.01189744
H        9.22168408       2.32976607       6.89952733      -0.00826636      -0.00692524      -0.00369154
H        8.69491731      -0.44283226       5.47476750      -0.00785123      -0.01731613       0.02022809
H        6.93598888      -0.34114335       5.65365240      -0.00823456      -0.01504701       0.01602447
H        7.98548135       0.14006863       6.99017589      -0.01048285      -0.00317743       0.01322925
H        6.00119521       1.77847288       5.71655887      -0.00832622      -0.00977342      -0.01424430
O        6.90452517      12.22069911       1.30418934       0.02672166       0.03047276       0.01688850
C        7.68136954      11.06873630       1.56005991       0.00822318       0.01464635      -0.00048894
C        9.10868974      11.55490901       1.75509603       0.01655179      -0.00896353      -0.00472090
C        7.15473354      10.28079371       2.75057500       0.00158447       0.01404503      -0.00360644
H        7.66187664      10.42106802       0.67135102      -0.00752312       0.02169800      -0.00532484
H        9.81590891      10.73660204       1.89721349       0.00426631      -0.02081475      -0.01365102
H        9.42046994      12.12227458       0.87808749       0.02088852      -0.00747050      -0.00218566
H        9.15477403      12.21561987       2.62455795       0.03066114      -0.01562139      -0.00042193
H        7.83206337       9.46127808       3.00379599      -0.01189063       0.00002968      -0.01375579
H        6.17508915       9.85302428       2.53817834      -0.00733113       0.03363743      -0.00131655
H        7.05498346      10.92167976       3.62766661       0.01807593       0.00968300       0.00141323
H        6.05499478      12.19798371       1.78048082       0.01605478       0.02376554      -0.00199929
O        3.97339690       4.83360246      10.46467468      -0.00289369      -0.00509363       0.00220591
C        2.81196315       4.07484256      10.80766521      -0.00480402      -0.00360340      -0.00087912
C        1.55834121       4.70009447      10.21623890      -0.00237924      -0.00053895      -0.00258267
C        2.96714243       2.62000436      10.40608538      -0.00630730      -0.00335193      -0.00246435
H        2.76065738       4.14821979      11.89703321      -0.00663815      -0.00500188      -0.00090075
H        0.66838078       4.17032915      10.56248129      -0.00407398       0.00044264      -0.00564826
H        1.47849100       5.74968711      10.49938419      -0.00120494      -0.00089841      -0.00103995
H        1.57989765       4.63725632       9.12536981       0.00007729       0.00123386      -0.00269438
H        2.10364600       2.03683628      10.73584598      -0.00911392      -0.00195738      -0.00682097
H        3.86125258       2.16717942      10.83188864      -0.00897425      -0.00609922       0.00007463
H        3.02254842       2.53050456       9.31804535      -0.00278634      -0.00200850      -0.00234851
H        4.17785979       4.67845148       9.53442417      -0.00521688       0.00084706       0.00078955
O        4.62692606       0.62804891       2.48823699       0.00487459      -0.00088888      -0.00556612
C        4.15833775       1.48131137       1.45432567       0.00122255      -0.00320697      -0.00588518
C        2.74123614       1.94584229       1.74793804       0.00149053      -0.00517491      -0.00273439
C        5.13649098       2.63750850       1.29431356      -0.00044018      -0.00222540      -0.01110674
H        4.16111184       0.89726214       0.52409219      -0.00012491      -0.00550693      -0.00428617
H        2.34896598       2.54651421       0.92619601      -0.00290938      -0.00781814      -0.00237685
H        2.08785474       1.08392173       1.88688037       0.00425948      -0.00661723       0.00062286
H        2.71617490       2.53347222       2.66837711       0.00203288      -0.00356413      -0.00380060
H        4.84790938       3.29200702       0.46773274      -0.00393290      -0.00442237      -0.01162807
H        6.13473161       2.24379722       1.09931921      -0.00061950      -0.00133033      -0.01373767
H        5.18006680       3.22558384       2.21246184       0.00176417      -0.00015979      -0.01254044
H        3.96502892       0.57752027       3.22884877       0.00931605       0.00292916      -0.00148296
O        6.92373433       4.39685343       3.96320494       0.00742120      -0.00375599       0.00130889
C        5.83324377       5.30145814       4.12872207       0.00548556      -0.00620407       0.00189408
C        5.89914073       5.98407846       5.48377315       0.00323740      -0.00753108       0.00277138
C        5.89175313       6.29203919       2.98595768       0.00376586      -0.00438440       0.00342041
H        4.88799758       4.74192961       4.05886760       0.00683755      -0.00819117       0.00082446
H        5.09627381       6.71078703       5.61360817       0.00149769      -0.00937642       0.00269963
H        5.86011982       5.25158570       6.29213664       0.00410252      -0.00822791       0.00216809
H        6.84328514       6.52430760       5.55684516       0.00202657      -0.00558408       0.00391729
H        5.05420417       6.98628569       3.03929710       0.00359645      -0.00475416       0.00547807
H        5.87163923       5.77519728       2.02604416       0.00324575      -0.00274256       0.00257145
H        6.81227650       6.87398558       3.04849385       0.00362362      -0.00400938       0.00348780
H        6.82513838       3.70543354       4.64335559       0.00473097      -0.00838333      -0.00375723
