150
Lattice="12.536716929408927 0.0 0.0 0.0 12.536716929408927 0.0 0.0 0.0 12.536716929408927" Properties=species:S:1:pos:R:3:forces:R:3 energy=-94406.0546875 stress="-0.0005248977104201913 6.927327194716781e-05 -0.00020442788081709296 6.927327194716781e-05 0.0006531286635436118 6.7300776436240994e-06 -0.00020442788081709296 6.7300776436240994e-06 -0.0014247200451791286" pbc="T T T"
K       14.28998335      13.65681490      -0.53258963      -0.01268516       0.02821545      -0.01135433
O       12.26104709       6.86263584       1.36312959       0.00953007      -0.00079167      -0.00953269
O       10.05321111       6.64890301       0.96101509       0.00727844       0.01049566       0.01052797
C       10.93191006       8.82496684       1.22990643      -0.01825318       0.00238180      -0.00964717
C        9.66298804       9.39245683       1.20232887       0.03851473       0.01002577       0.00167790
C       12.04086989       9.66303641       1.31135578       0.03765415       0.00609230      -0.01763785
C        9.49908588      10.77057591       1.24316659      -0.00456247       0.00168529      -0.00276470
C       11.88227089      11.04402233       1.37692194       0.00019370       0.00484397      -0.02285646
C       10.60678210      11.60556882       1.33286983       0.04648797       0.00927982      -0.01019928
C       11.09218520       7.29876632       1.18672948      -0.00120729       0.00335407      -0.00461409
H        8.81695990       8.72140387       1.15339261       0.00672790       0.00737770       0.00990804
H       13.01614577       9.19848734       1.33399996       0.00653282       0.00276011      -0.02487463
H        8.50101426      11.19326094       1.21783101       0.02666847       0.01022099       0.00618942
H       12.74978102      11.68477107       1.52640295       0.02582370       0.00128103      -0.03113839
H       10.47660830      12.68077978       1.39014959       0.02166993       0.00404777      -0.01462847
C        4.82554114       4.21608134       5.51802056      -0.00478718       0.00271302      -0.00228832
C        4.34643414       2.90887253       5.61747776       0.00066483      -0.00481327      -0.00135011
C        6.18661044       4.40494334       5.27291931      -0.00208960      -0.00262699      -0.00341073
C        3.90147588       5.38210569       5.69269848      -0.00558853      -0.00120839      -0.00354494
C        5.19966464       1.82178390       5.48206610      -0.00445901       0.00530571       0.00062181
C        7.04334675       3.31930892       5.12873095      -0.00509186       0.00844825      -0.00178053
C        6.55354405       2.02304305       5.23501994       0.00095750      -0.00232317      -0.00090156
H        3.29008432       2.74895001       5.80328542      -0.00270151      -0.00131230      -0.00017235
H        6.57597295       5.41391271       5.18948749      -0.00561801       0.00325517      -0.00428561
H        4.27121779       6.26482115       5.17188485      -0.00541277      -0.00010711      -0.00222345
H        2.90518605       5.15466569       5.31210268      -0.00450094      -0.00165714      -0.00619086
H        3.79830084       5.63551566       6.75110160      -0.00862246      -0.00155586      -0.00378799
H        4.81175022       0.81292031       5.56709434       0.00045469      -0.00047766       0.00131251
H        8.09410028       3.48547472       4.92377047      -0.00291920       0.00352613      -0.00249430
H        7.21745382       1.17645752       5.12462142      -0.00128687       0.00464046       0.00041293
C        8.99813982      10.19755970       4.43053336       0.00643359       0.00635839      -0.00072129
C        7.78664157       9.53460804       4.24405343       0.00539756      -0.00990124      -0.00065749
C       10.15374250       9.43388772       4.58761110       0.00539520      -0.00784679      -0.00107892
C        9.06006897      11.69527865       4.44310608       0.00418655       0.00068179      -0.00184301
C        7.73522560       8.14824719       4.18159990       0.00631823       0.01149049       0.00146889
C       10.10959203       8.04812763       4.51246720       0.00968237       0.01379695       0.00203735
C        8.90004017       7.40072435       4.29409646       0.00719721      -0.00835675       0.00079874
H        6.87276708      10.10913203       4.13587372       0.00476287       0.00056215      -0.00066958
H       11.10560111       9.93174204       4.73311736       0.00716198       0.00458740      -0.00096502
H       10.04781178      12.04947439       4.15168793       0.00444388       0.00245078      -0.00161226
H        8.33044159      12.12115438       3.75266688       0.00430362       0.00052886      -0.00246069
H        8.83985740      12.08777133       5.43712480       0.00364639       0.00195673      -0.00231934
H        6.78409572       7.65742796       4.01675857       0.00697695      -0.00160602       0.00143391
H       11.02575401       7.47552319       4.58398560       0.00822964       0.00212825       0.00199208
H        8.87254495       6.32401017       4.18339795       0.00880404       0.00488907       0.00330571
C        1.00936458      10.45196363       8.30747509       0.00122297       0.00364429       0.00328475
C        0.91522008       9.14633512       8.78778152      -0.00332426      -0.00473703      -0.00024211
C        1.21169176      10.64938353       6.94078469       0.00071911       0.00191806       0.00612329
C        0.92785929      11.62123790       9.25303770       0.00666368      -0.00369816       0.01004139
C        1.02461266       8.06258805       7.92366408      -0.00594320       0.00615174      -0.00426761
C        1.31781098       9.56637442       6.07450128      -0.00173224       0.01346531       0.00142685
C        1.22304088       8.26936568       6.56420025      -0.00511831       0.00283821      -0.00264885
H        0.75175700       8.97520948       9.84629237      -0.00400619      -0.00416610      -0.00113060
H        1.28146160      11.65971169       6.55192664       0.00295724       0.00767996       0.00902884
H        0.58519855      12.52324309       8.74266661       0.00310232      -0.00146130       0.01526116
H        0.24860568      11.40775256      10.08369688       0.01300718      -0.00742095       0.01349625
H        1.92489071      11.82855281       9.66609691       0.00926365      -0.00354799       0.00320122
H        0.94223933       7.05691852       8.31551508      -0.00817295       0.00032194      -0.00775395
H        1.47963196       9.72892011       5.01591228      -0.00097841       0.01216396       0.00289629
H        1.31310397       7.42652338       5.89000411      -0.00611092       0.01053305      -0.00588629
C       10.56670543       5.31388944       8.41637840       0.00055204      -0.01090218       0.00156765
C       10.82986530       6.52201545       9.06260402      -0.00010721      -0.01178393       0.01156650
C       10.80327509       4.12999663       9.11557559       0.00485550      -0.01173764       0.00523721
C       10.04542519       5.29816259       7.01009999       0.00311169      -0.00907846       0.00346199
C       11.31297665       6.54841163      10.36434350      -0.00546198      -0.01314871       0.00200988
C       11.27740800       4.15754834      10.42377753       0.00052601      -0.01483580      -0.00360597
C       11.53183334       5.36590962      11.06182628       0.00000329      -0.01429253       0.00953743
H       10.64655743       7.45205996       8.53537436      -0.00336046      -0.01038541       0.00807349
H       10.58544273       3.18162857       8.63555510       0.00545727      -0.01193094      -0.00139914
H        9.43034915       4.41713865       6.82531878       0.00390631      -0.00935762       0.00142115
H        9.44939367       6.18541625       6.79744258       0.00257824      -0.00917989       0.00403667
H       10.86206941       5.28585915       6.28223827       0.00392702      -0.00775695       0.00423960
H       11.49133066       7.49465152      10.86116957      -0.00536786      -0.01428613       0.01025122
H       11.40736707       3.22383066      10.96490285       0.00376905      -0.01444959      -0.00041230
H       11.84346978       5.42084776      12.09841363      -0.00323323      -0.01616821       0.00319615
C        5.68875222       3.71362750       9.54386790      -0.00812931      -0.00354839      -0.00289205
C        5.03022763       2.48288658       9.52685045      -0.01018158      -0.00381070      -0.01043046
C        4.91254804       4.87374557       9.59775607      -0.01057398      -0.00428143       0.00082421
C        7.18277405       3.78893250       9.44633140      -0.00893676      -0.00415613       0.00081335
C        3.64020302       2.41851090       9.53218349      -0.00673908      -0.00369598      -0.01435010
C        3.52396740       4.81262792       9.62095029      -0.00715130      -0.00362363      -0.00105260
C        2.87620303       3.58183668       9.57829982      -0.01002632      -0.00408972      -0.00882137
H        5.61316509       1.57043980       9.48395747      -0.00847112      -0.00382902      -0.01186445
H        5.40927042       5.83725415       9.61580631      -0.00924890      -0.00367858       0.00603710
H        7.57361647       4.71668567       9.86295211      -0.00901082      -0.00418213       0.00111224
H        7.66329296       2.95544118       9.95985736      -0.01044848      -0.00422008       0.00210270
H        7.49164100       3.74814743       8.39754134      -0.00765216      -0.00553603       0.00139701
H        3.16037610       1.44592335       9.44633507      -0.00805219      -0.00328480      -0.01884047
H        2.94553639       5.72775881       9.66402073      -0.00951530      -0.00447805       0.00190898
H        1.79175849       3.54735983       9.56605536      -0.00795386      -0.00406455      -0.01097940
C        5.73678258       9.41448421       7.59949562      -0.00185430       0.00287198      -0.00224539
C        5.57783590      10.79751343       7.49050543       0.01073368       0.00439352      -0.00006803
C        7.02653551       8.89950821       7.69255042       0.01093583       0.00439450      -0.00009469
C        4.54285536       8.51379859       7.61388753       0.00388646       0.00212610      -0.00613881
C        6.67913186      11.64243529       7.50074572      -0.00523438       0.00022714       0.00135687
C        8.13103563       9.73972375       7.70203792      -0.00437081      -0.00126370       0.00184263
C        7.95974932      11.11321516       7.62109971       0.01104404       0.00279139       0.00314423
H        4.57545332      11.20717826       7.41123382       0.00203208       0.00307761      -0.00113016
H        7.16445154       7.82748333       7.77837451       0.00257917       0.00144289      -0.00149284
H        4.78170220       7.55095649       8.06469975       0.00339551      -0.00042066      -0.01213793
H        3.71613939       8.95868108       8.16791145       0.00342409      -0.00100645      -0.00269523
H        4.17579222       8.32344056       6.60313683       0.00222542       0.00827513      -0.00696117
H        6.53842866      12.71458452       7.42498967       0.00459605       0.00221220       0.00248776
H        9.12658250       9.32218773       7.77917832       0.00451547       0.00085013       0.00309226
H        8.82087482      11.76902875       7.65457041       0.00185234       0.00034682       0.00359356
C        4.25415150       9.57371625       2.10069238       0.00546481       0.00310168       0.00327305
C        2.92317025       9.25460096       2.37249060       0.00373118      -0.00024464       0.00364443
C        5.16357449       8.53247961       1.92990952       0.00379014      -0.00027706       0.00395257
C        4.69671259      11.00525265       1.99174595       0.00434807       0.00184032       0.00248521
C        2.50084856       7.93376710       2.46903023       0.00526179       0.00456434       0.00359025
C        4.75339069       7.20803366       2.03883402       0.00614265       0.00481609       0.00364246
C        3.42403559       6.90654847       2.30550342       0.00358722      -0.00010048       0.00441645
H        2.20230032      10.05859119       2.48917457       0.00557765       0.00307352       0.00302033
H        6.19628108       8.75726722       1.69440805       0.00541024       0.00178451       0.00365253
H        5.59303980      11.09598636       1.37760061       0.00655450       0.00114038       0.00553161
H        3.91370909      11.62733761       1.54833413       0.00595996       0.00075638      -0.00184946
H        4.91825819      11.43554451       2.97349208       0.00073654       0.00397101       0.00235549
H        1.45262830       7.68879667       2.60300195       0.00446746       0.00117768       0.00385331
H        5.47584998       6.41203332       1.89686221       0.00451057       0.00219259       0.00364714
H        3.09744595       5.87661036       2.37004380       0.00557586       0.00290583       0.00468435
C        3.82754376       2.67567808       1.42919391      -0.00799581       0.00189182      -0.00072566
C        2.94000176       2.04479515       2.30912554      -0.01030556      -0.00048637      -0.00416458
C        3.31073828       3.62843733       0.54387077      -0.00302146       0.01004738       0.00680348
C        5.29987810       2.38011207       1.46103377      -0.01056108      -0.00904966      -0.00454699
C        1.58593923       2.38309236       2.32739429      -0.00911925       0.00579096      -0.00253667
C        1.96224747       3.97718222       0.56607231      -0.00190681       0.01616238       0.00882302
C        1.09114802       3.36308896       1.46545729      -0.00434911       0.01253185       0.00430648
H        3.32838370       1.32647543       3.02209832      -0.01387503      -0.00573914      -0.00867242
H        3.98197231       4.12706256      -0.14656883      -0.00166782       0.01308271       0.01010802
H        5.87720022       3.28964737       1.29247900      -0.00378662      -0.01368031      -0.00589047
H        5.59630261       1.96462998       2.42366893      -0.01044004      -0.01239131      -0.00617731
H        5.59065199       1.66899238       0.68182854      -0.02110295      -0.01123917      -0.00631258
H        0.92733400       1.91090324       3.04750655      -0.00968717       0.00476004      -0.00362459
H        1.59068947       4.75717756      -0.08692772       0.00266246       0.02385578       0.01674767
H        0.05861183       3.68793799       1.51797550      -0.00278679       0.01806941       0.00674984
C        7.07183843      10.54832597      11.02438428      -0.00832688       0.00030363       0.00567685
C        8.20248490       9.73569451      10.95849261      -0.00769091      -0.01143212       0.00842937
C        5.82394960       9.93510182      11.13100082      -0.00796518      -0.00758367       0.00338129
C        7.20716675      12.04296783      10.99243376      -0.00547885      -0.00370857       0.00579706
C        8.10040741       8.35480437      11.04900217      -0.00993416       0.00309724       0.00708540
C        5.70991540       8.55134466      11.20213363      -0.01181214       0.00609075       0.00231795
C        6.85213991       7.76079446      11.18057382      -0.00995329      -0.00882643       0.00516507
H        9.18038596      10.19644871      10.87884129      -0.00682667      -0.00511163       0.00996763
H        4.93120719      10.55084144      11.18372748      -0.00835515       0.00048959       0.00194988
H        6.34310981      12.53079967      11.44664951      -0.00692272      -0.00226479       0.00265611
H        8.10488810      12.36909311      11.52056132      -0.00742526      -0.00409283       0.00924830
H        7.28671952      12.40413490       9.96471681      -0.00136793      -0.00336997       0.00627300
H        8.99071719       7.74057297      11.07018721      -0.00984952      -0.00624773       0.00930658
H        4.73385964       8.09644123      11.32046327      -0.01103412      -0.00043471       0.00091433
H        6.78096373       6.68699040      11.30112368      -0.01292035      -0.00024401       0.00383359
