148
Lattice="12.498058502397006 0.0 0.0 0.0 12.498058502397006 0.0 0.0 0.0 12.498058502397006" Properties=species:S:1:pos:R:3:forces:R:3 energy=-548467.5 stress="-0.0006411029607988894 -0.00036275408638175577 -0.0003594946610974148 -0.00036275408638175577 -0.0014347167452797294 -0.00022278257529251277 -0.0003594946610974148 -0.00022278257529251277 -0.0019261095440015197" pbc="T T T"
La      13.43669060      12.22046162      -1.50534926       0.01238132       0.00100961       0.00089669
Br       2.23044173      10.45967652       0.91886934      -0.00366735      -0.01390842       0.00161076
O        3.64414659       9.68206389       1.06945669      -0.00223148      -0.01390094      -0.00748253
O        1.48256991       9.89352876      -0.47064613      -0.00356120      -0.00289261      -0.00336778
O       -0.55657022      12.42148814      -0.34860454      -0.00156200      -0.00047508      -0.01732326
O        2.57755904      12.04483842       0.45972682      -0.00709510      -0.00982201       0.01819903
Br       1.22694454       9.69152252       7.74079709       0.00811647       0.00103475       0.00542789
O        1.12634767      11.01334929       8.74094008      -0.00052053      -0.00412929       0.00872417
O        0.72310075       8.38066378       8.53568153       0.02055565      -0.00565863       0.00356537
O        0.24223815       9.99313375       6.48956504       0.00135630      -0.00367716       0.00902307
O        2.75601931       9.53308758       7.26418705       0.00655746       0.01377644      -0.00064319
Br       5.72897444      11.65093684      10.34735971      -0.01852201       0.01517329       0.00285292
O        4.18578704      12.03573030       9.97258506      -0.02172709       0.01094331       0.01089269
O        5.82903544      10.09064822      10.75487267      -0.01124679       0.01317525      -0.00871688
O        6.68319059      11.98783505       9.08187249      -0.02387422       0.02724794       0.00317585
O        6.21600046      12.57414499      11.60405405      -0.01659405       0.00828850       0.00520313
O       10.71472140       6.87823209      10.36962142      -0.01903880      -0.00467837      -0.00341216
N        9.95188746       9.03164913      10.15490022      -0.01696976      -0.00370526      -0.00114453
C       11.20240599       9.69564268      10.43338511      -0.01293475      -0.00685675      -0.01145638
C        8.84227970       9.90319355       9.82994661      -0.01724386      -0.00139685       0.00509278
C        9.82766130       7.70103275      10.15656386      -0.02135539      -0.00128329       0.00113194
H       11.09974685      10.33121154      11.31776562      -0.00434752      -0.00414279      -0.01279953
H       11.45476010      10.33427945       9.58275620      -0.01567350      -0.01025462      -0.01435333
H       11.99574353       8.96853763      10.56746896      -0.01507509      -0.00976622      -0.01438963
H        8.64479912      10.58656686      10.65775833      -0.01184057      -0.00145039       0.00621939
H        7.94139101       9.33196687       9.63301563      -0.01874316      -0.00016862       0.01011616
H        9.07464958      10.49621041       8.94373921      -0.02155444      -0.00178882       0.00379252
H        8.78751173       7.39708647       9.95219254      -0.02159810      -0.00122687       0.00817029
O        7.63148996       9.37026930       6.64598904       0.02581024      -0.00375867      -0.01237264
N        9.21102005       7.72598734       6.84118853       0.01214465      -0.00545043      -0.00285333
C        8.29033859       6.72434116       7.31578120       0.00402073      -0.00013573      -0.00542452
C       10.57670698       7.31049720       6.60961901       0.01143063      -0.00685157       0.00871562
C        8.76962505       8.96547845       6.51132273       0.00704694      -0.00066876      -0.00227436
H        8.71913971       6.20465863       8.17270777      -0.00115789      -0.00249243      -0.00461107
H        8.08478678       5.98089175       6.53668618       0.00254596       0.00194156      -0.00668085
H        7.35705357       7.20529928       7.59887063       0.00671872       0.00459251      -0.00783030
H       11.04505436       6.99032802       7.54256325       0.00456734      -0.00669247       0.01111269
H       11.15235839       8.13328968       6.19469349       0.01511075      -0.00907865       0.01015297
H       10.60015033       6.48879582       5.89057876       0.01681539      -0.01011819       0.00834242
H        9.58794757       9.59050703       6.11000173       0.02169055      -0.00377631       0.00331965
O        5.27728342       9.13076018       4.38000517      -0.02074671      -0.00379038      -0.01155037
N        3.32797149      10.28850395       4.41591542      -0.01901203       0.00923967      -0.00733218
C        2.54915734       9.11628757       4.08381839      -0.02280179       0.01167645       0.00128819
C        2.65972647      11.53438011       4.70945025      -0.01435074       0.01275255      -0.00590373
C        4.66303973      10.16346876       4.59056105      -0.02268845       0.01292562      -0.00771835
H        1.58238749       9.41542941       3.68472088      -0.02998295       0.01138116       0.02139969
H        2.36262659       8.50768713       4.97214903      -0.00458076       0.00583512       0.00063157
H        3.09203256       8.52125602       3.35025805      -0.03615308       0.01436293      -0.01080006
H        2.27836439      12.00403476       3.79609846      -0.02399214       0.00856280      -0.00359374
H        3.37092676      12.20987731       5.18619178      -0.00904357       0.01388489      -0.01701470
H        1.81823747      11.36933243       5.38078548      -0.00733155       0.01683074       0.00373206
H        5.15273589      11.08372302       4.93887660      -0.01609057       0.00136697      -0.01390266
O       11.59747579       7.72208647       3.67977722       0.02722871       0.00231767       0.01033151
N       10.61489044       7.45901652       1.64122295       0.00916954      -0.00111610       0.00657773
C       11.60121126       8.27084667       0.96084683       0.00601435      -0.00565566      -0.00153441
C        9.50267988       6.94293094       0.87648429       0.00335403       0.00013976       0.01008277
C       10.71246818       7.27021902       2.97239012      -0.00334448      -0.00216302      -0.00425035
H       11.21012576       9.26695548       0.73596995       0.01249550      -0.00262910       0.00241200
H       11.89666482       7.79598910       0.02680100      -0.00273828      -0.00569850      -0.00316456
H       12.46060105       8.37822243       1.61604272       0.01237023      -0.01187468      -0.00700733
H        8.94642511       7.75883604       0.40659445       0.00237800       0.00128824       0.01323830
H        8.82054365       6.42012881       1.54237028       0.00625928      -0.00017563       0.01228911
H        9.85992610       6.27683332       0.08945326      -0.00058213       0.00108707       0.00710934
H        9.89033018       6.64838857       3.36440999       0.01384681       0.00416005       0.00808826
O       11.68169749       1.68577369       3.27088812       0.01881337      -0.00853395      -0.00346291
N       10.46170415       2.93851200       1.79225056       0.00402315      -0.00968361      -0.00076503
C       11.46432685       3.96408665       1.65888790       0.00110462      -0.00917296      -0.00976166
C        9.22013246       3.10089382       1.07131895       0.00212461      -0.01425734      -0.00153576
C       10.67935740       1.88506822       2.60789602      -0.00011110      -0.00806135      -0.00792962
H       11.15192618       4.88934600       2.14610278      -0.00234725      -0.00451750      -0.02180307
H       11.64870324       4.17634066       0.60275393       0.00527380      -0.02085636      -0.01118353
H       12.37155904       3.61260219       2.13801411       0.00067708      -0.00219460      -0.00330150
H        8.62702010       3.92462497       1.47345099       0.00089288      -0.01391178      -0.00409079
H        8.62431395       2.19435343       1.15642015       0.00379570      -0.01475456       0.00009547
H        9.42927567       3.27895931       0.01544142       0.00205366      -0.01696082      -0.00192270
H        9.80904114       1.21281352       2.62941224       0.01071125      -0.00954390       0.00142878
O        6.08970531       0.31635076       5.83319797      -0.00176644       0.01580280      -0.02048400
N        7.81529811       1.73822397       6.24049375      -0.00116595      -0.00314486      -0.00639887
C        6.91317755       2.74073318       6.76661178       0.00751433      -0.00285931       0.00785579
C        9.12288732       2.17482369       5.79870713       0.00272940      -0.01167157       0.00227307
C        7.27754685       0.57383126       5.80002031      -0.02406180       0.00353020      -0.01647994
H        6.52369134       3.37205712       5.96597777       0.02235922       0.01809999       0.01827535
H        7.43474710       3.36579936       7.48918282       0.01145001      -0.02469842       0.02261992
H        6.08676011       2.23713904       7.26150185      -0.00133780      -0.00028190      -0.00733014
H        9.03828740       2.85667344       4.94517471       0.01151696      -0.00082558       0.01092887
H        9.72685639       1.32033052       5.49902661      -0.00589292      -0.01406649      -0.00774265
H        9.64315722       2.69571294       6.60566304       0.00629066      -0.02852789       0.00923505
H        8.03297096      -0.13226693       5.41374569      -0.01517338       0.00419444      -0.02570021
O        7.91660447       8.32310529       3.03104596       0.00482821      -0.00441694       0.02099758
N        7.77245178      10.42690815       2.13087279      -0.00069451      -0.01277944       0.00035593
C        6.37586160      10.35897373       1.75261784       0.00273818      -0.02514834      -0.01022673
C        8.45281667      11.67674621       1.88527699      -0.00765441      -0.00985085      -0.00653607
C        8.39052785       9.41913691       2.77170462       0.00166348       0.00220597       0.01306242
H        6.25740874      10.53909582       0.68594747       0.01072671      -0.04578346      -0.01378119
H        5.81499330      11.12776125       2.29033916      -0.00478093      -0.01867819      -0.02996576
H        5.97962106       9.38978068       2.02743197       0.00392915      -0.02115911       0.00466035
H        8.28461911      11.99856775       0.85556903      -0.00767051      -0.01743989      -0.00862724
H        9.52502815      11.56568754       2.04461183      -0.00748676      -0.00306823      -0.00413495
H        8.06696309      12.45898779       2.54810427      -0.01282519      -0.00766802      -0.01266167
H        9.43155125       9.68352526       3.03313689      -0.00380987       0.00806043       0.01994047
O        6.05765300       3.72576543      10.29145239       0.00385273       0.02338350      -0.00574857
N        3.81737711       3.29838977      10.20146531       0.00310141       0.02061822      -0.00200407
C        3.44169172       4.67126896       9.96109791       0.00016048       0.01863384      -0.00617313
C        2.76719763       2.31054970      10.20696851       0.00380648       0.01956810       0.00291576
C        5.11642517       2.94781580      10.36152032       0.00264156       0.02176189      -0.00292402
H        2.76363441       5.02066398      10.74398367       0.00010774       0.01981449      -0.00720653
H        2.93251282       4.77247996       9.00039460      -0.00099820       0.01369123      -0.00616866
H        4.34314896       5.27723426       9.96415399      -0.00149241       0.02082643      -0.00985111
H        2.04288278       2.51382697      11.00933086       0.00279848       0.02394368       0.00034505
H        3.22119383       1.32283926      10.33675978       0.00402606       0.02102235       0.01018001
H        2.21748011       2.32231806       9.26116393       0.00525732       0.01208305       0.00226060
H        5.24672988       1.87914440      10.57675168       0.00484872       0.02349615      -0.00089490
O        1.38536808       3.89477443       4.28706928      -0.01491106       0.03059185       0.01734376
N        2.44700216       3.28788616       2.36142750      -0.00135703       0.01002446       0.00686440
C        2.45479660       4.61881953       1.80372733       0.01000666      -0.00047121       0.00425584
C        3.12700376       2.25287670       1.62099027      -0.00269803      -0.00038045       0.00013842
C        1.87408369       3.04533688       3.56710538       0.01623082      -0.04075092      -0.01237601
H        1.97448024       4.61703355       0.82114580       0.00955302       0.00819744       0.00607097
H        3.47875473       4.98181936       1.68162519       0.00847670       0.00237738       0.01126590
H        1.90722977       5.28155569       2.46986383       0.00653495       0.00291249       0.00935417
H        2.64313537       2.07338579       0.66023593      -0.00294161       0.00994434      -0.00441682
H        3.09553260       1.31703421       2.17090262      -0.00856965      -0.00124043      -0.00771983
H        4.17016438       2.52784603       1.44259760       0.00071192      -0.00411375       0.00016617
H        1.90666034       1.97799035       3.83422001      -0.00077530       0.01028061      -0.00357112
O        6.88593382       4.03956643       3.16342000       0.01386735       0.03322995       0.01001465
N        5.62523733       5.28398985       4.60966402       0.00169253       0.01117285       0.00812390
C        4.51658545       4.36265288       4.67067666       0.01171021      -0.00132708       0.00338946
C        5.49105528       6.49966436       5.38364081      -0.00731960       0.00663657       0.00940941
C        6.69260576       5.05335072       3.82687559       0.00764048       0.01035780       0.00005412
H        3.60451832       4.85925177       4.34058121       0.00746948      -0.00602183       0.00650379
H        4.34611099       4.02985737       5.69713389       0.01539406      -0.00538986       0.00246868
H        4.72942891       3.50198868       4.04258740       0.01770747       0.00443384       0.00051293
H        4.58356224       7.02912559       5.10320115      -0.01120237      -0.00018892       0.00934693
H        6.31884651       7.17288705       5.18260503      -0.01236019       0.01324728       0.01193962
H        5.44552840       6.26150222       6.44902688      -0.00616247       0.00321010       0.00834742
H        7.40123031       5.89859481       3.84097832      -0.00113010       0.02778095       0.00992896
O       12.18300486       1.66790008       9.76857411       0.01160854      -0.00505602      -0.01584426
N       10.07785221       2.56167672       9.83829818       0.01215598      -0.00604990      -0.00053381
C        9.37668880       1.29956298       9.66192790       0.01169600      -0.00717223       0.01129999
C        9.28895666       3.78132118       9.80346858       0.01280601      -0.00606078       0.00203912
C       11.40640313       2.62153626       9.89341378       0.01342618      -0.00649187      -0.01377265
H        9.09704327       1.14769349       8.61675947       0.00917306      -0.01583038       0.01348954
H        8.45981584       1.31166590      10.24941976       0.01288855      -0.00086350       0.01284750
H       10.01995021       0.49129538       9.99931028       0.01223937      -0.00409409       0.01747641
H        8.97359242       3.99321293       8.77816728       0.00775072      -0.00563284       0.00378066
H        9.88029671       4.62517894      10.15981914       0.01362711      -0.00568205      -0.00086239
H        8.38275585       3.66352758      10.39669991       0.01591036      -0.00520488       0.00646421
H       11.77914427       3.64346010      10.06173157       0.01419073      -0.00427836      -0.02644145
