146
Lattice="12.402549809054136 0.0 0.0 0.0 12.402549809054136 0.0 0.0 0.0 12.402549809054136" Properties=species:S:1:pos:R:3:forces:R:3 energy=-378067.09375 stress="-0.0026597026735544205 -0.000544904061825946 0.0008422382816206664 -0.000544904061825946 -0.0003950578684452921 0.001743944187182933 0.0008422382816206664 0.001743944187182933 -0.0018300442025065422" pbc="T T T"
La      14.24169218      13.26638202      -1.12499170       0.03699208       0.00155190       0.00767374
O        6.25717609      10.91008578      11.43215080       0.02051300      -0.08148789      -0.05181013
O        4.05179557      10.84020280      11.13075814       0.01378277      -0.01637220       0.00108579
O        5.35478257      11.78980451       9.56363354      -0.00261120       0.03889650       0.02092648
C        5.24171397      11.23319848      10.61772627       0.01223781      -0.02163735      -0.01067430
H        7.06981368      11.10354434      10.94605420       0.01641575      -0.07325774      -0.05587369
O       10.27044635      11.31590415       5.61271162      -0.00972813      -0.00700313      -0.02405381
O        8.39861563      10.89502427       6.75460215       0.01184130       0.02723408       0.01857960
O       10.37378186      10.10165313       7.51051794       0.01812482       0.01417601      -0.01116657
C        9.62802761      10.70606664       6.71984012       0.00798032       0.01334727      -0.00355566
H       11.16940067      10.95740321       5.60267895      -0.01352406      -0.01531495      -0.04182832
O        5.92242616      11.60164749       5.39892174      -0.00854999      -0.00102305       0.00476217
O        4.12203695      11.46277648       4.11921503      -0.00258517      -0.01489389      -0.00208318
O        5.57556424       9.76461218       4.14880819       0.01227987      -0.00285745       0.00227803
C        5.16451471      10.89501823       4.50850594       0.00047350      -0.00695091       0.00069398
H        6.68419540      11.06844675       5.69442760      -0.00621676       0.00390793       0.00585201
O       10.12927507       8.55480827       2.59127282       0.00866744       0.00248323      -0.00502831
O       11.62207854       9.54748328       1.28649320      -0.00290135       0.01387718      -0.00865734
O       12.16668072       7.63159476       2.32757560       0.00999606       0.01451051      -0.01830345
C        9.38950936       9.57778914       1.90111928       0.00033855       0.00285509       0.00430919
C       10.49392838      10.43717126       1.30057738      -0.00670946       0.00929514       0.00067790
C       11.36921349       8.49740686       2.09751439       0.00799775       0.00860399      -0.01131661
H        8.76440216      10.09651288       2.62421412       0.00407138      -0.00288519       0.01113215
H        8.78268766       9.09831796       1.13210314      -0.00313774       0.00429815       0.00651261
H       10.29404712      10.73465593       0.27437379      -0.01380088       0.01275043       0.00365821
H       10.74876375      11.29705582       1.92311835      -0.00662652       0.00780502       0.00241083
O        9.06759782       4.09603532       0.54195213       0.00487454       0.00263773       0.00289817
O        9.62006816       5.99853647       1.54062324       0.00010543       0.00565273      -0.00191417
O        8.10308238       6.01801943      -0.10938131       0.00431317      -0.00097328      -0.00441110
C        9.84071279       3.69262996       1.68901162       0.00293326       0.00604457       0.00530262
C       10.43241378       5.00383087       2.19486073      -0.00450033       0.00849324       0.00761491
C        8.86375846       5.43807634       0.61659256       0.00298607       0.00224125      -0.00163868
H       10.59733332       2.98027773       1.36334707       0.00656423       0.00940903       0.00746424
H        9.15196510       3.23917275       2.39587766       0.00238949       0.00372070       0.00304085
H       10.33055353       5.13576615       3.26812045      -0.01538309       0.01014808       0.00618297
H       11.45989554       5.15984417       1.88851554      -0.00205690       0.00989860       0.01748072
O        9.59977325       3.01255987       4.70051903      -0.01072799       0.00577128       0.00629528
O        7.71510242       2.32220680       5.64680962       0.00797140       0.00209883       0.03878566
O        8.28667668       4.49082260       5.77033958       0.01053441       0.00157917       0.03423688
C        9.59024798       1.57784381       4.48307552      -0.01389503       0.00631252       0.00411935
C        8.19795960       1.15352415       4.92364101      -0.01034480       0.00938386       0.01361366
C        8.49514840       3.36531891       5.39573393       0.00289120       0.00494891       0.02841654
H       10.37372836       1.11420450       5.07579682      -0.00936925       0.00448114      -0.00371706
H        9.79302516       1.38869178       3.43062225      -0.02067287       0.00704093       0.00326014
H        7.50848706       0.97110628       4.10191679      -0.02081448       0.02814586       0.01845965
H        8.19973763       0.29960760       5.59935594      -0.00760164       0.00022405       0.00135347
O        3.24244451       4.26509618       9.47520651      -0.00658572       0.01417851       0.01339867
O        1.16105324       4.77382678       8.97510524      -0.00069666       0.01179565      -0.01085022
O        1.70391451       2.63245218       9.31196605      -0.00436515       0.01128498       0.00627961
C        3.09667541       5.66835625       9.84443921      -0.00725734       0.01771981      -0.00233877
C        1.85074225       6.06369183       9.08732879       0.00122613       0.01165920      -0.01820350
C        2.01988011       3.80623307       9.26019418      -0.00372499       0.01307723       0.00356708
H        3.99251413       6.18886778       9.55516971      -0.00317001       0.01307277       0.00026852
H        2.96537808       5.69813409      10.92270431      -0.01693135       0.02937526      -0.00373131
H        1.19966715       6.72857558       9.64752303      -0.00177537       0.02031362      -0.03238645
H        2.03405085       6.44482203       8.08580950       0.01196947       0.00101486      -0.02009046
O        2.78050440       2.14810260       2.27643775      -0.00666070      -0.01159501      -0.01137954
O        1.24876923       0.92501044       3.28956547      -0.00694257      -0.00858530      -0.00903077
O        1.03890019       1.34906382       1.11157760      -0.01093762      -0.00153887      -0.00846885
C        3.30850104       1.98656559       3.63137260      -0.00040883      -0.01974997      -0.01450369
C        2.17778780       1.27829681       4.36398869       0.00198305      -0.02191465      -0.01045376
C        1.66369769       1.46756773       2.16913539      -0.00948144      -0.00632853      -0.00826617
H        3.54826730       2.97995655       4.00265396       0.00544529      -0.02104929      -0.01358488
H        4.19251415       1.35599940       3.57320845      -0.00251919      -0.02131158      -0.02126202
H        2.53289180       0.35145366       4.80720155      -0.00872546      -0.02269083       0.00534067
H        1.62578091       1.90807434       5.05927134       0.00868538      -0.02097043      -0.00736652
O        7.23526700       6.04486605       2.97491999       0.01002043      -0.01010349       0.01197169
O        5.39816485       5.62685659       4.14247694      -0.00278866      -0.00120398      -0.00589232
O        6.40847826       3.96184551       3.00525844       0.00883685      -0.00951385       0.01752159
C        6.93565977       7.30992948       3.61848501       0.00260746      -0.00468388      -0.00285386
C        5.56210372       7.07358229       4.22386988      -0.00063908      -0.00136438      -0.00896633
C        6.36147002       5.11243766       3.35073299       0.00518399      -0.00659913       0.00840950
H        6.93053387       8.09572964       2.87211654       0.00609452      -0.01236537      -0.01064262
H        7.71095115       7.50920410       4.35559965      -0.00294527       0.00473475       0.00018889
H        5.47689651       7.38470508       5.25717143      -0.00517333       0.00105421      -0.01029098
H        4.76801149       7.55422331       3.66185853       0.00296330      -0.00140917      -0.01356149
O       11.51985988       0.80291386       9.68613338      -0.03596275      -0.00934155       0.03970170
O       12.16756112       1.14572292       7.59589198       0.00039533      -0.06147395       0.04449499
O       13.45618517      -0.05656580       9.01901180      -0.02216378      -0.02938675       0.07129024
C       10.39157187       1.44738768       9.04025925      -0.02143657      -0.01442388       0.00402177
C       11.05884487       2.05511692       7.82098737       0.00536951      -0.04802799       0.00260702
C       12.45313759       0.56600118       8.74679085      -0.02285799      -0.03430909       0.06224504
H        9.98562271       2.17384816       9.73823804      -0.03243169       0.00338511      -0.02096082
H        9.66686967       0.67390529       8.78847962      -0.02209812      -0.01355323       0.00534891
H       10.43812592       2.07299169       6.93361922       0.02282433      -0.06365460      -0.00867921
H       11.48368295       3.04240778       8.01870940       0.00759707      -0.04653209      -0.01242024
O       10.97741995       6.70362594      11.33210549      -0.00937536       0.02081203      -0.00178829
O        9.36398262       6.91316740       9.80988951      -0.00582172       0.00811246      -0.00583048
O        9.86822236       8.65386766      11.15893091      -0.02256303       0.00340736      -0.00617597
C       10.93227474       5.43025403      10.67355112       0.00223273       0.01934698       0.00075790
C        9.68130586       5.51998725       9.80819625       0.00489834       0.01056868      -0.00688586
C       10.04167867       7.53139080      10.80599376      -0.01493870       0.02233708      -0.00029051
H       10.88207398       4.64739310      11.42465303       0.00220875       0.02096692       0.00104830
H       11.83848274       5.30055180      10.09705424       0.00542265       0.02407050       0.00568742
H        9.83742344       5.19974331       8.77689857       0.01326732       0.01275463      -0.00526983
H        8.84512090       4.97681500      10.24873855       0.00783801       0.00357127      -0.01081184
O       12.48601660       7.90348440       6.66149445       0.00361636       0.00943013       0.00003722
O       10.64336487       8.05977282       5.43127724       0.00643742       0.01663844      -0.00243211
O       12.41308114       9.36412914       4.95108519       0.00976866       0.01366889       0.00270104
C       11.55056977       7.03461706       7.30747306      -0.00069585       0.01293710      -0.00173944
C       10.23767585       7.27073813       6.55831929       0.00192338       0.01695021      -0.00446483
C       11.88071574       8.53170252       5.62789843       0.00677377       0.01297253       0.00118697
H       11.48068147       7.33038060       8.35253893      -0.00199637       0.01353130      -0.00205731
H       11.91626375       6.00875876       7.21881114      -0.00425418       0.01183245      -0.00038603
H        9.77522871       6.35616427       6.19010087       0.00056027       0.01841700      -0.00586627
H        9.54619370       7.87123163       7.14682055       0.00202078       0.01773706      -0.00542229
O        1.43289100       5.01274735       2.25431958      -0.01363671      -0.01653874       0.00393554
O        2.56179674       5.91841347       0.57517959      -0.01096968      -0.01154225       0.00882787
O        0.73423710       4.68356289       0.13761120      -0.00943053      -0.00946388       0.00301957
C        2.38946712       5.91687869       2.86650203      -0.01538639      -0.01839645       0.00869173
C        3.39067523       6.10192751       1.74618761      -0.01407498      -0.01324008       0.01081669
C        1.50227351       5.16232613       0.92489096      -0.01206449      -0.01291797       0.00351220
H        2.81024471       5.43572689       3.74324179      -0.01633115      -0.02133858       0.00731489
H        1.85910931       6.83248295       3.12637767      -0.01617852      -0.01979911       0.01100102
H        3.83201960       7.09078730       1.69481715      -0.01672867      -0.01224202       0.01447389
H        4.16368206       5.33400952       1.73446030      -0.01224199      -0.01113063       0.01020759
O        6.34893173       7.15740517       9.07955994      -0.00397104       0.03083615      -0.02617449
O        4.88347117       6.86717167       7.42641322      -0.00975320      -0.00275180      -0.01503718
O        4.56727778       8.52604951       8.92316277      -0.00802052       0.01995456      -0.03743795
C        6.91617773       6.13756910       8.23510338       0.00103825       0.02132639      -0.01386602
C        5.74349507       5.70849642       7.37873510      -0.00050971       0.00397703      -0.00519189
C        5.22488581       7.62400541       8.50609988      -0.00615916       0.01222581      -0.02882838
H        7.29372150       5.33795617       8.86396630       0.00511432       0.03312635      -0.00131765
H        7.72804468       6.58027417       7.66184392      -0.00133881       0.01672754      -0.02138042
H        6.01032701       5.48802243       6.35271859      -0.00104585      -0.00301437      -0.00286320
H        5.20124019       4.85895721       7.80016448       0.00762072       0.00474057       0.00764462
O        2.28015299      11.03058289       0.10190839       0.02306515       0.00800297       0.00914403
O        4.30932700      10.96717050       1.09021825       0.02864993      -0.02173391      -0.00454289
O        3.73625370      12.76353248      -0.10499330       0.04011324      -0.01028192       0.00241854
C        2.20736928       9.99228547       1.12299771       0.01371169       0.00705475       0.00598312
C        3.67465402       9.73846041       1.44792966       0.01121956      -0.01171915       0.00130282
C        3.66412146      11.45739960       0.01769371       0.02775502      -0.00972170       0.00130387
H        1.68767703       9.13202210       0.71052292       0.00151725       0.01465926       0.00632945
H        1.65191575      10.38489779       1.97129168       0.02004224       0.01250166       0.00725663
H        3.88373760       9.59528207       2.50702540       0.00943665      -0.01167262       0.00138658
H        4.09634525       8.94005553       0.83116473      -0.00272064      -0.02090177       0.00411624
O        4.98181091       3.68399694      12.37564995       0.01617348       0.00744981       0.00926650
O        4.75534972       2.27126109      10.69418734       0.00189251       0.01950404       0.00185537
O        2.95840972       2.93027435      11.83956527       0.01069543       0.01538069       0.01389337
C        6.34703398       3.34093121      12.01181154       0.01346773       0.00555928       0.00013778
C        6.16909916       2.55494843      10.71144476       0.00519681       0.00304827       0.00212762
C        4.16607455       2.95583865      11.65738994       0.00976801       0.01552662       0.00872659
H        6.74673901       2.75353906      12.83308893       0.02054320       0.01159802       0.00173777
H        6.89098807       4.27272717      11.90709433       0.01226830       0.00463790      -0.00904917
H        6.39390780       3.13179289       9.81432006       0.01450077      -0.00377417      -0.00044039
H        6.68884437       1.60172544      10.68375570      -0.00859340      -0.00387174       0.00418432
