146
Lattice="17.331350812899018 0.0 0.0 0.0 17.331350812899018 0.0 0.0 0.0 17.331350812899018" Properties=species:S:1:pos:R:3:forces:R:3 energy=-1690408.75 stress="-0.0004885507514700294 0.00012105827772757038 0.00020633338135667145 0.00012105827772757038 -0.0005021236720494926 0.00013200398097978905 0.00020633338135667145 0.00013200398097978905 -0.0007895984454080462" pbc="T T T"
La      18.69959939      16.31063031      -1.24606238      -0.00238293      -0.00071147      -0.00874531
O       10.06541779      13.97201987       9.60638893      -0.01668465      -0.01109457      -0.00430298
O       11.77410977      13.81785838       7.63275323      -0.01525569      -0.01222622      -0.00260842
O       10.73943060      16.13211390       8.28880142      -0.00333464      -0.00970626       0.00534967
O        9.26499920      14.32286237       7.14197563      -0.01133299       0.00354999      -0.00323081
Mn      10.46306452      14.55270145       8.17511240      -0.01131228      -0.00739749      -0.00122293
O        1.77205259      15.91132385      13.76108627      -0.00149608      -0.01089513      -0.00725639
O        2.65699954      13.47207309      13.24128185       0.00246763       0.00285769       0.01622510
O        3.19736053      14.79235300      15.47098851       0.00347859       0.00171983      -0.00222027
O        4.31133305      15.46440858      13.18214875       0.00156307      -0.01305962      -0.01308143
Mn       3.02426355      14.86588557      13.85999368      -0.01222962      -0.03590107      -0.01156962
O       -0.06901293      15.94183198       9.20596474      -0.00359094       0.01247860       0.00548017
O       -0.71168154      14.94327791       6.75556783       0.00609058       0.01175730       0.00270101
O        1.80942806      15.15726518       7.60895537       0.00253737       0.00336188       0.01322525
O        0.50370518      17.34191175       7.09802757       0.01060786       0.00553107       0.00700980
Mn       0.42918897      15.89303244       7.72735652       0.00403106       0.00669789       0.00872266
Cl      12.98272326      13.18039309      11.42316982      -0.00706041      -0.00651592      -0.00480211
Cl      15.43201835      14.34153652      12.47151011      -0.00778198      -0.01104582       0.00322771
Cl      13.88089709      15.75123154      10.46316442      -0.00387126      -0.00314921       0.00779536
Cl      15.33724521      13.34640740       9.74624380      -0.00462684      -0.00128374      -0.00022751
C       14.40334928      14.16034174      11.03802640      -0.00580477      -0.00590894       0.00160313
Cl       7.53358042      10.21090296       3.91549862       0.01287677       0.00352790       0.00169235
Cl       8.19037749      11.87600688       6.20190818      -0.00428927       0.00558758       0.00408292
Cl       8.55240288       8.99967560       6.34096868      -0.00346291       0.00620574       0.00917464
Cl       5.88536378      10.12229270       6.30151688      -0.00340307       0.00458866      -0.01023659
C        7.55163989      10.31594862       5.69451867       0.00041875       0.00482661       0.00148053
Cl       5.18399568       4.67647234       5.90831470       0.00191367       0.00383249      -0.00364703
Cl       6.17665365       4.31901584       3.19686652       0.00816473       0.00375879      -0.00090420
Cl       7.97292152       5.19667216       5.29312935       0.00259924       0.00539507       0.00269021
Cl       5.92251241       6.97880384       4.32035211       0.00364421       0.00359547      -0.00217234
C        6.32074811       5.30171366       4.68648775       0.00408104       0.00416242      -0.00104127
Cl       6.80631085      17.45034265       9.45545593       0.00233948       0.00909144      -0.00772466
Cl       4.12451904      18.02992479       8.49527034      -0.00112924      -0.00487033      -0.00231221
Cl       4.60405747      15.71783246      10.17077904       0.01283869      -0.00035441      -0.00071460
Cl       5.60569053      15.75801502       7.44487467       0.00590020       0.00070834      -0.00239646
C        5.29080096      16.72684381       8.89998038       0.00504633       0.00115915      -0.00327519
Cl      14.56745599       9.35073194       9.05819276      -0.00093727      -0.00037268      -0.00329751
Cl      12.94764530      11.27198986       7.60808078      -0.00187522      -0.00291049      -0.00408246
Cl      13.53013253       8.66735305       6.43909836       0.00229070      -0.00157738      -0.00374851
Cl      15.61746890      10.66422646       6.70468844      -0.00040424       0.00038987      -0.00179258
C       14.14595992      10.00003488       7.45989583      -0.00026065      -0.00097963      -0.00338053
Cl      15.88283744      10.64793532      12.09247087      -0.00244364      -0.00977027      -0.00971091
Cl      14.17607403       8.85645868      13.58778480      -0.00428659       0.02179158       0.02205347
Cl      15.86308671      10.77172584      14.97512936       0.01951208       0.02244353      -0.01084429
Cl      17.04579788       8.48771143      13.63948284      -0.00675488       0.00094914       0.00710226
C       15.74600455       9.70562953      13.57621429       0.00170473       0.00900133       0.00199193
Cl       8.47401318       5.46966721       8.94130498       0.00392348      -0.00053921       0.00380171
Cl      10.82716680       5.48571622       7.23567003       0.00327678      -0.00045753       0.00374967
Cl       9.74642357       2.97162389       8.17992349       0.00438774      -0.00009787       0.00490615
Cl      11.05912542       4.76909086      10.03746208       0.00401941       0.00105400       0.00354773
C       10.01972472       4.66368836       8.60718799       0.00396417       0.00001647       0.00391877
Cl       2.46542715      10.49542012      11.81737741       0.00102308      -0.00871104      -0.00279868
Cl       3.75483750       9.82705055       9.31099781      -0.00121373       0.00576010      -0.00660735
Cl       2.79768696      12.52350964       9.77752996      -0.00397152      -0.00402796       0.00746021
Cl       0.90284326      10.36383003       9.38506365      -0.00193018      -0.00148462      -0.00118867
C        2.48195752      10.81126351      10.07912918      -0.00235692      -0.00083553      -0.00070605
Cl       7.69452532      -0.54699827       4.13775925       0.00353113       0.00694597      -0.00027725
Cl       9.31620908       0.01555390       6.46778324       0.00135112       0.00087827       0.00202483
Cl       6.97499709       1.63311441       5.90979591       0.00495785       0.00529221       0.00181544
Cl       9.30899656       1.86052667       4.21486450       0.00707412       0.00409928       0.00546569
C        8.33574414       0.72747874       5.20554332       0.00410696       0.00424673       0.00220326
Cl      11.04793201      16.08018113      16.43997474      -0.00239700      -0.00028192      -0.00264183
Cl      12.75728970      13.94584322      15.45820599       0.00314167       0.00169420       0.00333558
Cl      13.92192395      16.47783170      16.24150688      -0.00379819       0.00677717      -0.00481245
Cl      12.31122659      16.30380745      13.84002849      -0.00325629      -0.00448376      -0.00310397
C       12.51612496      15.70679327      15.48972308      -0.00159038       0.00081284      -0.00167894
Cl      15.69883503       9.30122679       2.36942807       0.01083130      -0.00249195       0.00691294
Cl      14.65483885      11.52129953       0.82032912      -0.00157887      -0.01971442      -0.00428975
Cl      16.34332720      12.01933700       3.11330463       0.00213099       0.00322884      -0.01098016
Cl      13.65076536      11.01535828       3.49142642       0.00758415      -0.00309202       0.00197029
C       15.08323756      10.97157752       2.45042324       0.00449377      -0.00479985      -0.00154807
Cl       5.48041230       4.97971464      -0.85742358       0.00063822       0.00389341       0.00141977
Cl       5.22748829       7.80545008      -1.45301788      -0.00378216       0.00280160      -0.00043589
Cl       7.10168064       6.91264894       0.57592795      -0.00196090       0.00722344      -0.00094846
Cl       4.25858354       6.76856513       1.07443540      -0.00126708       0.00315958       0.00029635
C        5.50937932       6.61486505      -0.16635960      -0.00162802       0.00431493       0.00011565
Cl      12.21128530       1.74302985       1.43139681      -0.01260376       0.00074306      -0.01354305
Cl      13.88420429       3.13485384       3.30262088      -0.01128533      -0.01721394      -0.00289762
Cl      14.84985828       2.53212412       0.67500682      -0.00933355      -0.00175891      -0.00545186
Cl      16.78809182       0.58439005      -0.15663875      -0.01230186       0.00829107      -0.04360718
C       13.64385353       2.50951260       1.76273714      -0.01048983      -0.00722987      -0.00664017
Cl      14.84805342       7.33387672      16.77747829      -0.00600123       0.00776568       0.00770377
Cl      12.01549342       7.91245053      16.57099244      -0.00700802      -0.00906301       0.00790006
Cl      13.02541441       6.41335030      18.83243389       0.00053363      -0.00837372       0.00554150
Cl      12.96887844       5.20344422      16.19431687       0.00596137      -0.00255835       0.00355032
C       13.22177021       6.73055368      17.08056189      -0.00154132      -0.00343527       0.00643809
Cl      16.11706817      16.21025315       4.52688443       0.00154062       0.01662457       0.01214194
Cl      14.53258994      14.03713905       5.66390915       0.01041770       0.00850725      -0.00128150
Cl      14.61445486      16.61430997       6.99981486      -0.00038671       0.00398266       0.00868288
Cl      17.19686104      14.20348610      -0.99431860       0.00136685       0.00017649       0.00625263
C       15.55556521      15.41522592       6.07422926       0.00493714       0.01121821       0.00460617
Cl       1.92105996       7.82127541       3.38579670      -0.01153690      -0.00417547       0.00226280
Cl       2.74211642       7.91953937       6.16698725       0.00084981      -0.00901440      -0.00189891
Cl       1.56567855       5.49548624       5.08114612      -0.00198776      -0.00742501      -0.00071452
Cl      -0.06523486       7.85707739       5.49272391      -0.00212771      -0.01041564       0.01031813
C        1.53768835       7.27420461       5.03857592      -0.00365140      -0.00805503       0.00252798
Cl      10.84638340       3.51842886      13.59958443       0.00103289      -0.00446543       0.00614006
Cl       9.16916179       4.72030310      15.63995400       0.00823295       0.00845549       0.00389373
Cl       8.17544058       4.43702106      12.93078957       0.00482363       0.00477524       0.00631812
Cl      10.26192352       6.36149856      13.51487498       0.01332667      -0.00264084      -0.00201856
C        9.61074363       4.76572488      13.91987136       0.00703275       0.00166911       0.00361174
Cl       3.80448379      12.54460302       0.63715652      -0.00274050       0.00234015       0.00463291
Cl       6.32814550      11.13748749       0.68184275      -0.00083771       0.00582933      -0.00361039
Cl       5.77895244      13.15357140       2.68764023       0.00114838       0.00153962       0.00049633
Cl       6.24011634      13.93818695      -0.06768452      -0.00679034       0.00663978       0.00120288
C        5.52734265      12.69517479       0.97501863      -0.00236937       0.00384323       0.00044727
Cl      -0.53922786       4.25207390      15.93298376      -0.00207552       0.00537132      -0.00302820
Cl       1.96765149       3.50965003      17.20671716      -0.00235888       0.00435275      -0.00419939
Cl       0.23660254       5.44216363      18.46989709      -0.00336978       0.00143534      -0.00177503
Cl       1.63188224       6.14574748      16.02278394      -0.00278549       0.00557223      -0.00015211
C        0.83795726       4.83274394      16.91131383      -0.00317831       0.00363002      -0.00250635
Cl       8.95229058       8.91219952      11.21684242       0.00270802      -0.00219664       0.00413463
Cl      10.02928621      11.21296285       9.82193284       0.01012109      -0.00083768       0.01318812
Cl      10.73750805       8.51453902       8.96936248       0.00056207       0.00084728       0.00223655
Cl      11.77874132       9.56221929      11.43189325       0.00492001      -0.01362854       0.00606567
C       10.36025651       9.57040137      10.34628119       0.00466771      -0.00386177       0.00656492
Cl       1.07689022       1.63885596      14.08483637       0.00489151      -0.00514177      -0.00718581
Cl       3.23748060       1.07513289      12.21373944       0.00256477      -0.00677368      -0.00852209
Cl       3.69919106       1.00766825      15.09077358       0.00454426      -0.00665270      -0.00917403
Cl       3.25233600       3.53008321      13.73773946       0.00480022      -0.00670028      -0.00920657
C        2.83462019       1.82034339      13.74214045       0.00378478      -0.00603382      -0.00884809
Cl       1.36029245      11.88176328       6.39325898      -0.00158364       0.00344048       0.00154042
Cl       2.77281396      11.26912803       3.94984851       0.00254884       0.00624079       0.00363603
Cl       3.88014035      13.16584760       5.84461490      -0.00305361       0.00643249       0.00566664
Cl       1.53373850      13.86766728       4.29241856      -0.00169250       0.00399619       0.00267357
C        2.38769881      12.53897269       5.11578176      -0.00089647       0.00482681       0.00342938
Cl       9.77041493      11.97695391      16.83043562       0.00149591       0.00322470       0.00102735
Cl      10.63083708      10.66018792      14.39500964       0.00550997       0.00478931       0.00228190
Cl       7.93382835      11.68637228      14.60715016       0.00579411       0.00589481      -0.00212950
Cl       8.72924997       9.35891432      16.14093737       0.00159144       0.00470912      -0.00244981
C        9.27086466      10.93100279      15.49590681       0.00370565       0.00470173      -0.00047612
Cl       3.12491397       4.51906876      10.04237431      -0.00956386      -0.00891834      -0.00026542
Cl       1.20456849       6.60228859       9.42280880      -0.00044003      -0.00145707      -0.00040442
Cl       2.60389615       6.63644568      11.95686168       0.00001606      -0.00572345      -0.00151521
Cl       0.58229088       4.61613200      11.43727236      -0.00770691       0.00225034       0.00076045
C        1.87605455       5.59362801      10.70917013      -0.00444201      -0.00330225      -0.00034489
Cl      11.03090532      13.56943236       4.46615875       0.00369343       0.00631011       0.00439817
Cl      12.39416069      14.01507408       1.94090164      -0.00561768      -0.00662827      -0.00200933
Cl      11.24553344      16.23704625       3.40091734       0.00054900       0.00098550      -0.00884186
Cl       9.51635307      14.30097459       2.10360212      -0.00436640      -0.00368976       0.00676146
C       11.05544847      14.50839160       2.98605069      -0.00144783      -0.00076275       0.00038090
Cl       2.37890103      17.47379371       5.24416115       0.00619161      -0.00192530      -0.00386330
Cl       4.32893444      16.11657833       3.66567451       0.00235924      -0.00448757      -0.00620016
Cl       4.11210994      18.96031784       3.51603330       0.00919023      -0.00379425      -0.00186005
Cl       3.02044470      16.97190371       0.75038765      -0.01336053       0.00009012      -0.00087893
C        3.60984246      17.51458688       4.14217288       0.00572029      -0.00358138      -0.00390030
