148
Lattice="12.766565567229893 0.0 0.0 0.0 12.766565567229893 0.0 0.0 0.0 12.766565567229893" Properties=species:S:1:pos:R:3:forces:R:3 energy=-355702.75 stress="0.001640821690671146 -0.0003149632684653625 8.452494876109995e-05 -0.0003149632684653625 0.0012298772344365716 -0.0004249490739312023 8.452494876109995e-05 -0.0004249490739312023 0.0007222458370961249" pbc="T T T"
La      13.23452482      12.88621468       2.29678734       0.00047332       0.00504953      -0.00044678
F        0.26797183      13.93571604      13.22651332      -0.01418303       0.01828559       0.00831211
F        1.40349807      12.34208531       4.29974413      -0.01049536       0.01985362       0.01021585
F        4.19402678      12.78011890       3.86055840       0.00037476      -0.00254282      -0.00968704
O        9.93402480       4.30633857       4.87667442       0.00580660      -0.00904971      -0.00786000
O       11.22423793       3.03231910       6.19449981      -0.00712883      -0.00211215       0.00399803
C       10.65241349       5.25155707       6.92320425      -0.00566652      -0.00262588      -0.00620121
C       10.64244059       4.07432890       6.00167381       0.00107309      -0.01122832      -0.00157515
H       11.33131724       6.01790476       6.54113286      -0.00369118      -0.00443633      -0.00572848
H        9.66162769       5.69847666       6.99317131      -0.00559475      -0.00249843      -0.01180482
H       10.99905102       4.94618274       7.90550325      -0.00931641      -0.00058731      -0.00427553
H        9.86336473       3.46252479       4.40152893       0.01004639      -0.01123476      -0.00559929
O        2.37779477       6.25075881       2.21774515      -0.00097460      -0.01401699      -0.01026136
O        3.69844637       6.35944741       4.03381356      -0.01170502       0.00201054      -0.00852191
C        4.64754122       6.75010516       1.85370748      -0.00030971      -0.00926904      -0.00161242
C        3.55697996       6.44344288       2.83613331      -0.00437117      -0.00683124       0.00052547
H        5.08303838       5.79676744       1.54441283       0.00166327      -0.01053703       0.00507558
H        4.25282320       7.24641777       0.96900658       0.00241294      -0.01438441      -0.00535537
H        5.42746672       7.35258077       2.31286160      -0.00328887      -0.00584240      -0.00077540
H        1.72024215       5.90755298       2.85554815      -0.00337292      -0.01278041      -0.01142687
O        4.64377411      11.71541878      11.34565805      -0.00745356       0.00275490       0.01113337
O        6.28997929      11.71037287       9.82837255      -0.02431188      -0.01864907       0.00424597
C        6.79810012      10.98370549      12.06679758      -0.00525877      -0.00377305      -0.00278562
C        5.94915286      11.49189924      10.95647789      -0.01129735      -0.00488187      -0.00902981
H        6.84547412      11.72517940      12.86632992       0.00128428      -0.00005624      -0.00680918
H        6.36979699      10.08283662      12.50737293      -0.00372043      -0.00090382       0.00341776
H        7.79252911      10.77944937      11.68241156      -0.00853801      -0.00694359      -0.00982183
H        4.17955918      12.05023991      10.56506603      -0.01323941      -0.00159466       0.01098114
O        4.10115838      10.48594169       0.93317041       0.00079793       0.00121725       0.01408529
O        2.00982173      11.08841417       1.39233202      -0.00121240      -0.00140800       0.01070757
C        3.26949484       9.87631176       3.04039786      -0.00651887      -0.01171342       0.00796384
C        3.06149379      10.53016237       1.72882222      -0.00161281      -0.00318298       0.01193929
H        4.18678697       9.29656613       3.05941565       0.00269806       0.00332217       0.01328511
H        3.34484383      10.68327674       3.77244759      -0.03085041      -0.02019480       0.01832205
H        2.40538472       9.27081813       3.30754130       0.00137392      -0.03023513      -0.01061852
H        3.97042266      11.00415905       0.10784331       0.00119659       0.00318378       0.01574963
O        3.95271534      11.47044801       6.23105937       0.00319310       0.01663280      -0.00969052
O        6.12457584      11.03321385       5.93093450      -0.01007211      -0.01211607      -0.04406005
C        4.93157112       9.82597686       7.62866181       0.00011228       0.00128484      -0.02773023
C        5.07898198      10.82789936       6.52612856      -0.00533819      -0.00020918      -0.02827752
H        3.95102722       9.88109557       8.09584110       0.00271556       0.00306124      -0.02213103
H        5.08234316       8.82544995       7.21795988      -0.00095568       0.00087765      -0.02679584
H        5.71862432       9.99287034       8.36077182       0.00293235       0.00415529      -0.03122358
H        4.09159236      12.04284703       5.44018888      -0.00198352       0.01453486      -0.01316747
O       10.73841401       7.69908873      10.92221310      -0.00421190      -0.00210655       0.00976375
O        9.77374134       9.72028100      10.91855882      -0.00533620      -0.00227213      -0.00764007
C        8.39798699       7.75595606      10.67206582      -0.00188291      -0.00498530      -0.00915734
C        9.67362546       8.51638332      10.84131199      -0.00353772      -0.00331104      -0.00306206
H        8.52533457       6.91354398       9.99541169       0.00344114      -0.00699703      -0.00588919
H        8.11342384       7.34994046      11.64578607      -0.00710005      -0.00285836      -0.00980920
H        7.61227233       8.41728050      10.31918945      -0.00071789      -0.00700973      -0.01575824
H       11.49769007       8.25847931      11.14132161      -0.00709376      -0.00164527       0.01957797
O       12.05134081      11.05022230       0.61979652       0.00119483       0.01651472      -0.01479465
O       11.07027752       9.05829516       0.89254494       0.01683591       0.01470748      -0.01971668
C        9.73403563      11.05885828       1.13969405       0.00322813       0.00025231      -0.00827216
C       10.95684798      10.25320884       0.89410739       0.00973774       0.00106007      -0.01388787
H        9.91147836      11.77667945       1.94091268       0.00352630       0.00076321      -0.00916189
H        9.50669951      11.62349965       0.23575902      -0.00491670      -0.00267926      -0.00787920
H        8.90730383      10.40732988       1.40876451       0.00951691      -0.00595888      -0.00556237
H       12.79759908      10.44909161       0.46944316       0.00524795       0.02088577      -0.02021886
O        6.85877631       1.69265072       8.74177970       0.01892197      -0.01317114       0.01372501
O        8.37302866       2.86551202       9.87456356       0.01172644      -0.00036886       0.01701124
C        6.06874324       3.01448932      10.53511538       0.00676042       0.00030619       0.00145894
C        7.21643210       2.54113710       9.70160730       0.00967336      -0.00487150       0.01076043
H        5.11134234       2.78385859      10.07390002       0.00913101      -0.00603661      -0.00061110
H        6.13879879       2.52054205      11.50711866       0.00278740       0.00901105       0.00633484
H        6.16045802       4.08594196      10.70298243       0.00300057       0.00234529      -0.00688598
H        7.66896488       1.36203038       8.31279417       0.02202988      -0.01534954       0.02309479
O        3.58289657       4.80230669       7.95354690      -0.00221947      -0.00072339       0.00704956
O        5.17740679       6.05303573       8.91890978      -0.00238526       0.00592414      -0.00066649
C        2.98051637       5.97407866       9.90251193       0.00112957      -0.00180392       0.00792569
C        4.04029508       5.63204880       8.89693830      -0.00182188       0.00119896       0.00351603
H        2.17390473       6.52153463       9.41170310      -0.00561851      -0.01040086       0.00965653
H        2.53859719       5.06400311      10.30778453       0.01045431      -0.00348237       0.01401178
H        3.40331993       6.57717497      10.69934746       0.00054236       0.00438318       0.00344713
H        4.32521428       4.61429298       7.33618718      -0.00290558       0.00037571       0.00406517
O       -0.28722874       2.57227511       3.09979340      -0.01299948      -0.00139815      -0.00146210
O        0.28861970       4.72666017       3.21499997      -0.00439271      -0.00026643      -0.01274151
C        1.33608543       3.18494129       4.74372117      -0.00976306      -0.00148490      -0.00560313
C        0.43748621       3.60832499       3.64118666      -0.00732279      -0.00576305      -0.00506076
H        0.71042059       2.92871842       5.60221547      -0.01020893       0.00867094      -0.00278807
H        1.90692101       2.29752997       4.46979698      -0.01810950      -0.00821871       0.00068013
H        2.00641420       4.00223796       4.99668559      -0.00231425      -0.00583163      -0.01172839
H       -0.89339110       2.93014887       2.42095114      -0.01218343      -0.00497860      -0.00339383
O       11.70687565      11.48334277       8.38920983      -0.01257250       0.00955874       0.00005743
O        9.84216464      12.72128225       8.50802153      -0.02339545       0.00476205       0.01133570
C        9.68205639      10.46413258       7.68020859      -0.00758061       0.00097686      -0.00112817
C       10.35700668      11.67012393       8.24023319      -0.01019463      -0.00789273       0.00072798
H        9.72820771      10.52885275       6.59049650      -0.01933998       0.01074180      -0.00085095
H       10.18000970       9.54490547       7.98174081       0.00330563       0.00189091      -0.01445364
H        8.63546120      10.47110528       7.97087872      -0.00464424      -0.01272099       0.00848569
H       12.06481526      12.33333875       8.68475484      -0.01625803       0.00878155       0.00272606
O        7.36966075       8.71141861       5.45013790       0.02290946       0.00071502       0.00320613
O        7.28815801       9.10521322       3.23732594      -0.03714676      -0.01124334       0.00638485
C        7.71226942       6.87252126       4.02650267       0.00241096      -0.00398844       0.00227045
C        7.44668079       8.34130679       4.16727927      -0.00616275      -0.00687653       0.00655740
H        8.44233871       6.52175781       4.75289693       0.01086344      -0.00179962      -0.00532557
H        6.77557700       6.34070113       4.21745284       0.00652079      -0.00899517       0.00818751
H        8.04730650       6.64271498       3.01924178      -0.00644783      -0.00044353      -0.00145756
H        7.04655514       9.64593998       5.52233537       0.00585955      -0.00450061       0.00154568
O        2.66927553       1.22818023       2.37940973       0.00177994      -0.00153524      -0.00552803
O        4.19762699       2.83557944       2.61384461       0.00519764      -0.00524920      -0.01142102
C        2.70603686       3.02009009       0.76826308       0.00286809      -0.00613219      -0.00868618
C        3.26456873       2.34683718       1.99651322       0.00604039      -0.00253608      -0.00686097
H        2.23712302       2.31616797       0.08709441       0.00425015      -0.00883062      -0.00686113
H        1.93515079       3.72654239       1.08562695       0.00054096      -0.00826503      -0.00941388
H        3.49100825       3.60168689       0.28990944       0.00195903      -0.00569288      -0.00982219
H        3.54321544       0.55748598       3.31996999       0.00099842      -0.00048481      -0.00880373
O       13.17157671      10.18355546       4.96807289      -0.01101236       0.02132925       0.01207747
O       11.81179232      11.03494259       3.42617688       0.00546741       0.00615168      -0.01059921
C       11.31758997       8.86410358       4.32122877      -0.00062248       0.01254612      -0.00013649
C       12.11720519      10.11789509       4.20145458      -0.00096629       0.01240048       0.00135988
H       10.56300665       8.81667267       3.54272661      -0.00719059       0.01849182       0.00604975
H       11.97430609       7.99534407       4.27093700      -0.00070429       0.01349159      -0.01526870
H       10.85566421       8.82783036       5.30929112       0.00959567       0.00367952       0.00381801
H       13.63726434      11.08264643       4.79900919      -0.01047847       0.02174574       0.01061119
O       10.43386157       4.20437913      10.69818847       0.02067739      -0.00878476       0.00484070
O       10.55198918       3.31364008      12.76034068       0.00731570       0.02989337       0.02119511
C       12.37980614       4.60858220      11.94067287       0.01456904       0.01129806       0.00807495
C       11.02759611       3.98098483      11.85208385       0.01420188       0.01199549       0.01253176
H       13.09221873       3.91799639      11.48434992       0.01537393       0.00339641       0.02172139
H       12.40091617       5.54487102      11.38926441       0.01796784       0.00238991      -0.00631274
H       12.65791772       4.75442703      12.98001298       0.01031345       0.02671536       0.00693253
H        9.58839505       3.69721398      10.59586858       0.01876715      -0.00496946       0.01058532
O        5.83131168       4.27256576       6.49582887       0.00096232       0.00668627       0.00531140
O        7.62846817       3.00427996       6.08424008      -0.00694609       0.00933196       0.00823081
C        5.43485136       2.08849300       5.67730991       0.00643283       0.00761539       0.00200617
C        6.43142510       3.10875996       6.09236709       0.00440037       0.00015803       0.00278023
H        4.63455643       2.00991183       6.41417097       0.00029360       0.00150881       0.00065210
H        4.98285329       2.38902988       4.72707534       0.00311550       0.00494098      -0.00018951
H        5.92290173       1.12819087       5.54631860       0.00415473       0.00465055       0.00041559
H        6.52042659       4.88886675       6.78563598      -0.00712901       0.00396129       0.00667349
O        1.16260264       9.68103926       7.91331452      -0.00813216       0.00142151       0.00387311
O       -0.23498358       8.08042188       7.20673496      -0.01395738       0.00412321       0.00074921
C        2.07739652       7.99347209       6.53736527      -0.00987411      -0.00190654       0.00677255
C        0.87697997       8.55820446       7.22889311      -0.00639796       0.00302151       0.00372091
H        2.62585413       8.78725051       6.03301886      -0.01442641      -0.00523408      -0.00407682
H        2.75600937       7.54710127       7.26574615      -0.00475055       0.01030299       0.00951442
H        1.78684382       7.22591028       5.82758965      -0.00824694      -0.01058115       0.01569825
H        0.31831563      10.06844296       8.20987509      -0.00713694       0.00417821       0.00178073
O        8.35971867       1.97503687       0.52372114       0.01760679       0.00975141       0.01636493
O        9.52061717       1.62274499       2.41236194       0.02535367       0.00509264       0.01142794
C        7.16435674       1.11083107       2.35449614       0.02636808      -0.00436682       0.01564083
C        8.47073492       1.57936609       1.78897932       0.02082902       0.00393537       0.01294217
H        6.64249099       1.97099008       2.78115569       0.01849319      -0.00623682       0.00995406
H        6.50923265       0.72290847       1.57662522       0.03006548      -0.01446077       0.01750661
H        7.30991378       0.37466826       3.13925174       0.03176436       0.00115489       0.01976945
H        9.20954624       2.41678493       0.24046954       0.01458269       0.01612990       0.01711462
