146
Lattice="17.35872099374117 0.0 0.0 0.0 17.35872099374117 0.0 0.0 0.0 17.35872099374117" Properties=species:S:1:pos:R:3:forces:R:3 energy=-1518219.25 stress="-0.0005577107658609748 -2.959766220556048e-06 -0.00027945457259193063 -2.959766220556048e-06 -0.00024338584626093507 9.56731219048379e-06 -0.00027945457259193063 9.56731219048379e-06 -0.000421104981796816" pbc="T T T"
Li      18.94757717      16.84746657       1.28477029      -0.00155361      -0.00545378      -0.01593054
Br      17.15437971      15.17086272       0.62938107      -0.01075394      -0.00805611      -0.00013042
O       15.65652641      15.20987865       1.20361758      -0.00392592      -0.01441463      -0.00436795
O       17.57099366      16.61976934      -0.05332692      -0.01788296      -0.01018095      -0.00255823
O       18.25230794      15.11131851       1.86269708      -0.01300859       0.00428751      -0.00115633
O       17.39094410      13.96767607      -0.40614820      -0.00405425      -0.00436044       0.01165855
Cl       7.68113138       7.26215804      14.73230495       0.00676054      -0.00139198       0.00144871
Cl       6.20334585       5.13297457      13.42489252       0.00514588       0.00238633      -0.00392011
Cl       5.23569130       7.86242021      13.29571595       0.00424337       0.00055537       0.00618616
Cl       5.13308562       6.40653873      15.80133431       0.01016441      -0.00519691       0.00324929
C        6.06109364       6.66658624      14.31459244       0.00654479      -0.00107963       0.00197754
Cl      13.89557619      14.91986241      10.16910148       0.00037390      -0.01251016      -0.00381605
Cl      11.62846731      16.60656412       9.57953623       0.01154120       0.00323814      -0.00281574
Cl      11.34723016      14.39772849      11.44514935      -0.00142655       0.00518715      -0.00373939
Cl      11.67383125      13.86835604       8.61939429      -0.00573833       0.00549716      -0.00598562
C       12.13782799      14.94276407       9.96058190       0.00110197       0.00021008      -0.00436937
Cl       8.95492681       9.58801840       5.71318826      -0.01111531       0.00008231       0.00799876
Cl       6.30953129      10.77691834       5.83532598      -0.00482732       0.01175796       0.00723711
Cl       8.16711900      11.57450615       3.75640757       0.00102519       0.00695451       0.01022249
Cl       8.63959384      12.36000895       6.51248405       0.00112538       0.00030476       0.01169145
C        8.01822184      11.06964730       5.45192282      -0.00331398       0.00489030       0.00907756
Cl       4.71574056       8.12556926       3.89235558      -0.00645363       0.00047022      -0.01056042
Cl       3.87945780       6.00289985       5.67713458      -0.00268078       0.00414360      -0.00347254
Cl       2.21198603       6.75124480       3.42400634      -0.01382586       0.00903766       0.00754720
Cl       2.49063544       8.54860054       5.69126566       0.00529748       0.00816193       0.00460717
C        3.32752086       7.35543185       4.67199501      -0.00424158       0.00575766      -0.00042290
Cl       0.85837091      17.88127189       9.22283312      -0.00806811      -0.01241708      -0.00408212
Cl       0.29088903      15.03832385       9.08906639      -0.00451380      -0.01296568      -0.00538044
Cl       2.60813151      15.98984566      10.54545065      -0.01216444      -0.00960249       0.00358725
Cl       2.55064276      16.13919294       7.64561756      -0.00117150      -0.01217569       0.00293773
C        1.57642649      16.26301037       9.13078967      -0.00644608      -0.01156453      -0.00076532
Cl      14.19542082       7.80210154       8.70120444       0.00316945       0.00292513       0.00139454
Cl      13.29837424      10.34065635       7.64472275       0.00744477       0.00156492      -0.00967772
Cl      13.36590484       8.01095272       5.92780910      -0.00603393      -0.00770319       0.00398853
Cl      15.84434335       9.24252535       6.79679207       0.00125289      -0.01365780      -0.01006320
C       14.16879923       8.84262071       7.26767004       0.00112775      -0.00372405      -0.00315213
Cl      15.31565269      12.36831904      12.85848294      -0.00534835       0.01143292      -0.00732470
Cl      13.26380514      11.19083927      11.19150809      -0.00058210      -0.00455586      -0.00382802
Cl      15.57135829       9.62208549      11.95919864      -0.00314867       0.00459939       0.01757438
Cl      15.87888545      11.78736536      10.07150188       0.00249597      -0.01183230      -0.00020313
C       15.00782607      11.24366385      11.52600837      -0.00190277       0.00041580       0.00141150
Cl      10.86792530       2.85194673       7.41381880       0.00426489       0.00086209       0.00508597
Cl      10.87711010       5.67955924       8.06127372       0.00085677       0.00191578      -0.00265142
Cl      11.11744219       4.82744988       5.30085334      -0.00894454      -0.00488771      -0.00142902
Cl      13.30841415       4.38312098       7.14903490      -0.00014955       0.00546494      -0.01096700
C       11.54458068       4.44358501       6.98242088      -0.00076690       0.00082275      -0.00230142
Cl      12.14141351       6.21379069       0.20119351       0.00460315       0.00284398       0.00317666
Cl      13.06645390       3.64005169      -0.75918989       0.00424066       0.00149074       0.00682056
Cl      10.23862514       4.28146722      -0.81876305       0.00657028       0.00156607      -0.00103146
Cl      11.56734916       3.81353003       1.71756560      -0.00105747       0.00315994       0.00288326
C       11.74951917       4.48602617       0.08448294       0.00365820       0.00284069       0.00358060
Cl       2.28448957      11.87920912      10.70540036       0.00085083      -0.01266184       0.00628173
Cl       4.30542407      12.62045994       8.77121354      -0.01635405       0.00779086      -0.00260743
Cl       1.80483443      11.44887883       7.87942039      -0.01453266      -0.00258771       0.00733507
Cl       3.76134399       9.82664342       9.28495595       0.00372593       0.00254816      -0.01149487
C        3.04416928      11.44213143       9.16452649      -0.00682703      -0.00112938      -0.00034982
Cl       6.15887303      -0.08166356       5.65446674      -0.02174683       0.00775343      -0.00463602
Cl       5.05444970       2.51812363       4.99464935       0.00742093       0.01814729      -0.00681171
Cl       7.66397197       2.32122636       6.24510682       0.00292206      -0.01027702      -0.00186939
Cl       5.28010706       1.70147972       7.76791637      -0.00583661       0.01976623      -0.00537640
C        6.04034154       1.62017527       6.17041928      -0.00483439       0.00862929      -0.00462977
Cl      13.30401284      17.14051056      16.30052517      -0.00075650      -0.02551049       0.01418224
Cl      13.71504792      14.27642054      16.06814631      -0.00807527      -0.02150506      -0.02258608
Cl      13.76566430      15.94533256      13.70452066       0.00530100       0.01011468       0.00072360
Cl      11.25943439      15.47268224      15.09984971      -0.00282878      -0.00151166      -0.01362922
C       13.01562750      15.70691237      15.29414914      -0.00285570      -0.00968304      -0.00609849
Cl      11.72637717      10.06660894       2.72150715       0.00691056       0.00757155      -0.00066808
Cl      14.28891297      11.03853556       3.66997999       0.00224853       0.02359010      -0.00142101
Cl      11.83108924      12.01621809       4.85636556      -0.00054473       0.00773205       0.00101322
Cl      12.54446285      12.80285552       2.17087805      -0.01179840       0.01140207      -0.00022641
C       12.60215044      11.47784240       3.35469341      -0.00073077       0.01204000      -0.00032894
Cl       7.69660884       3.48167391       1.75897422       0.00993192      -0.00805718       0.00967557
Cl       5.25254459       5.02453993       1.99983319      -0.00124905      -0.02423491      -0.00359405
Cl       7.72763152       6.32681334       1.22088692      -0.01022482      -0.01136172      -0.00710750
Cl       7.39163293       5.36950187       3.93245960      -0.00509167       0.00307614      -0.00264525
C        7.01361351       5.05630107       2.23282675      -0.00144193      -0.01036440      -0.00083101
Cl      16.36779846       2.63499114       1.19271688       0.00838821       0.00332132      -0.00354829
Cl      16.71964154       0.72707905       3.35462721       0.00091219      -0.00231805      -0.00371698
Cl      14.12847872       1.02509615       2.10781546       0.00254482       0.01125416       0.00028676
Cl      15.16421941       3.14312951       3.78066426       0.01147261       0.00301203      -0.00136647
C       15.58203084       1.89065847       2.60097237       0.00823220       0.00418149      -0.00285776
Cl      14.09401656       8.62885903      15.16740539       0.00516775      -0.00277016       0.01307547
Cl      15.27856929       8.41921530      17.80616475       0.02031988       0.01678598       0.00571513
Cl      13.81837625      10.80424265      17.05933693       0.00295845       0.00609308       0.00156970
Cl      16.39253152      10.26294652      15.85830620       0.00144273       0.01159102      -0.00747970
C       14.89784785       9.53315361      16.47018964       0.00710273       0.00892786       0.00329330
Cl      16.93641187      14.97072957       5.12677365       0.01714683       0.00635942       0.00635576
Cl      14.88570793      13.74960012       6.76004350       0.02307969      -0.01515597      -0.00232348
Cl      14.15264425      15.20792522       4.36635859       0.01790005      -0.01396290       0.00037372
Cl      15.14132107      16.64232780       6.68047078       0.00122662      -0.01265877       0.00631177
C       15.27544624      15.14540055       5.72737112       0.01487675      -0.00875929       0.00308676
Cl       1.51229177       4.29548852       8.19156937      -0.00411102       0.00150844      -0.00040311
Cl      -0.16339235       5.59459224       6.22083465      -0.01182330      -0.00503474       0.00277181
Cl      -0.93383859       3.02131670       7.30870484      -0.00374210      -0.00484595       0.00615898
Cl       1.33332161       3.21219044       5.50958115      -0.00694880      -0.00550991       0.00428551
C        0.44204053       4.03222972       6.80534226      -0.00669065      -0.00319310       0.00263777
Cl      11.87197600       3.43465123      11.29506627       0.00118959      -0.00753678      -0.00013553
Cl      10.14876143       2.26774195      13.31235213      -0.00882147       0.00089127      -0.00500321
Cl       8.99334708       3.41148092      10.90622728       0.00185195       0.00279287      -0.00829589
Cl      10.17280545       5.13949930      12.91223700       0.00409652       0.00100625      -0.00854680
C       10.29867766       3.56606054      12.10839537      -0.00062523      -0.00073361      -0.00527143
Cl       3.20405527      10.06207500       0.42515520       0.00720593      -0.00500102       0.00578979
Cl       6.02226365       9.54183929       0.85768544       0.01433939       0.02903029      -0.00427539
Cl       4.64603432      11.54243397       2.45339307      -0.00107072       0.01881805      -0.00543892
Cl       5.18535598      12.04185158      -0.35025547      -0.02098216       0.01498041      -0.00982788
C        4.76278116      10.79594741       0.84660165      -0.00005426       0.01458544      -0.00320324
Cl       1.93407914       5.02663633      14.49820966       0.00493127      -0.00755045      -0.00284415
Cl       1.33612924       5.06836441      17.33684762       0.02682950      -0.01301643       0.00287539
Cl      -0.72751633       5.71858712      15.39846498       0.01019704      -0.03155148       0.01897434
Cl       1.47715004       7.54721323      15.85147111       0.00116143      -0.01141894       0.00893893
C        1.00221113       5.84295266      15.76232736       0.01154822      -0.01442602       0.00638696
Cl       7.26990101       9.73523085       9.20304584       0.02005619      -0.00051859      -0.00140762
Cl       8.44382780       9.80871823      11.84833662       0.02589071      -0.00065768      -0.00353742
Cl      10.14034753       9.46519627       9.51747775       0.01780719      -0.02301732      -0.00444156
Cl       8.37658616       7.32005599      10.36593402       0.00239296      -0.00541168       0.00692647
C        8.55279377       9.08583660      10.23497939       0.01599354      -0.00755250      -0.00084201
Cl       3.57661986       1.99464876      13.20442774      -0.01087914       0.00613786       0.00634086
Cl       3.04152146      -0.65184171      14.26998917       0.00592810       0.00048772      -0.00067472
Cl       0.85128115       1.18069102      13.76278835      -0.00520712      -0.01090451       0.01146722
Cl       2.68930152       1.69862838      15.94711006      -0.00095409      -0.00618731       0.00680950
C        2.53076791       1.05132424      14.29128318      -0.00314346      -0.00273628       0.00581123
Cl       6.02960879      15.56139348       8.95757238      -0.00100201       0.01189944       0.00542140
Cl       5.94551335      17.35434498      11.24201062      -0.00952578      -0.00060833       0.01447056
Cl       8.43156500      16.09214203      10.46802212      -0.00580442       0.00581664       0.01489720
Cl       6.30355308      14.50671626      11.64598227      -0.00732815      -0.00198543       0.00055617
C        6.68313384      15.87824913      10.57948444      -0.00600725       0.00405788       0.00875881
Cl      10.35651905      11.87010559      16.97214534      -0.00512522       0.02031934      -0.00579247
Cl      11.08398092      11.34029067      14.21702681       0.00062653       0.00634135      -0.00002432
Cl       8.33354393      10.99927260      15.09820852      -0.00023115       0.00002506      -0.00320838
Cl      10.38936407       9.14876869      15.98155693       0.00292972       0.01465940       0.01177385
C       10.04322793      10.84380582      15.56290263      -0.00058089       0.01069209       0.00049351
Cl       1.55996088       8.36314415      12.24949608      -0.00208154       0.00487489      -0.01659065
Cl       0.69431801       7.97057593       9.50550290      -0.00201835      -0.00842142      -0.01399064
Cl       0.06800965       5.98885094      11.50453036      -0.00717941       0.00408638      -0.00198254
Cl       2.82112289       6.33350053      10.63639790      -0.00729081      -0.00829086      -0.00325565
C        1.28114411       7.17001006      10.97004449      -0.00498217      -0.00199500      -0.00939147
Cl      11.06124086      17.46677204       4.66761796       0.00236315       0.00845468      -0.00243926
Cl       8.82915289      17.49933660       2.82250704      -0.00060043       0.01100418       0.00178534
Cl       9.68326659      14.99856677       4.01226118      -0.00496970       0.01178753       0.00275685
Cl      11.34062351      16.30356849       2.02116376      -0.00408900       0.00709334      -0.00160855
C       10.23108933      16.56636062       3.38718182      -0.00133109       0.00931220      -0.00027674
Cl       3.39112739      16.98569175       3.08828498      -0.00475299      -0.00890826       0.00104117
Cl       5.60318766      18.03937833       1.54714812      -0.00594261       0.00264019       0.00172748
Cl       3.89863502      15.98094056       0.40729403      -0.01072532       0.00221473       0.00294691
Cl       5.71673209      15.31907774       2.56795848       0.00870377       0.00589919      -0.01071131
C        4.68702903      16.57421476       1.90129346      -0.00368303       0.00132096       0.00030082
