140
Lattice="12.482209581027858 0.0 0.0 0.0 12.482209581027858 0.0 0.0 0.0 12.482209581027858" Properties=species:S:1:pos:R:3:forces:R:3 energy=-87316.53125 stress="-0.0006188146653585136 -0.0006542318733409047 -0.00041316401620861143 -0.0006542318733409047 -0.0005662724724970758 0.0005772077420260757 -0.00041316401620861143 0.0005772077420260757 -0.00036937909317202866" pbc="T T T"
Li      12.30597169      12.56477083      -0.65249105      -0.01029759      -0.02867901      -0.03284369
P       10.19587286       1.10929662       0.09498468       0.02648574      -0.00055811      -0.02972281
O       10.09050522       1.73522307       1.57016347       0.01724237      -0.02655759      -0.00295182
O       10.82718923      -0.38031205       0.45958324      -0.02381328      -0.02354783      -0.03656137
O        8.87550349       1.04374661      -0.54766818      -0.00638902       0.02577808      -0.01628709
O       11.41341325       1.64687981      -0.62326842      -0.00536293      -0.02504104      -0.00521287
H        9.29713066       2.27524534       1.65140305       0.04474902       0.01447682      -0.00861261
H       10.21572943      -0.99599824       0.88801146      -0.02918580      -0.01294506      -0.03062417
C       11.78058507       8.51978329       7.23792465      -0.00094409       0.00607814       0.00413451
C       11.02191378       7.91532930       8.23430324       0.00510749       0.00340492       0.00686581
C       11.65839579       9.88520046       7.00626902      -0.00391530       0.00603370       0.00661230
C       10.13769662       8.67469766       8.99326388       0.00864066       0.00147939       0.01293160
C       10.77752045      10.64449056       7.76771693      -0.00055558       0.00437155       0.01250350
C       10.01543331      10.04106267       8.76293751       0.00444902       0.00108649       0.01424474
H       12.47038816       7.93337032       6.64093718      -0.00661784       0.00715732      -0.00382956
H       11.11068440       6.84978163       8.41236293       0.00455510       0.00284559       0.00239350
H       12.25861706      10.35169000       6.23649468      -0.01199631       0.00703928       0.00114174
H        9.53068939       8.19548504       9.75194550       0.01457709       0.00074135       0.01708075
H       10.68175732      11.70735472       7.58163997      -0.00154237       0.00470611       0.01542550
H        9.33085247      10.63608564       9.35626982      -0.00295825      -0.00467326       0.01149760
C        5.60594689       3.76970476       9.03773722       0.00319445      -0.00085777      -0.00360658
C        6.35834512       2.69065990       8.58441394       0.00376234      -0.00184260      -0.00025499
C        6.19932344       4.73633501       9.84219993       0.00095133      -0.00186756      -0.00087477
C        7.69718535       2.57597713       8.94085290       0.00193451      -0.00340839       0.00547668
C        7.54094774       4.62378812      10.19389574      -0.00104253      -0.00407387       0.00571193
C        8.29049788       3.54165127       9.74676637      -0.00040622      -0.00495239       0.00882725
H        4.55926584       3.85198493       8.77028984       0.00459103       0.00066260      -0.00837530
H        5.89506625       1.93740905       7.95838903       0.00565827      -0.00143884      -0.00192924
H        5.62005358       5.58496166      10.18734867       0.00055351      -0.00123210      -0.00334272
H        8.27641109       1.72316329       8.61026460       0.00227317      -0.00390945       0.00694864
H        7.99993026       5.37948096      10.82030424      -0.00308285      -0.00522996       0.00853366
H        9.32783461       3.43521649      10.03875965      -0.00242528      -0.00723876       0.01467248
C        1.92604190       8.79582989       9.39528915      -0.00344392       0.00573790       0.00987064
C        1.33758844       9.64424005      10.32742204      -0.00141881       0.01003019       0.00698966
C        3.22210244       9.03513082       8.95740071      -0.00356157       0.00238474       0.00782190
C        2.06031013      10.72630609      10.81663391      -0.00014566       0.01188403       0.00180220
C        3.93752649      10.12566000       9.44153542      -0.00214843       0.00386209       0.00230244
C        3.35637605      10.97466010      10.37542602      -0.00054283       0.00861929      -0.00138354
H        1.36765813       7.95265557       9.01261798      -0.00437433       0.00436068       0.01419172
H        0.32540436       9.44939374      10.66190941      -0.00093955       0.01119002       0.00960986
H        3.67543230       8.36874066       8.23372425      -0.00449000      -0.00177652       0.01108903
H        1.64976790      11.35812810      11.60553409       0.00381134       0.01539228       0.00052209
H        4.94898688      10.30533411       9.09863382      -0.00195983       0.00080611       0.00129308
H        3.91368435      11.81478314      10.77036990       0.00055703       0.00995912      -0.00561308
C        0.85062729       8.06412345       3.55154343      -0.00426573       0.00248176      -0.00075835
C        0.83530515       9.43465170       3.78342394      -0.00202787       0.00331131      -0.00490500
C        1.93987824       7.30078817       3.95908858      -0.00905987       0.00067943       0.00852473
C        1.90498953      10.04490546       4.42988279      -0.00438839       0.00210403       0.00013160
C        3.01083081       7.90905923       4.60343186      -0.01133402      -0.00035737       0.01329398
C        2.98838372       9.27926115       4.84166551      -0.00906315       0.00036547       0.00898309
H        0.02288016       7.58255201       3.04796972      -0.00231721       0.00339552      -0.00483020
H       -0.01055991      10.03061281       3.46016728       0.00196599       0.00468543      -0.01257469
H        1.95459477       6.23648989       3.75348247      -0.01101724      -0.00002342       0.01242208
H        1.90688883      11.11474658       4.60108194      -0.00256785       0.00251806      -0.00266040
H        3.88036375       7.32759566       4.88554462      -0.01511661      -0.00227583       0.02133613
H        3.83086608       9.76560707       5.31805756      -0.01103662      -0.00058780       0.01334770
C        8.66177104       7.02350480       6.11862810      -0.00320609       0.00106075       0.00410835
C        8.37817982       8.25362203       5.53694136       0.00090320       0.00170530       0.00300471
C        7.70043370       6.36895962       6.87826984      -0.00504611       0.00604314       0.00605304
C        7.12642387       8.83050864       5.71294511       0.00365270       0.00712147       0.00410997
C        6.44751686       6.94476870       7.05103146      -0.00211356       0.01168141       0.00756279
C        6.16222059       8.17419259       6.46946485       0.00208266       0.01242938       0.00657573
H        9.64448911       6.58664322       5.99982690      -0.00540580      -0.00323720       0.00280241
H        9.13818462       8.76911460       4.96378905       0.00224159      -0.00234266       0.00128284
H        7.92675282       5.41848131       7.34602666      -0.00862724       0.00544085       0.00665928
H        6.90310423       9.79137563       5.26430821       0.00704714       0.00741674       0.00299600
H        5.70003128       6.42931265       7.64121437      -0.00316767       0.01594541       0.00977518
H        5.18681048       8.62211560       6.60542681       0.00447313       0.01690430       0.00824696
C        3.84109250       7.66951957       0.18384756      -0.00070086      -0.00013340      -0.00775396
C        4.97393446       6.91771901       0.47065645       0.00106964       0.00145264      -0.01104216
C        3.59351819       8.84341207       0.88700571      -0.00319046      -0.00338359      -0.00340121
C        5.85433025       7.33518961       1.46326854       0.00067039      -0.00017182      -0.01005491
C        4.48059752       9.26669355       1.86638252      -0.00383285      -0.00511149      -0.00182702
C        5.60645386       8.50788657       2.16175563      -0.00175275      -0.00325406      -0.00556070
H        3.14849880       7.34594344      -0.58364372      -0.00016157       0.00125027      -0.00873236
H        5.16547502       5.99552041      -0.06369621       0.00277510       0.00364009      -0.01423083
H        2.70442163       9.42127856       0.67623769      -0.00456741      -0.00462432      -0.00081079
H        6.72454990       6.73775475       1.70276404       0.00207759       0.00089855      -0.01290608
H        4.28209571      10.18047235       2.41070809      -0.00633780      -0.00816438       0.00225180
H        6.29533658       8.82877594       2.93263285      -0.00240330      -0.00473586      -0.00435206
C       12.30070644       3.37509016       3.04831036      -0.00439438       0.00822735       0.00006716
C       11.44722196       4.11618874       3.85701679      -0.01067350       0.00526909      -0.00405492
C       12.52287652       3.76134922       1.73293905      -0.00228944       0.00617840      -0.00032251
C       10.79705133       5.23110433       3.33993828      -0.01372436       0.00180866      -0.00757678
C       11.88009085       4.87792844       1.21487545      -0.00480241       0.00362996      -0.00318430
C       11.01107887       5.60742389       2.01834515      -0.00970020       0.00154975      -0.00696610
H       12.76203361       2.47421167       3.43037394       0.00079447       0.01269460       0.00452115
H       11.26978808       3.81307802       4.88221985      -0.01335758       0.00569262      -0.00437480
H       13.15567789       3.16222727       1.09153839       0.00103686       0.00704753       0.00262173
H       10.11300529       5.79757562       3.95833759      -0.01835802      -0.00022958      -0.01087508
H       12.03654942       5.16066704       0.18114087      -0.00118131       0.00390466      -0.00258289
H       10.49179201       6.46860407       1.61561199      -0.00955834       0.00058985      -0.00938524
C        5.47953583       4.56472681       4.40324685       0.01401691      -0.00844721      -0.00182885
C        6.52434400       3.73778739       4.79806668       0.01386387      -0.01129544      -0.00794527
C        5.09079097       4.61094888       3.07121170       0.00864841      -0.00520505      -0.00021553
C        7.17873521       2.94932561       3.85812768       0.00915747      -0.01025245      -0.01214025
C        5.74569562       3.82476231       2.13097355       0.00408218      -0.00403126      -0.00447766
C        6.78440413       2.99002723       2.52418853       0.00489184      -0.00598507      -0.01109726
H        4.96763947       5.17108280       5.14051610       0.01878061      -0.00849795       0.00143195
H        6.81773048       3.70356066       5.83945197       0.01818400      -0.01431219      -0.00923729
H        4.28174812       5.26062465       2.76248443       0.00872552      -0.00283214       0.00445325
H        7.98990331       2.30173734       4.16884729       0.00856216      -0.01242564      -0.01570350
H        5.44138409       3.85036791       1.09210227      -0.00009033      -0.00031466      -0.00322394
H        7.25620927       2.35425684       1.78152995       0.00410321      -0.00261443      -0.01450440
C        7.45606173      11.43289683       1.51700059       0.01010001       0.00320604      -0.00002232
C        8.42645145      10.92200166       2.37221010       0.00372724      -0.00571731       0.00254302
C        7.21763825      10.82357964       0.29089309       0.01319729       0.01023448      -0.00410568
C        9.16700630       9.80104218       1.99340183      -0.00042088      -0.00776054       0.00090192
C        7.95205279       9.70838515      -0.08707495       0.00943534       0.00775445      -0.00553548
C        8.93023249       9.19847391       0.76052799       0.00219863      -0.00126573      -0.00243784
H        6.89430851      12.31376581       1.80055255       0.01390634       0.00516044       0.00121765
H        8.61875032      11.40293150       3.32400320       0.00259741      -0.00985475       0.00472282
H        6.45955631      11.22121522      -0.37053635       0.01996969       0.01844449      -0.00674751
H        9.92532803       9.40057202       2.65633512      -0.00415666      -0.01323957       0.00202648
H        7.75168599       9.22605116      -1.03527003       0.01253698       0.01384520      -0.00901394
H        9.50545383       8.33038888       0.46332519       0.00021490      -0.00205296      -0.00431403
C        0.40092076       2.72429569       9.11014337      -0.01059503       0.01367471      -0.00611528
C        1.07166345       3.40706811      10.11903312      -0.01090987       0.01345150      -0.00520086
C        0.49743011       3.15868093       7.79328978      -0.00347706       0.00938012      -0.00660931
C        1.84006139       4.52377566       9.81048882      -0.00473173       0.00886215      -0.00612861
C        1.25581841       4.28358490       7.48393346       0.00304504       0.00461902      -0.00745253
C        1.92855004       4.96439385       8.49332198       0.00235534       0.00457308      -0.00695026
H       -0.21511962       1.87047535       9.36273407      -0.01495111       0.01738410      -0.00480247
H        0.96960438       3.07323011      11.14338821      -0.01598045       0.01545385      -0.00530176
H       -0.02389138       2.62266486       7.00949341      -0.00322803       0.00935540      -0.00708821
H        2.36586427       5.05306718      10.59648053      -0.00490300       0.00880750      -0.00577451
H        1.31670906       4.63468778       6.46066372       0.00881589       0.00116051      -0.00823408
H        2.52147687       5.83888189       8.25281078       0.00735310       0.00095242      -0.00749496
C        3.99008577       0.74012249       2.88269548      -0.00097620      -0.01468034       0.01162300
C        4.59428211       0.13940315       3.98163257       0.00082151      -0.01530296       0.01007061
C        3.11410678       1.80210394       3.06998838      -0.00067043      -0.01481267       0.01428849
C        4.31019414       0.58953384       5.26612657       0.00399420      -0.01581112       0.01087038
C        2.84200473       2.26128991       4.35362061       0.00387406      -0.01394518       0.01496540
C        3.43216115       1.65132327       5.45325240       0.00648774      -0.01445767       0.01309431
H        4.21804213       0.39445754       1.88099249      -0.00473633      -0.01471812       0.01066657
H        5.29371412      -0.67493805       3.83455448      -0.00193145      -0.01635198       0.00777767
H        2.66647717       2.29480192       2.21571303      -0.00448172      -0.01499587       0.01635993
H        4.78011196       0.11979045       6.12169270       0.00508381      -0.01726190       0.00963865
H        2.18517925       3.11034032       4.49291483       0.00462537      -0.01371422       0.01662985
H        3.21561010       2.01590944       6.45031282       0.00930835      -0.01491169       0.01299830
