148
Lattice="11.3245572810808 0.0 0.0 0.0 11.3245572810808 0.0 0.0 0.0 11.3245572810808" Properties=species:S:1:pos:R:3:forces:R:3 energy=-618536.3125 stress="0.0011355890892446041 -0.0011039962409995496 0.001845619932282716 -0.0011039962409995496 0.0008708341047167778 0.0005665438366122544 0.001845619932282716 0.0005665438366122544 0.003684103488922119" pbc="T T T"
Lu      11.56780522      11.77048642       1.63059961      -0.00369996       0.00068966       0.01745348
O        2.37029027      11.56948274       1.16303469      -0.00139111      -0.00573623       0.01454246
O        3.51360015      11.34931365       3.51239028       0.00831541       0.00153816       0.00839698
O        4.94184628      11.93611604       1.41768648      -0.00017118      -0.00785422      -0.00211197
O        3.98214383       9.54718261       1.69680495      -0.00440359      -0.00529027       0.01201865
Mn       3.72162156      11.09129508       1.95079116      -0.00345927      -0.00453969       0.00720560
O       10.04729740       8.52576259       3.66448666      -0.02429467      -0.00671679       0.01023495
O       12.10123839       9.72445225       2.52813557      -0.01218534       0.00173854       0.02214664
O        9.80161648      10.35073282       1.74080320       0.00048196      -0.01441634      -0.00724399
O       10.72726610       7.91057077       1.21954822       0.01497035       0.00431597       0.02003264
Mn      10.62517083       9.05427132       2.30491785       0.00413913      -0.00726485      -0.02904933
O        2.98557688      10.68548237       9.54301077       0.01430296       0.00122249       0.00227270
O        2.72624433       8.69485412       7.91400858       0.01207684       0.01272476      -0.01231861
O        1.72136083       8.55987418      10.33981424       0.00453025       0.00191164      -0.01607138
O        4.32988677       8.48948668       9.95517977       0.00384259      -0.00682998      -0.00627851
Mn       2.96342847       9.10354495       9.43424091       0.00505772       0.00248937      -0.00497769
O        5.62506995      10.19741843       5.23745794      -0.00366727      -0.00762653       0.00841658
H        4.80955227      10.71380644       5.20166832      -0.01056714      -0.02503651       0.00128486
H        5.55243376       9.53130769       5.96000423       0.00610393      -0.01062404       0.00188107
O       10.45407157       5.32676138       7.53408958       0.00107247      -0.00675449      -0.01026002
H        9.68327964       5.07462252       8.06427884       0.00584000      -0.00305767       0.00063878
H       11.12926935       4.68672233       7.82767276       0.00338814      -0.00578117      -0.01351903
O       -1.05059536       8.33937924       9.27797119      -0.00905110       0.00220394      -0.00420836
H       -0.20558282       8.08570548       9.67393909      -0.00804478       0.00312291       0.00074653
H       -0.93409333       8.17743773       8.30006840      -0.00418419       0.00509043      -0.00066613
O        4.74939917       4.56515353       4.80400958      -0.00639126       0.01676711       0.00239574
H        4.94522557       3.62211508       5.05673483      -0.00841099       0.01616299       0.00238547
H        5.13969892       4.67727493       3.91400235      -0.00276264       0.01702304       0.00424346
O        1.15593456       1.31841440       3.44142252       0.01301152       0.02072238       0.00431459
H        2.00210659       0.94179012       3.74907981       0.01440215       0.02146069       0.00068170
H        0.65235651       1.70613830       4.22233927       0.00924674       0.01022324       0.00673915
O        8.98782028       1.85253219       7.52093303      -0.00515512      -0.00498201       0.00006241
H        8.21514521       1.24080478       7.54469446      -0.00405401      -0.00624965      -0.00051937
H        9.74184419       1.34102035       7.86944416      -0.00300887      -0.00204732       0.00178499
O        7.90812184       7.30798123       1.81031311       0.00876563      -0.01066864       0.00830877
H        7.93496875       7.25048830       0.82658488       0.00083292      -0.00233948       0.00438613
H        7.03490237       7.59831896       2.10201052       0.01491788      -0.00935160       0.01794635
O        3.56379343       3.51572793       8.09294618       0.00046131       0.00234480      -0.00582162
H        3.51227735       3.21600326       7.17357683       0.02150236      -0.02439419       0.00250141
H        3.83213400       4.44702064       8.01660852      -0.00587314       0.00284861      -0.02272739
O        7.61201731       9.45379478       9.06585516      -0.00869659       0.00887971       0.00122553
H        8.50292087       9.09354418       9.18399318      -0.00636497       0.01122730      -0.00415016
H        7.24977940       9.62434716       9.97013272      -0.00617283      -0.00054087       0.00483136
O        7.57832298       7.03705512       5.36324482       0.00395784      -0.00268641      -0.01896385
H        7.19988936       7.52985706       6.11661865       0.00492577      -0.01222326      -0.00845507
H        8.49414076       7.32850120       5.27993376      -0.00712729       0.00359464      -0.02755263
O       10.53688139       4.34432653      -0.04847780       0.00196125      -0.00239815       0.00158772
H       10.03415584       4.66457452       0.72639118       0.00448120      -0.00730740       0.00637284
H        9.86863642       4.27685726      -0.76585334       0.00122457       0.00368795       0.00273065
O        8.60371647       3.85211206       9.33798938       0.00117835       0.00722630      -0.00951421
H        7.76977263       4.34114563       9.17428996      -0.00321960       0.00023596      -0.00796962
H        8.67510146       3.13450014       8.66616910      -0.00143706       0.00127664      -0.00292216
O        8.39114367       6.69727321      10.61908620      -0.01918337       0.00896335      -0.00252660
H        7.68394214       6.42416915      10.00638122      -0.01847184       0.00279041       0.00131075
H        9.05916981       7.17813390      10.10258959      -0.01860535       0.00584778      -0.00633475
O       11.25722578       2.40477021       5.44253881      -0.00870237      -0.00890613      -0.00504622
H       10.55119675       1.74770170       5.55184997      -0.01024164      -0.00898591      -0.01735777
H       10.81610068       3.27313327       5.18117617      -0.00394605      -0.00796282      -0.00932503
O       10.00263819       1.90844971       2.01993263      -0.00482997       0.00583133       0.00458509
H        8.96075126       1.71574075       2.19627188      -0.00360709       0.00727822       0.00643645
H       10.06934524       2.86986905       1.97505031      -0.00672643       0.00328294      -0.00794761
O        1.84739787       5.70281728      10.75458452      -0.00404115      -0.00295129      -0.00221347
H        0.96094626       5.36050060      10.94174111      -0.00233418      -0.00031589       0.00334936
H        1.75843158       6.66608454      10.72416111      -0.00197578      -0.00202066      -0.00645366
O        4.33021007       6.14301893       6.99672782      -0.01150545       0.00111686       0.01029845
H        3.42907795       6.48022822       6.82259781      -0.01248549      -0.00010971       0.00954955
H        4.59192605       5.68116750       6.16530803      -0.00844987       0.00824898       0.00733351
O        0.03472689       0.67105054       8.42949509       0.00006461      -0.00106624       0.00650170
H        0.16786143       0.30623647       9.31891920       0.00188419       0.00130984       0.01014321
H        0.44307860       1.57446942       8.42751287       0.00232647      -0.00333576       0.00137058
O        3.39295333       0.63470405       7.00272740      -0.00089507       0.00050523      -0.00449064
H        2.60245886       0.19740655       6.64955444      -0.00593100       0.00677194       0.00087190
H        3.42479402       0.39025014       7.94035421       0.00567523      -0.00214821      -0.00419575
O        7.22287841      10.42638598       3.02528856       0.01266948       0.01140156       0.02254147
H        6.96828618       9.91825657       2.24386351       0.03179212      -0.00322999       0.02443194
H        6.57082117      10.27032545       3.73348624       0.01030926       0.00470614       0.01641084
O        5.19982121       1.60469521       9.50743616       0.00575230       0.01679605      -0.00107411
H        4.68938848       2.32433700       9.09636258       0.00558358       0.01830351       0.00237765
H        5.70009102       1.18683462       8.78570209       0.00105783       0.01414582      -0.00202289
O        0.55091568       5.64106203       2.85862891       0.01683872      -0.00231922       0.01091751
H        1.38569870       6.13963135       2.90692469       0.00984627       0.00101476       0.01681893
H       -0.00591339       6.14257206       2.25102654       0.01757264      -0.00848176       0.00333907
O        6.85720203       2.62530756      11.44100016       0.00460877       0.00044745      -0.00108303
H        7.56665081       2.97272433      10.88038350       0.00366607       0.00469787       0.00117972
H        6.18836579       2.27922580      10.80742681       0.00519142       0.00179304      -0.00357874
O       10.53625930       8.05075265       6.64439012      -0.00056477       0.00420139      -0.00052726
H       10.98603713       8.85711787       6.35526144       0.00463082       0.00255102       0.00334274
H       11.19811642       7.34897102       6.49650247      -0.00256270       0.00073056       0.00393280
O        1.65246430       6.64499713       5.92596338       0.00703429       0.00356121       0.01028809
H        1.93120493       7.04300424       5.08275588       0.00743794       0.00356363       0.00979498
H        1.67737491       5.68258137       5.74295893      -0.00076571       0.00349534       0.00600539
O        4.50113100       4.71420566      -0.43226628      -0.01057076      -0.01893249       0.00362658
H        4.85508802       4.71202548       0.47198807      -0.01404977      -0.01434073       0.00391883
H        3.60835876       5.10004800      -0.39315887      -0.00979996      -0.01674773      -0.00164455
O       10.12841823      11.31428146       4.73142321       0.01076859       0.00005010      -0.03989551
H        9.38257621      10.72191741       4.57986528       0.00710647       0.01215623      -0.03653737
H       10.80613806      10.78182749       5.17740959       0.00403929      -0.00236806      -0.03018508
O        2.75569103       7.33409026       3.36443795       0.00263107       0.00358172       0.01554871
H        2.68749588       8.14163027       2.83780140       0.00021343       0.00532748       0.01355445
H        3.71119349       7.16282463       3.43176309       0.00039828       0.00202049       0.00649273
O        2.26858549       4.01885190       5.43074686      -0.01245326       0.00481865      -0.01697709
H        1.80843322       3.41839147       4.83939455      -0.00738268       0.02171607      -0.03921048
H        3.13423902       4.23137439       4.99803931      -0.00875189       0.01184772      -0.00411886
O        7.62365886       2.41377861       5.11425332      -0.00388820       0.01323578       0.00703613
H        7.79731885       2.16440672       4.19333939       0.00313552       0.01834365       0.00604591
H        8.37585343       2.17019147       5.66918045      -0.00529236       0.01798686       0.01038828
O        8.89281620       4.84324429       2.28883028       0.01590464      -0.00868526      -0.00748417
H        9.12859735       4.79722012       3.23222139       0.01890473      -0.00796543      -0.00867471
H        8.54136783       5.76034498       2.16729653       0.01001504      -0.01102957      -0.00586526
O        0.84695000       3.16339651       8.04466661       0.00417323      -0.00754134      -0.01221611
H        1.79794748       3.38227675       8.16686377       0.00451474      -0.00589225      -0.01490440
H        0.74638688       2.99095176       7.08907102       0.00211094      -0.01089573      -0.01102407
O        6.84160771      11.55570904       7.58565940      -0.00807136       0.00187464      -0.00377125
H        6.51791380      11.23489344       6.72833522      -0.01318070       0.00014470      -0.00065956
H        7.15852847      10.76186925       8.07651333      -0.00901143       0.00231396      -0.00088901
O        0.97289959      10.41723204       6.45525149      -0.00664222       0.00290205      -0.00169632
H        0.63318821      10.94082908       7.22336752      -0.00880287       0.00121654      -0.00013999
H        1.52441188       9.71556623       6.84540348      -0.00010546       0.00771651      -0.00196317
O        5.95133930       8.33972759       7.13719510       0.01040553      -0.01404325      -0.00180084
H        5.28968419       7.62516443       7.25318939       0.00060036      -0.00503819       0.00101383
H        6.34259722       8.57332507       7.99814218       0.00331585      -0.00607498       0.00000351
O       10.28008866       4.73758114       4.82957740      -0.00021508      -0.00857085      -0.00822574
H       10.24785087       5.11661894       5.73561340      -0.00752054      -0.01462571      -0.00513014
H       10.95049849       5.22266204       4.29903105       0.00621613      -0.00668921       0.00160852
O        0.67523680       2.17441919       0.20520986      -0.00145140      -0.00482106       0.00654113
H        1.55534936       2.34673257      -0.14375439      -0.00344452      -0.00604131       0.00874003
H        0.11963298       3.00275361       0.08957401      -0.00236456      -0.00805812       0.00188280
O        5.74893655       4.91605486       2.22179956      -0.00353572       0.00173796      -0.00319175
H        5.89372919       5.86305253       2.35115965       0.01238748      -0.00064865      -0.01966975
H        6.63701864       4.54522997       2.10292851      -0.01155768      -0.01490434      -0.01105922
O        6.40554258       9.93447499       0.05595687       0.00185987      -0.02242239       0.01835024
H        5.59910819       9.42931456      -0.13991925       0.00328102      -0.02478994       0.02027920
H        6.08969697      10.84613408       0.14747561      -0.00215584      -0.02418523       0.02551154
O        7.62083055       1.59687021       2.40481639      -0.00626987       0.01213805       0.00821188
H        7.35988776       0.64971744       2.56636124      -0.00445922       0.01303600       0.01206562
H        7.20245678       1.92754417       1.56251872      -0.00255646       0.00644597       0.00391152
O        5.63934610       7.51606023       3.57615178       0.01111296       0.01024931      -0.01646203
H        6.37147051       7.28455909       4.21125549       0.00493572       0.00799744      -0.01146943
H        5.42443599       8.43029082       3.80010331       0.00692558       0.00979581      -0.01322000
O        5.04622599       2.03031039       5.36450941      -0.00597227       0.01702628       0.00467360
H        4.60663042       1.52336682       6.06698600      -0.00827737      -0.00231834      -0.01032412
H        6.02344550       1.97830671       5.45628723      -0.00659573       0.01198550       0.00273733
O        6.37263476       5.45815224       9.17069615      -0.00892751      -0.00840136       0.00384313
H        5.65201043       5.21542687       9.81698451      -0.00632101      -0.01328014       0.00528015
H        5.90662752       5.74694298       8.37742623      -0.01240190      -0.00814718       0.00667104
O        0.13142282      10.59500818      -0.42000895       0.00988778       0.00246018       0.01258409
H       -0.68442560      10.12241572      -0.64630473       0.00852078       0.00121623       0.01684229
H        0.82823446       9.89740430      -0.57353979       0.00935176       0.00658306       0.00762358
