142
Lattice="13.103848506762303 0.0 0.0 0.0 13.103848506762303 0.0 0.0 0.0 13.103848506762303" Properties=species:S:1:pos:R:3:forces:R:3 energy=-470830.53125 stress="-0.0010305356699973345 0.00042330980068072677 0.00011340569108142518 0.00042330980068072677 -0.0005357107729651034 -0.0003059168084291741 0.00011340569108142518 -0.0003059168084291741 -0.00027804975979961455" pbc="T T T"
Lu      13.86993673      13.06443084       0.10576921       0.01458770      -0.03139842      -0.02046548
O        2.13893924      11.75216891      -0.47359408       0.00259992      -0.04774641      -0.00909111
H        2.64512780      11.14415328       0.07124420       0.00063066      -0.04870360      -0.00929826
O        0.76472867      13.08410156       2.10631575       0.01896906       0.00071988      -0.02177788
H        1.20305047      12.58739598       2.79521887       0.02649580       0.01217198      -0.01842788
O       12.06002655      12.91595230      12.41068723       0.00381625      -0.01918458      -0.01655611
H       11.22516315      12.52528381      12.16809693       0.00607991       0.00998239      -0.00030856
O        6.00862496       2.59359544      10.43297157      -0.00188461       0.00032133      -0.00224292
C        6.43036727       2.10339428      11.69369594      -0.00063652       0.00052279      -0.00250624
C        6.50814272       3.90046893      10.19238188      -0.00050573      -0.00067136      -0.00410998
C        5.93585943       0.68811983      11.86553890       0.00008862       0.00042588      -0.00200680
C        6.01603641       4.36420478       8.84384926      -0.00084457      -0.00165807      -0.00418881
H        7.52820414       2.14425451      11.75763414      -0.00064015       0.00070209      -0.00369476
H        6.03774507       2.75507781      12.48832545       0.00003165       0.00044090      -0.00216922
H        6.16011391       4.57826150      10.98724219       0.00092994       0.00071570      -0.00474057
H        7.60484989       3.88566926      10.22155219      -0.00055426      -0.00195002      -0.00488369
H        6.24664160       0.29470066      12.83473111       0.00036811       0.00077016      -0.00214274
H        4.84821243       0.63760990      11.81168040       0.00020339      -0.00008277      -0.00201913
H        6.34146676       0.04180030      11.08638423       0.00000618       0.00052486      -0.00214224
H        6.34828123       5.38621676       8.65491107       0.00129428      -0.00276455      -0.00608266
H        6.40388227       3.72644666       8.04919907      -0.00312889      -0.00372376      -0.00366585
H        4.92648251       4.34026677       8.79606567      -0.00084743       0.00082815      -0.00298316
O        8.92304728       9.17941617       7.77077676       0.00068440       0.00454125       0.00363138
C        7.52418183       9.00026850       7.65076513       0.00060940       0.00633502       0.00348722
C        9.60623876       7.94218199       7.72097711      -0.00030077       0.00416288       0.00251942
C        6.85584812      10.35001520       7.58083536       0.00257833       0.00731540       0.00502334
C       11.08799947       8.18809866       7.85605390      -0.00034916       0.00316861       0.00402489
H        7.30771985       8.41594325       6.74641144      -0.00032594       0.00720608       0.00303960
H        7.14920274       8.42071408       8.50940529      -0.00009333       0.00625965       0.00301060
H        9.24246985       7.28539783       8.52651572      -0.00122407       0.00340146       0.00145376
H        9.38108679       7.43773455       6.77030286      -0.00001058       0.00566369       0.00174993
H        5.77547727      10.22983670       7.48886119       0.00240473       0.00924695       0.00596876
H        7.06321659      10.93050947       8.47965634       0.00314292       0.00605267       0.00563800
H        7.21753624      10.90890738       6.71731947       0.00349560       0.00764740       0.00560930
H       11.63018310       7.24194988       7.81939950      -0.00071811       0.00318789       0.00208529
H       11.44347093       8.82342648       7.04463000       0.00028190       0.00500448       0.00576960
H       11.31170600       8.68024355       8.80252978      -0.00074523       0.00087139       0.00520188
O        3.07895872       9.89301962       2.29690989      -0.00535434       0.00371212      -0.00794411
C        4.37870874       9.31972328       2.26967944      -0.00449127       0.00688469      -0.00763202
C        2.14019429       8.97127042       2.82961974      -0.00430566       0.00271402      -0.00893321
C        5.35176783      10.31582593       1.69229858      -0.00620484       0.01082361      -0.00428945
C        0.77154807       9.60040558       2.86410125      -0.00329757       0.00457361      -0.00071693
H        4.66972797       9.02517614       3.28728389      -0.00542899       0.00570865      -0.00810236
H        4.35524361       8.39825020       1.66903514      -0.00160870       0.00806168      -0.00927898
H        2.13392071       8.06579164       2.20964499      -0.00747386       0.00532547      -0.01264545
H        2.45831485       8.66973596       3.83900171      -0.00077596      -0.00203912      -0.01165146
H        6.35204245       9.88111104       1.66065442      -0.00488575       0.01381581      -0.00272105
H        5.06806871      10.59388547       0.67617581      -0.00477149       0.01179985      -0.00432558
H        5.38598375      11.21985948       2.30108262      -0.01026206       0.00974625      -0.00275381
H        0.03491652       8.87341847       3.20878979      -0.00266597       0.00515425       0.00171773
H        0.74434546      10.45425503       3.54153058       0.00187436       0.00350609       0.00060621
H        0.48215183       9.93877383       1.86921410      -0.00801430       0.00705089       0.00168249
O       10.82232561       3.21464474       2.71377115       0.00087997      -0.00295657      -0.00098651
C       11.69297793       2.09974010       2.80369339       0.00420012      -0.00043637      -0.00123925
C       11.51297768       4.38761584       2.33029276      -0.00169426      -0.00101274       0.00023651
C       10.92414199       0.87378395       3.22730064       0.00642478      -0.00308526      -0.00645234
C       10.52116433       5.51073808       2.17122380      -0.00348908      -0.00254101       0.00126361
H       12.16241363       1.93294236       1.82278514       0.00815818       0.00287709       0.00074628
H       12.50485905       2.31450356       3.51341435       0.00111684       0.00039752       0.00194272
H       12.26341009       4.63992440       3.09473410      -0.00202972      -0.00056188       0.00025579
H       12.05718785       4.20667166       1.38968542      -0.00157024       0.00099882       0.00004828
H       11.61563887       0.03629922       3.29915330       0.00673766      -0.00344622      -0.01535481
H       10.44357720       1.02814247       4.19405288       0.00985958      -0.01083666      -0.00354567
H       10.15627547       0.62284915       2.49503309       0.00374080       0.00225289      -0.00549835
H       11.03618301       6.43616287       1.90822592      -0.00524452      -0.00193544       0.00039556
H        9.79980173       5.28043170       1.38707570      -0.00397943      -0.00388499       0.00206223
H        9.97049870       5.66251505       3.09898087      -0.00297771      -0.00294207       0.00167185
O        7.87443182       3.73406448       4.24542248      -0.00142741       0.00466347       0.00329271
C        7.67684545       2.62812921       3.37812533      -0.00485918       0.00364777       0.00540411
C        8.57866740       3.34481895       5.40725497      -0.00113437       0.00453842       0.00290215
C        6.90366415       3.07141464       2.16362015      -0.00857592       0.00266060       0.00748584
C        8.77140523       4.55152025       6.28946743       0.00588429       0.00559908      -0.00019768
H        8.64805589       2.22459090       3.08321671      -0.00587070       0.00230432       0.00337811
H        7.13317230       1.83977012       3.91902825      -0.00399762       0.00513002       0.00819615
H        8.01116520       2.56141285       5.93455801      -0.00387150       0.00855714       0.00587726
H        9.54925827       2.91492968       5.12454993      -0.00382257      -0.00090507       0.00225176
H        6.70630220       2.20666516       1.52839273      -0.01253650       0.00213309       0.00947405
H        5.95137249       3.52333406       2.44395499      -0.00678544       0.00425235       0.01047894
H        7.48459612       3.78734521       1.58055494      -0.00987184       0.00087872       0.00419051
H        9.19675317       4.26189577       7.25231029       0.00726699       0.00580326      -0.00086503
H        9.43550772       5.27145827       5.80987445       0.00738750       0.00205219      -0.00333551
H        7.81289580       5.03690519       6.47424660       0.00844814       0.00977634       0.00153482
O        2.24713704       4.35697559      11.61610323      -0.00507581       0.00130244       0.00971294
C        3.25648298       5.35262565      11.51726207      -0.00721852       0.00230116       0.00015335
C        2.79075170       3.05843901      11.52517972      -0.00122386       0.00273848       0.01189953
C        2.62477145       6.71350834      11.65929527      -0.00655276       0.00288519      -0.00348841
C        1.65166397       2.06156622      11.59661025       0.00368500      -0.00250472       0.01700006
H        4.01208207       5.18476185      12.29892491      -0.00350866       0.00719570      -0.00257292
H        3.76941735       5.25852343      10.55065584      -0.01166444      -0.00163223      -0.00161758
H        3.34701390       2.92773364      10.58802878      -0.00401311       0.00239830       0.01048926
H        3.50421313       2.88664331      12.34559293       0.00156668       0.00808107       0.01030767
H        3.39034585       7.48836931      11.60512252      -0.00621182       0.00204250      -0.00974493
H        1.90093765       6.88645154      10.86288289      -0.00881740       0.00067061      -0.00180396
H        2.11353182       6.80259801      12.61738234      -0.00289392       0.00750481      -0.00212425
H        2.08067068       1.05194587      11.51958241       0.00894568       0.00050014       0.00248106
H        1.08614904       2.25082568      12.52784798       0.01349473      -0.01406264       0.02470787
H        0.95283826       2.19380221      10.76886143      -0.00554502      -0.00015726       0.02537727
O        3.29362584       3.29262676       3.20166797       0.00445709      -0.00361072       0.00700443
C        2.97746554       2.02441571       3.75291939       0.00239974      -0.00136256       0.01113391
C        2.16198391       3.88614080       2.60256318       0.00408793      -0.00226420       0.00870982
C        4.20647076       1.46024783       4.41649260       0.00425544      -0.00678805       0.00248748
C        2.52615216       5.26046741       2.10672054       0.00693887      -0.00596696       0.00101866
H        2.15633063       2.13718725       4.47713855       0.00864288       0.00376191       0.01706055
H        2.61084300       1.35876162       2.96110930      -0.00658555       0.00027841       0.01414847
H        1.79929278       3.25424461       1.77408184      -0.00102497      -0.00516173       0.01370406
H        1.34536152       3.94099252       3.33688465       0.00723904       0.00391332       0.01164412
H        3.98057303       0.49356061       4.86813351       0.00220460      -0.00387636       0.00739032
H        5.00165662       1.32256040       3.68512193      -0.00235659      -0.01403727      -0.00317171
H        4.56931626       2.13310980       5.19449178       0.01494408      -0.00679454      -0.00241375
H        1.64993663       5.73880785       1.66655256       0.00713266      -0.00553158       0.00131528
H        2.89856010       5.87528404       2.92534181       0.01181532      -0.00272740      -0.00354415
H        3.30530229       5.20360953       1.34685810       0.00408983      -0.01220562      -0.00132364
O        5.55672999       6.60926862       4.37668150      -0.00935629       0.00564009      -0.00472531
C        6.80131778       7.24707973       4.15689081      -0.00875968       0.00414123      -0.00507873
C        5.10907136       6.75056964       5.70979750      -0.00519985      -0.00001457      -0.00278233
C        7.26024516       6.94533308       2.75330654      -0.01069255       0.00577292      -0.00605693
C        3.84839188       5.94272979       5.89446661      -0.00493154      -0.00018594      -0.00265832
H        6.69935417       8.33279945       4.31892725      -0.00696669       0.00395346      -0.00317183
H        7.53851640       6.87791609       4.88364184      -0.00856510       0.00175744      -0.00665793
H        5.89004143       6.40248403       6.40199953      -0.00330165      -0.00356373      -0.00707379
H        4.93148589       7.81517009       5.93552415      -0.00395311      -0.00102502       0.00250324
H        8.19048274       7.47176185       2.53592218      -0.01032160       0.00477545      -0.00631855
H        7.43290052       5.87637964       2.64775312      -0.01218056       0.00580025      -0.00805289
H        6.50759451       7.25293000       2.02728050      -0.01096764       0.00786199      -0.00481279
H        3.50479831       6.01243902       6.92747931      -0.00054552      -0.00650380      -0.00083847
H        3.05462164       6.30967854       5.24346318      -0.00750701       0.00439544       0.00323153
H        4.03068479       4.89659248       5.64827928      -0.00660533       0.00139639      -0.00997967
O        9.82040158       3.01984295       9.44396144       0.00496134      -0.00498676       0.00058079
C       11.05085018       3.71640742       9.52574813       0.00460335      -0.00460613       0.00304469
C        9.94016130       1.80645365       8.71696833       0.00659573      -0.00375128      -0.00054071
C       10.85524043       4.95749662      10.36037300       0.00256978      -0.00472668       0.00269681
C        8.60709555       1.10195524       8.72244573       0.00763625      -0.00580540      -0.00114351
H       11.81338841       3.06315501       9.97299928       0.00367662      -0.00447705       0.00458243
H       11.39721836       3.97533824       8.51304566       0.00659578      -0.00455962       0.00395048
H       10.26553494       2.02551890       7.68854403       0.00620925      -0.00239128      -0.00027657
H       10.71582040       1.17869039       9.17788728       0.00756049      -0.00325349      -0.00135267
H       11.78622896       5.52152639      10.42215907       0.00272788      -0.00528178       0.00552689
H       10.09093142       5.59949190       9.92099109       0.00433324      -0.00439668       0.00054662
H       10.54249024       4.69351803      11.37098756      -0.00037882      -0.00476469       0.00155912
H        8.66479858       0.17842059       8.14525435       0.00911790      -0.00499023      -0.00227131
H        8.30618863       0.85675550       9.74063656       0.00841214      -0.00773150      -0.00150883
H        7.82862822       1.73289249       8.29421170       0.00683591      -0.00649396      -0.00019705
