148
Lattice="11.975915611801684 0.0 0.0 0.0 11.975915611801684 0.0 0.0 0.0 11.975915611801684" Properties=species:S:1:pos:R:3:forces:R:3 energy=-550533.0 stress="-0.0004533426836133003 0.0002051407500403002 0.0005102537106722593 0.0002051407500403002 -0.00021664054656866938 8.929049363359809e-05 0.0005102537106722593 8.929049363359809e-05 0.0007357773138210177" pbc="T T T"
Lu      12.58758848      12.49770394       1.04653689      -0.02828076      -0.00792741      -0.01123987
P        4.54607209      10.84514734       3.04598198      -0.00130066       0.01361757      -0.00160897
F        3.82753623      10.87060046       1.67550247      -0.00039545       0.02293883      -0.00112355
F        3.38062788      10.47307078       4.01989088      -0.00699490       0.02057657      -0.00523663
F        4.97377498       9.33164705       3.05129414      -0.01201212       0.00967795      -0.00177160
F        4.30563579      12.36610774       3.42368279       0.01503360       0.01363549       0.00670911
F        0.82960296      10.61251826       1.63696126      -0.00863727       0.01725492      -0.02079075
F        6.00964395      11.21654985       2.65199539       0.00144714       0.00197998      -0.00500089
P        7.01421016      11.38001018       6.12434293      -0.00883839      -0.00187154      -0.00061381
F        7.82521572      10.17366569       5.45267884       0.00508890       0.01136568      -0.00768608
F        8.30507085      11.86637652       6.92996618      -0.01665723       0.00637010       0.00608563
F        7.35060160      12.35128584       4.89508730      -0.01608502       0.01054451       0.00718933
F        6.11057927      12.54467906       6.81598701      -0.02346146      -0.01386988       0.00491004
F        6.59559711      10.40134737       7.37154643      -0.00206646      -0.01374488      -0.00941071
F        5.63925115      10.86812194       5.32904127      -0.00206581      -0.00919486      -0.00710070
P        3.20508664       8.83481827      10.75212624       0.00244883      -0.00064491      -0.00371425
F        3.04336491       7.71648539       9.70285590       0.00951676      -0.01026094       0.00326496
F        1.67433691       8.65920739      11.15777524       0.00174356      -0.00449408      -0.00857691
F        3.63611172       8.37030190      12.16329527      -0.00016162       0.01015326       0.00114310
F        2.93618419      10.33281007      10.48582587       0.00001355      -0.00403881      -0.01213022
F        1.27966942      12.76003171      11.22420561      -0.02665867      -0.01171213      -0.01444449
F        4.71982984       9.04118812      10.34778163       0.00279900      -0.00123079      -0.00178346
O        3.83758265       9.52189939       7.57573950      -0.00505282      -0.00842977      -0.00337657
C        4.44884144       8.33888834       7.07593774      -0.00029996      -0.00759190       0.00070240
H        3.79174742       7.50970194       7.32334205      -0.00078335      -0.00833604      -0.00321709
H        5.42554663       8.16533759       7.53698882      -0.00308365      -0.00646029       0.00692755
H        4.57576345       8.37600682       5.98917239       0.00610317      -0.00766806       0.00154036
H        4.47528636      10.22461844       7.41769955      -0.00820039      -0.00605003      -0.00586167
O        6.10075290       4.84066425      10.39773365      -0.00297730      -0.01000738      -0.00371052
C        6.00374459       6.24948924      10.29137787      -0.00526013      -0.01108646      -0.00483245
H        5.72854314       6.70138908      11.25180789      -0.01758426      -0.01080973      -0.00818107
H        5.26751461       6.55218922       9.54456534       0.00406140      -0.00990925      -0.01404965
H        6.96832050       6.66927225       9.99344692      -0.00163406      -0.01054010       0.00757289
H        5.30280124       4.44127350      10.00450228      -0.00558951      -0.01199628       0.00032949
O        8.16175179       9.51379116       1.65024343       0.00255799       0.01134496      -0.00598255
C        7.50215259       8.60945341       0.76028832       0.00254808       0.00978038      -0.00511670
H        7.43461019       7.60696358       1.19406053       0.00186014       0.01049277      -0.00354277
H        7.99224643       8.56169311      -0.21624763       0.00359574       0.00830779      -0.00441477
H        6.48874693       8.98237813       0.62222612       0.00296345       0.01030095      -0.00632547
H        9.08700056       9.23685737       1.78132335       0.00158425       0.00978310      -0.00288450
O       11.35503642      10.04186938       4.74171810       0.01094204      -0.01691318       0.00649461
C       10.94080417      11.39054782       4.59369443       0.00565218      -0.01827884       0.00823142
H        9.86893315      11.47468690       4.40074410       0.00591195      -0.02308359       0.00471190
H       11.49702741      11.88927138       3.77672619       0.00717255      -0.01448523       0.01178609
H       11.17738622      11.91533483       5.51716295      -0.00062408      -0.01949292       0.01074302
H       11.04357342       9.55022738       3.96904363       0.01702787      -0.01506023       0.00206689
O        7.79512698       4.59422128       6.07636902      -0.00474659      -0.00324987      -0.00790253
C        7.26015884       5.22818537       7.23768587      -0.00523759       0.00079732      -0.01028271
H        7.59603840       6.26589770       7.31020266      -0.00757737       0.00186306      -0.01512786
H        7.55671435       4.69983169       8.14563997      -0.00363231       0.00505075      -0.00829077
H        6.16998204       5.22004677       7.18032235      -0.00514308      -0.00172314      -0.00989199
H        8.65229803       5.05121201       5.86149199      -0.00356701      -0.00495729      -0.00907036
O        3.91938287       3.43422530       9.39310631       0.02183835      -0.00097732       0.00664246
C        3.33621187       3.41106676       8.09417737       0.00107562      -0.00366288       0.01593381
H        2.24606771       3.36255384       8.15355899       0.00246629      -0.01142518       0.03673478
H        3.67847263       2.54635694       7.52172803      -0.00453678      -0.00112733       0.00735839
H        3.62288095       4.31763371       7.55468846      -0.01139066      -0.00045303       0.01415066
H        4.29799688       2.54672368       9.56112843       0.02258064      -0.00092497       0.00653651
O        8.58835815       9.28732858       9.35975915       0.00278747       0.01107107       0.00135076
C        9.78563947       9.50524425       8.62038669       0.00348043       0.00580636       0.00141308
H       10.06466451      10.56271803       8.59476443       0.00568879       0.00514811      -0.00266355
H        9.69663814       9.15344826       7.58797617       0.00429209       0.00113289       0.00299218
H       10.57253671       8.93750396       9.11461146       0.00240900       0.00660482       0.00454594
H        7.87349613       9.71427454       8.87542042       0.00238924       0.00600782      -0.00348578
O        5.43426631       6.49780916       3.65740867      -0.00632030       0.00709906       0.01072724
C        6.70996989       7.02572510       4.00351399      -0.00417650       0.00829496       0.00000262
H        7.50533149       6.36632094       3.64185191      -0.00625721       0.00907820      -0.00622803
H        6.81825832       7.14037623       5.08612573       0.00466220       0.00910217      -0.00096285
H        6.82728926       8.00069539       3.54082008      -0.00916773       0.00834435      -0.00130953
H        5.43838139       5.57692766       3.96778762      -0.00365519       0.00624051       0.00829861
O        1.48764001       1.95428785       2.15986328       0.00975250      -0.02156511      -0.00637710
C        1.52143678       2.68769915       3.36867539       0.00162410      -0.01918204      -0.00484957
H        0.55060689       2.67053258       3.87209845       0.00020289      -0.02976616      -0.00810955
H        1.78376567       3.73413080       3.18131038      -0.00874376      -0.01834318      -0.01258317
H        2.26213097       2.26116256       4.04933516       0.00576472      -0.01025656      -0.00263073
H        2.83284676       2.76156882       1.42089707      -0.00024199      -0.01525463      -0.00029300
O        1.34964430      12.30555284       7.31984220       0.00279042       0.00584596       0.01564652
C        2.03003231      11.81262690       6.17345292       0.00254042       0.01014921       0.01364651
H        1.83960280      10.75203881       6.00447807       0.00634208       0.00966108       0.01232267
H        3.11261500      11.96626648       6.23566125       0.00229952       0.01368561       0.01221060
H        1.65284561      12.37226299       5.31911202      -0.00015004       0.01014043       0.01480019
H        1.60759352      11.76241643       8.06947088       0.00425842       0.00488963       0.01415503
O        9.98528303       5.94949467       5.74741420      -0.00223978      -0.01267850      -0.01053572
C        9.95920420       7.15976642       4.99809572      -0.00230733      -0.00801258      -0.00299689
H       10.96467493       7.56697693       4.88616098      -0.00187033      -0.00907920      -0.00217646
H        9.32226481       7.92276715       5.45353797      -0.00000757      -0.00973180       0.00325251
H        9.57811377       6.92968971       4.00647078      -0.00477532      -0.00088681      -0.00378364
H       10.26359541       6.15641628       6.67577499      -0.00141870      -0.01719464      -0.00961940
O       10.88046294       6.35491212       8.21259155      -0.00733340      -0.00676537      -0.01049404
C       11.43972683       5.07337591       8.50514252       0.00814237       0.00272274       0.00128502
H       12.11485529       5.11815474       9.36262032       0.00827606       0.01904193       0.00014421
H       11.96810216       4.65872976       7.64173480       0.01194522       0.00001620       0.00487316
H       10.61513424       4.40922082       8.75724171       0.01591778      -0.00404041       0.00917781
H       11.59552959       6.96467226       7.92756131      -0.01404661       0.00193314      -0.00880870
O        6.05939317       3.92283267       4.35187296      -0.01093692       0.00230763       0.00237331
C        5.24589171       3.01693632       5.11985936      -0.00771162       0.00250305       0.00665930
H        5.58333419       3.01474387       6.15284837      -0.00739466       0.00885911       0.00670108
H        5.33859201       2.00682776       4.73198632      -0.00383001       0.00135839       0.01122402
H        4.20840440       3.34881260       5.07243552      -0.00882420      -0.00130156       0.00559700
H        6.84186634       4.19403591       4.93946640      -0.00641875      -0.00009378      -0.00100654
O        0.75879881       7.88140846       6.95690748      -0.01826772       0.01022518      -0.00476703
C        1.41810379       6.90102791       6.14658332      -0.00687841       0.01459143      -0.00036434
H        0.71532426       6.35226043       5.51313864       0.00094023       0.00940204      -0.00457139
H        1.88792427       6.19319095       6.82920209      -0.00584690       0.01763734       0.00227046
H        2.19077609       7.34603193       5.52293821      -0.00643742       0.01982339       0.00396474
H        0.42340151       8.58673627       6.38654431      -0.01792878       0.00890590      -0.00747773
O        5.82204110       3.42848959       1.90670040      -0.00096552      -0.00488612       0.00654912
C        6.51913825       2.19493892       1.57003255       0.01268589       0.00690186      -0.00527068
H        6.01463077       1.74954838       0.71642904       0.00542690      -0.00307871       0.00390662
H        6.50199364       1.51971953       2.42064359       0.03901806       0.00646180      -0.00482991
H        7.54198615       2.44119100       1.30390480       0.00379667       0.02418458      -0.02463008
H        5.95852191       3.65338023       2.90794746      -0.00301915      -0.00634118       0.00849468
O        8.41177351      11.85850480      12.40228096      -0.00177974       0.00955069      -0.00890049
C        9.70780989      11.73391623      11.94683235       0.00774640       0.02025622       0.01685303
H       10.00356149      10.70382096      11.71543424       0.02037604       0.02306315       0.01820269
H       10.41857255      12.09875859      12.77126424      -0.01714232       0.01984641       0.03834808
H        9.87089527      12.36211070      11.06859612       0.02268264       0.02547489       0.02320345
H        8.20845868      11.04185812      12.92473238      -0.00324789       0.00867935      -0.01106572
O       10.81742171       8.76777960       2.10564237      -0.00053865       0.00544086       0.00173702
C       10.84748388       7.44679292       1.54221887       0.00002852       0.00771350      -0.00418241
H       11.25373642       7.45386847       0.53022583       0.00045155       0.01241779      -0.00323391
H        9.82325972       7.08181078       1.49736356      -0.00046420       0.00757862      -0.00612240
H       11.43221435       6.76371068       2.15878586      -0.00044684       0.00579128      -0.00650683
H       11.61708487       9.25840370       1.84472605      -0.00154024       0.00831876      -0.00174895
O        3.56786035       3.28498874       1.01800037       0.00088441      -0.01249959       0.00223655
C        3.05071971       4.49858631       0.43024925       0.00509381      -0.01181283       0.00207652
H        2.42374250       4.24655600      -0.42287987       0.00265841      -0.00809392       0.00289568
H        3.91256152       5.06284265       0.07988728       0.00774258      -0.01751122      -0.00073117
H        2.51240149       5.08195355       1.17742270       0.00967517      -0.00649126       0.00122201
H        4.77903435       3.38009116       1.59280695       0.00073311      -0.01198685       0.00644116
O       10.31984858       4.83084606      11.84584057       0.00667794      -0.00116819       0.00677848
C        9.23186589       5.42078844      11.13250029      -0.00637989       0.00082147      -0.00051157
H        8.46223549       5.80066037      11.80996768      -0.00399318       0.00134312       0.00070706
H        8.75471973       4.71348567      10.44890587      -0.00312172      -0.00235772       0.00153553
H        9.64099570       6.24735981      10.55385521      -0.00846882      -0.00179777      -0.00142966
H        9.96031947       4.12243685      12.38437888       0.01509400       0.00152230      -0.00234491
O        2.74122588       6.42918498       3.17964797      -0.00426620      -0.00044543       0.00228789
C        2.05020366       7.57507743       2.71073433      -0.00175083       0.00096458       0.00231645
H        1.65198800       7.39791015       1.70721402       0.00527151       0.00564247      -0.00145712
H        2.69376737       8.44954297       2.66672904      -0.00198519       0.00210473       0.01122274
H        1.21317907       7.80934275       3.37551598      -0.00660080      -0.00253544      -0.00244102
H        3.67757165       6.66066358       3.29954956      -0.00521696      -0.00075589       0.00553906
O        5.44657335       1.18710854       9.66971288       0.00845835      -0.01027572      -0.00769544
C        6.71796785       1.84514789       9.56267150       0.01446414      -0.01906647      -0.00398520
H        6.74906796       2.49843416       8.68762391       0.02448583      -0.02986115      -0.01227713
H        7.52695798       1.11715267       9.50031779       0.00813702      -0.02840182       0.01037611
H        6.83521359       2.45688334      10.45332515       0.01283588      -0.00702778      -0.01149347
H        5.39873808       0.56049815       8.93963041      -0.00431227       0.02669384      -0.03908269
