145
Lattice="12.731255721135666 0.0 0.0 0.0 12.731255721135666 0.0 0.0 0.0 12.731255721135666" Properties=species:S:1:pos:R:3:forces:R:3 energy=-1196243.625 stress="-0.0011037263320758939 0.001717252132948488 -0.0002886553847929463 0.001717252132948488 -0.0024795839563012123 0.0002285917362314649 -0.0002886553847929463 0.0002285917362314649 -0.0012013792293146253" pbc="T T T"
Md      14.96156973      12.72934668       2.01291491       0.02081254      -0.02284263      -0.00743072
S        2.05506425      11.68007402       8.63091835      -0.01312101       0.01456070       0.00665426
F        4.54014678      11.31724603       7.86731722      -0.01703662       0.02334177      -0.00857722
F        4.20024401      13.26987928       8.73049119      -0.01902887       0.02239537      -0.00843275
F        3.52571171      12.84048108       6.71694201      -0.02987940       0.01808402      -0.00347370
O        1.11692181      12.75987413       8.39287371      -0.01928282       0.01133990       0.01210594
O        2.38219872      11.46399740      10.03225034      -0.00279152       0.01822183       0.00466132
O        1.87230021      10.47984954       7.84491605      -0.01529136       0.01390147       0.00978506
C        3.65364454      12.31734514       7.95461421      -0.02009058       0.01972038      -0.00433177
S        3.24198969      10.20768391       1.09975375       0.03594434      -0.02379793      -0.01010914
F        5.07038125      12.01359304       1.34083966       0.02823634      -0.01340117       0.01744179
F        5.50564388      10.59661967      -0.25046570       0.03026669       0.01252951      -0.00421263
F        5.78454731      10.03064907       1.81073059       0.03956345      -0.01767416      -0.01415574
O        3.12489965       8.83948055       0.72389203       0.04526487      -0.01399893      -0.01547302
O        2.55922866      11.19819421       0.25406610       0.03737786      -0.01759449      -0.00898856
O        3.03125734      10.57614660       2.50661967       0.02275570      -0.02797728      -0.00679737
C        5.01065603      10.70654106       0.96880861       0.03423142      -0.00888383      -0.00093478
S        0.32549797      11.76690523       4.03775272       0.00166294       0.01380110      -0.00792226
F        1.11102932       9.21990374       3.57181043      -0.01998898       0.01172921      -0.00407150
F       -0.98839948       9.52571749       3.95174070      -0.01939341       0.02694849      -0.00829209
F        0.44458601       9.64094496       5.57767454      -0.02252783       0.01766302      -0.00539702
O       -0.68470930      12.22980047       4.93129812       0.01001787       0.03225178      -0.01771581
O        0.06271637      11.94414708       2.58431866       0.01158437       0.01060946      -0.01176989
O        1.69905192      12.23995657       4.28040509       0.01221484      -0.01120046      -0.00723226
C        0.25507212       9.91330167       4.30265051      -0.01830497       0.01757193      -0.00582188
O        7.93934212       9.71758824       9.88442369       0.00404015      -0.00384706       0.00676745
O        5.93807725       8.93411256       9.99988265      -0.00077122       0.00826514       0.00489827
O        6.22917024      11.19174885       9.97793406       0.00973564       0.00826764      -0.02244185
C        8.82769839      10.84545166       9.80755978       0.01027024      -0.00958800       0.00228656
C       10.22412233      10.30594631       9.65556455       0.00699693      -0.01650909      -0.00004253
C        6.63421155      10.05792761       9.94675589       0.00677621      -0.00060999      -0.00536800
C        4.49617805       9.03670725       9.94421716       0.00017345       0.01846200      -0.00358289
H        8.52898554      11.46561341       8.96074685       0.01177597      -0.00927147       0.00222057
H        8.70694759      11.44927358      10.71078050       0.01625908      -0.00748774       0.00160205
H       10.94668967      11.11806092       9.57431642       0.00932467      -0.01953268      -0.00805234
H       10.49137363       9.69103598      10.51501961       0.00850568      -0.01228869       0.00233026
H       10.29376770       9.68800184       8.76202861      -0.00067362      -0.02323295       0.00400999
H        4.13732297       9.89955815      10.49496177       0.00538909       0.03191686      -0.02122575
H        4.13713135       8.11039369      10.38615196      -0.01030855       0.03021210       0.01205717
H        4.18724298       9.11012973       8.90633723       0.00659398       0.00185518      -0.00667524
O        4.63608573       1.84353640      11.32879348      -0.01052022       0.00861982       0.00186725
O        2.54978949       1.83978925      10.89408222      -0.01307103       0.00974829       0.01118228
O        3.19622699       1.26944392      12.98057564      -0.00037915      -0.00745890       0.00217384
C        5.80435751       1.47053352      12.10386840      -0.01014212       0.01157770       0.00362772
C        7.00957393       1.89733682      11.31250628      -0.00953892       0.00272405       0.00025225
C        3.44467095       1.60732385      11.81734173      -0.00614707       0.00326404       0.00446713
C        1.19242613       1.44591468      11.16656113      -0.00969465       0.00516769       0.01812033
H        5.75998273       1.95909349      13.07759622      -0.00996982       0.01868787      -0.00030378
H        5.78099394       0.39123237      12.22034111      -0.01242124       0.01262939       0.01179515
H        7.90845350       1.63718239      11.87070219      -0.01088582       0.00432653       0.00276376
H        7.02286288       1.38631929      10.35010662      -0.01093110      -0.00446931       0.00433445
H        7.01722461       2.97588357      11.16458549      -0.00630485       0.00152081      -0.00729689
H        1.15458600       0.35913448      11.22213187      -0.00536237       0.00533623       0.02043692
H        0.64431798       1.79266185      10.30054458      -0.01480895       0.00050884       0.01963618
H        0.83719521       1.92604411      12.07884671      -0.00751122       0.00588383       0.01835027
O        8.05346951       7.03408380       8.17719786      -0.00272050      -0.00932666      -0.00310567
O        8.28543841       7.95014795       6.22971529      -0.00214854      -0.00744599      -0.00200552
O       10.14328440       7.29786138       7.34887644      -0.00268483      -0.00515899      -0.00082649
C        8.62002815       6.34734219       9.31661223      -0.00232932      -0.00545589      -0.00087377
C        7.56555223       6.25544509      10.38929291      -0.00577849      -0.01202251      -0.00542837
C        8.94225719       7.40434933       7.26542639      -0.00298798      -0.00737134      -0.00152674
C        9.13161701       8.40115188       5.16625466       0.00032590       0.00071001       0.00349678
H        8.93280531       5.36417737       8.96481005       0.00640108      -0.00324965       0.00074476
H        9.50263962       6.89514250       9.65008773      -0.00782034       0.00120717       0.00232868
H        7.87888236       5.53794420      11.14889829      -0.00122728      -0.00560585      -0.00140369
H        7.39597827       7.22212344      10.85605558      -0.01779842      -0.01179969      -0.01049156
H        6.61685601       5.91450806       9.97787044      -0.00036518      -0.02384808      -0.00788824
H        9.99508931       8.93461258       5.55278980      -0.01217532       0.01663248       0.00934771
H        8.51737430       9.05570045       4.55420982      -0.00519183      -0.01237343      -0.00465672
H        9.46497035       7.55706418       4.56460813       0.02043147       0.00389579       0.01075089
O        5.32831602       9.82890087       4.73348147       0.02415779      -0.00898692       0.00380209
O        3.96859172       8.16198626       4.86219241       0.01892310      -0.00563271      -0.00575975
O        5.18508832       8.70007673       6.69822995      -0.00969094       0.00677595       0.00768137
C        6.23032969      10.77101441       5.34298119       0.01299020      -0.00298840       0.01245016
C        6.28671239      11.96979885       4.43273406       0.00895199      -0.00130981       0.01482457
C        4.85787057       8.87969909       5.55635703       0.01125741      -0.00090836       0.00500262
C        3.37708214       7.09361193       5.61075783      -0.00079225       0.00835611      -0.00256199
H        5.85276911      11.03383819       6.32349978       0.00467408      -0.00873619       0.01049781
H        7.20180147      10.29533757       5.47504062       0.01570606       0.00441727       0.01654555
H        6.85402330      12.77114367       4.90796256       0.00509776       0.00023071       0.01633830
H        6.74858290      11.73677316       3.47420116       0.01108312       0.00119258       0.01532707
H        5.27362985      12.32402819       4.24972182       0.00780848      -0.00552526       0.01368080
H        4.13727798       6.35393505       5.86750876      -0.01112139       0.00613990       0.02006987
H        2.63257652       6.66056690       4.95013956       0.00680691       0.00590207      -0.00971752
H        2.92338944       7.47725591       6.52259897      -0.01317941       0.02451237      -0.01601964
O        9.60536943       3.18968548       2.85521830      -0.02055385       0.00865865       0.00233777
O        9.86306578       5.07943988       1.85791361      -0.01310427       0.00705437       0.00117035
O        8.45799064       3.55735882       0.93515465       0.01442516      -0.00383720      -0.02016497
C        8.95713442       1.90410719       3.00739234      -0.01052192       0.00256027      -0.00945011
C        9.64610300       1.20907746       4.14506896      -0.01719204       0.00531492      -0.00383228
C        9.22579446       3.90046481       1.79877756      -0.00535274       0.00326917      -0.00735492
C        9.50691437       5.99455287       0.81776097       0.00348979      -0.00136358      -0.01168121
H        7.89600002       2.08590232       3.19375373      -0.01409811      -0.00782546      -0.02112830
H        9.05087659       1.35341393       2.07035694       0.00545744       0.00666387      -0.01012269
H        9.24842758       0.20333845       4.27453738      -0.00649545      -0.00024341      -0.01519681
H       10.70932993       1.11187118       3.95205403      -0.01347971       0.01974342       0.01028607
H        9.52228139       1.75430679       5.08001948      -0.03779566      -0.00120278      -0.00279683
H        9.79334568       5.60031013      -0.15587097       0.02567782      -0.00590768      -0.00328866
H       10.05496515       6.90687814       1.03466464      -0.00631480       0.00311302      -0.00607085
H        8.43378538       6.17015965       0.83092777       0.00271294      -0.00743611      -0.03508687
O        4.12118728       4.45348711       9.60075275      -0.00704062       0.01283597      -0.00506799
O        2.90185978       5.10894014      11.25850380       0.00446901       0.01516280       0.00024882
O        1.86638124       4.34981098       9.39118165      -0.01742947       0.00419360       0.00427938
C        4.26334746       3.74409170       8.34524548      -0.01221848       0.01691742      -0.00736757
C        5.73490347       3.69705712       8.02767493      -0.01399702       0.00634503      -0.01160355
C        2.86560332       4.60534504      10.01104230       0.01203638       0.01425713       0.01059467
C        1.60804586       5.35037291      11.82484812       0.00899384       0.01872443       0.00621444
H        3.83760168       2.75162643       8.47377152      -0.02031484       0.01960337      -0.01187174
H        3.68833183       4.26933684       7.58149436      -0.00992778       0.02496216      -0.00476795
H        5.90069272       3.09110077       7.13616345      -0.02087801       0.00959828      -0.01426579
H        6.14652255       4.68957321       7.84634521      -0.00653360       0.00407049      -0.00754401
H        6.28318585       3.23804416       8.84972860      -0.01580696      -0.00172932      -0.01467182
H        1.00557854       5.96090774      11.15510380       0.01166642       0.02953547       0.01269954
H        1.79203504       5.86913388      12.76071234       0.01395470       0.00895084       0.00989810
H        1.09173426       4.40458408      11.99794917       0.00199798       0.02080044      -0.00230202
O        5.06815677       4.05370588       2.40166032      -0.01663425      -0.02167998       0.01019325
O        5.97620654       5.90572619       1.72019181      -0.00486994      -0.03413969       0.01147963
O        3.86941262       5.96415349       2.54405250      -0.02652395      -0.00370115       0.00666070
C        3.96576409       3.41114559       3.06682311      -0.01776120      -0.01891571       0.00857069
C        4.32780446       1.95985892       3.22177534      -0.02261920      -0.01523221       0.02485712
C        4.87371566       5.37429309       2.24368068       0.02285266      -0.03779715      -0.00364333
C        5.88592502       7.33836716       1.59874217       0.01161458      -0.03281763       0.00140747
H        3.81048757       3.89516956       4.03225788      -0.02507259      -0.00782166       0.00439718
H        3.06193008       3.55999617       2.47169315      -0.01679066      -0.02142861       0.00186437
H        3.57654990       1.44941556       3.83352027      -0.02531715      -0.01068500       0.02142603
H        4.43226796       1.48963834       2.24364470      -0.01144380      -0.02246846       0.02830395
H        5.27869012       1.85587138       3.74130653      -0.02530435      -0.01058076       0.03227490
H        5.02585286       7.61036051       0.99414271       0.01833892      -0.02980451      -0.01023196
H        6.80913174       7.65844679       1.12499951       0.01654088      -0.04026217       0.01239139
H        5.78271050       7.78488323       2.58554511       0.00041775      -0.02699046      -0.00059015
O       10.66983120       2.96308742       7.55651654       0.01198563       0.00103292       0.00173675
O       11.12171832       4.17927636       5.84929065       0.01551831       0.00225592       0.00389954
O        9.05444450       4.34627362       6.77244981       0.01165628      -0.00468409      -0.00533531
C        9.80494212       2.51566777       8.61528841       0.00800392      -0.00523078      -0.00438061
C       10.31512947       1.16929020       9.05283687       0.00686112      -0.00637007      -0.00876236
C       10.17193405       3.88640106       6.73255840       0.01186413      -0.00047919      -0.00035122
C       10.80791037       5.23873462       4.93342766       0.01623246       0.00108838       0.00264250
H        9.85101966       3.25000428       9.42537816       0.00363754      -0.00939396      -0.00056040
H        8.77724804       2.48033682       8.25104824       0.00973445      -0.00457919      -0.00903401
H        9.75797409       0.83462074       9.92802622       0.00594443      -0.01002490      -0.01191394
H       10.19704341       0.43816037       8.25492532       0.01131949      -0.00326741      -0.01120342
H       11.37571698       1.21006867       9.29445965       0.00750697      -0.00569057      -0.00572044
H        9.76369785       5.18369199       4.63851988       0.01715028       0.00016599       0.00070762
H       11.44385041       5.08262864       4.06953947       0.01818743       0.00107985       0.00411993
H       11.01778880       6.18952103       5.41837088       0.01494695       0.00142860       0.00237963
