150
Lattice="11.51706279293556 0.0 0.0 0.0 11.51706279293556 0.0 0.0 0.0 11.51706279293556" Properties=species:S:1:pos:R:3:forces:R:3 energy=-1160381.5 stress="0.0013789040967822075 0.0005555327225010842 -5.143252019479405e-05 0.0005555327225010842 0.00020965590374544263 0.0004913862212561071 -5.143252019479405e-05 0.0004913862212561071 5.997657717671245e-05" pbc="T T T"
Md      12.21977942      12.32827460      -1.62163220       0.00144096      -0.00400060       0.00085779
P        2.32058033       6.96480529       6.11299137       0.00434335       0.00563999       0.00103479
F        1.68117147       7.02952467       4.70222160      -0.00366092       0.02269886       0.00542974
F        3.65403522       7.70284403       6.32387938       0.00432891      -0.00327522       0.00427580
F        1.51959229       8.28799325       6.50795308       0.00697075       0.00026813       0.02168885
F        3.48073290       4.32006387       9.05484755       0.00019946      -0.00621992      -0.00015906
F        3.07943918       5.63986075       5.69482260      -0.00341417       0.00616121      -0.01810097
F        1.66412113       6.22964212       7.29185813       0.00542289      -0.01027742      -0.00279152
P        6.29242171       2.53779518       4.31506268       0.00095406       0.00006202       0.00104312
F        6.14743737       2.99156397       2.76442267       0.00947446      -0.00827370      -0.00187835
F        5.08779096       1.47044927       4.12161456       0.00149027      -0.00075476       0.00042228
F        7.35780130       1.39889812       3.88646517       0.00255585      -0.00314668       0.01269627
F        6.44885521       2.10549143       5.86304703      -0.00710527       0.00812560       0.00405708
F        5.22122367       3.66554012       4.74328393      -0.00087224       0.00255170      -0.01031325
F        7.50196877       3.61144285       4.49361472       0.00058058       0.00058256       0.00146301
P        9.33837030       9.13595714       7.46064558      -0.00111109       0.00553171       0.00335807
F        8.70932697      10.54002584       6.90115059       0.00746715       0.00655210      -0.00364596
F       10.69604434       9.94872276       7.94471566       0.00174987      -0.00020584       0.00346231
F       12.52328193      10.66915027      11.07860864       0.00167425      -0.00380765       0.00151356
F        7.94613764       8.36079215       7.10800895      -0.00146759       0.00946033      -0.00420319
F        9.94976535       7.74975804       8.06340202      -0.00646001       0.00201148       0.00285389
F        8.70970026       9.47914663       8.93480874      -0.00289930       0.00805807      -0.00386781
N        8.30416608       7.92211367       3.75327254      -0.00321478       0.00959918       0.00219442
H        7.88465260       8.68233183       3.21378020      -0.00925578       0.01120204       0.00547457
H        7.46643409       7.31554239       4.06179314      -0.00079849       0.00670679       0.00318892
H        9.01345525       7.40438933       3.19919435      -0.00444567       0.01384701      -0.00085743
N        5.54810678       4.34572331      -0.15559892       0.00536230      -0.00646065      -0.00339607
H        5.64530225       3.34719214      -0.32026781       0.00220249      -0.00578520       0.00089661
H        4.82594191       4.63687120      -0.81562561       0.00456138      -0.00607768      -0.00500178
H        5.14827885       4.43350294       0.77211740       0.00545843       0.00013092      -0.00400205
N        9.37059055       1.07973364       1.51254333      -0.00670871       0.00567885       0.00900270
H        8.92849935       1.17943526       2.42054749      -0.01022140      -0.00299154       0.00215539
H        9.11354222       0.13865173       1.18495583      -0.01020745       0.00947541      -0.00671909
H        8.86616285       1.73199290       0.91836608       0.00061325       0.01635469       0.00959206
N        8.11063231       6.91597193      10.75114177       0.00604054       0.00376117      -0.01598232
H        7.19146331       6.56421764      11.00169678       0.00207230       0.00689134      -0.00837797
H        8.49551576       6.25000509      10.09226492      -0.00339113       0.00863685      -0.01738843
H        8.00522124       7.78750846      10.24585903       0.00209576       0.00876174      -0.01007864
N        3.59103493       6.61814423       2.25145763       0.00150688      -0.00427255       0.00039151
H        2.74806952       7.18035444       2.30953454       0.00294989      -0.00618938       0.01310809
H        3.30257870       5.66327030       2.43557806       0.00656594      -0.00498281       0.01296862
H        3.84875669       6.65066098       1.26766732      -0.01690778      -0.01166183      -0.00482847
N        5.77879901       2.03986240       9.13085161       0.00385277      -0.01281193       0.00094481
H        6.75424330       2.31499650       9.08781214       0.00486431      -0.01271964       0.00277023
H        5.22041355       2.86547349       8.91853596       0.00558563      -0.01307739      -0.00070390
H        5.64028452       1.37544919       8.37401465       0.00594891      -0.01332882       0.00081034
N        3.69474100       9.49116045       0.59315340      -0.00354612       0.00225072       0.00597151
H        3.51719757       8.55983191       0.21559890      -0.00196018      -0.00277711       0.01507047
H        4.50924976       9.82422688       0.08257406       0.00001636      -0.00445302       0.00113792
H        2.90578639      10.05879255       0.28699550       0.00032702      -0.00215434       0.00118975
N        0.09160861       2.44083889      11.72780108       0.00589975      -0.00636941       0.00404525
H        0.94989853       2.65842354      12.22478477       0.00296195      -0.00727104       0.00251403
H       -0.52050130       1.89279598      12.35959167       0.00241970      -0.00248978       0.00634986
H       -0.40126950       3.32577865      11.61676445       0.00627708      -0.00492778       0.00007086
N        5.68699514       5.71638599       7.58819438      -0.00132605      -0.01279028       0.00078700
H        4.92902827       5.29943863       8.13580066      -0.00090715      -0.01148228       0.00254654
H        6.27381662       6.25299808       8.21626478       0.00738345      -0.02297106       0.00147127
H        6.24611111       4.94320890       7.24627171      -0.01012847      -0.01446372      -0.01022050
N        2.84999234       1.84835349      10.18073140       0.00194347      -0.00518558      -0.00285214
H        3.55189326       1.33755141       9.64717642       0.00135676      -0.00677388      -0.00258158
H        3.21571524       1.78971887      11.13774573       0.00272066      -0.00341229      -0.00294776
H        2.98924330       2.82572761       9.86286775       0.00232537      -0.00557272      -0.00442626
N        3.06377494      10.47165737       4.75573861       0.00438336      -0.00048129       0.00121629
H        2.97999426      11.41048370       4.37989691       0.01383997       0.00861662       0.02008570
H        2.11040513      10.13846685       4.83488480      -0.00201386       0.01010618      -0.00331203
H        3.49662953       9.92546913       4.01795726      -0.00544113       0.01056469      -0.00903832
N        0.49238432       3.79272187       8.57222980      -0.00717101      -0.00989086      -0.00521194
H        0.45428104       3.04017678       7.89448839       0.00276069      -0.00604872      -0.00228775
H        0.16567169       3.42897234       9.45868032      -0.00340133      -0.00121714      -0.00836191
H        1.47422860       4.05187371       8.69715244       0.00593382      -0.00486203      -0.00128365
N        8.15148912       9.93395902       0.63025690      -0.00468571       0.00657289      -0.00643482
H        7.47486017       9.79867443       1.37808483       0.00331238       0.00257357      -0.00234778
H        8.64914630       9.05674680       0.51935264       0.00629847       0.01162753      -0.00631532
H        7.59467192      10.04755026      -0.21298896      -0.01152642      -0.00421467      -0.00442347
N        0.86659793       9.50351177       2.31399383       0.00037590      -0.00684957      -0.00093544
H        0.62429258       9.88514039       1.39939618       0.00021854      -0.00121602       0.00184511
H        1.87394465       9.38087343       2.24967472      -0.00150263      -0.00168324       0.00256554
H        0.74050834      10.28498330       2.95657991      -0.00732654      -0.00960353       0.00607297
N        4.55084519       1.01000799       1.03800872      -0.00027521       0.00124941       0.00212392
H        5.11042019       0.82520639       0.21005456       0.00267917       0.00155511      -0.00390354
H        4.33042260       0.11068044       1.45101863      -0.00183486       0.00249385      -0.00473379
H        5.14634570       1.50584614       1.68956079       0.00189664      -0.00211127      -0.00072018
N        9.60424693       1.89861101       6.08897772      -0.00405395       0.00523064       0.00359327
H        9.84296855       2.25627926       5.17017482      -0.02451716       0.01413209      -0.00153828
H        8.86911571       2.51552863       6.42100901       0.00654205      -0.00098602       0.02423199
H        9.12391440       1.01819196       5.91894708      -0.00653242       0.00500357       0.00207457
N        1.65567985       0.13235784       7.75767580      -0.00374869       0.00161219      -0.00378320
H        2.36119314      -0.59943716       7.79882375      -0.01246819      -0.00373431      -0.00999885
H        2.13150937       0.95774793       7.33261083      -0.00041774       0.00034343      -0.00165591
H        0.95316985      -0.21529139       7.11248031      -0.01058640       0.01041301      -0.00583314
N       -0.74493880       6.69841609       2.78533677      -0.00546572       0.00690833       0.00212607
H       -0.54292675       6.19214162       3.64353898      -0.00542426       0.01536933       0.00408842
H       -0.17306403       7.54739827       2.77829795      -0.00199835       0.01122025      -0.00313610
H       -0.43247624       6.13933091       2.00014250      -0.00575628       0.00525917       0.00661012
N        2.34226708       3.33066473       3.62757407       0.00110383      -0.01427564      -0.01918662
H        1.74413151       3.93236142       3.07490658       0.00237980      -0.00146718      -0.00202414
H        2.84720164       2.72470093       2.98914028       0.00596028       0.00610158      -0.02691530
H        3.04264580       3.91834254       4.06577964       0.00410016      -0.01554794      -0.00086565
N       11.39631584       7.70448310      -0.27916583       0.00178063      -0.00343925      -0.00840923
H       10.46615321       7.41208551      -0.56199127      -0.00124910      -0.00197867      -0.00017978
H       11.62840208       8.51334651      -0.84880457      -0.00135303      -0.00446112      -0.00914305
H       11.30019020       8.07231866       0.66047255       0.01011984      -0.00343589      -0.00609836
N        2.94269572       6.88678465      10.36154323       0.00062048      -0.01047458       0.01325688
H        3.02348487       7.58538380       9.63026341       0.01114143      -0.00990292       0.01758349
H        1.96614654       6.92026048      10.65674098      -0.00102416      -0.00765216       0.00547414
H        3.08902992       5.98189578       9.90199837      -0.00054596      -0.01150529       0.00953568
N        5.56720573      10.76737335       6.70893483       0.00730922       0.00376166       0.00132125
H        6.17672144      11.42157647       6.23457362       0.00268592       0.00468245      -0.00401190
H        4.72416310      10.67531638       6.14203159       0.00775282      -0.00524703       0.00553478
H        6.04599364       9.87361842       6.69204668       0.01469083       0.00550911       0.00496605
N       10.48765397       5.45575232       5.93507828       0.00137798       0.00743289       0.00362390
H       10.52880810       5.85189539       6.86907555      -0.00892120       0.01016918      -0.00001288
H       10.77332220       4.49021885       6.05320977       0.01093616       0.00795063       0.00920802
H        9.50508580       5.43580189       5.68254013       0.00383680      -0.00516186      -0.00445023
N        6.04753712       6.50805589       4.46048875       0.00302571       0.00217253       0.00211279
H        5.23800639       6.72374380       3.87738966       0.00478062       0.00153853      -0.00071620
H        5.75612351       6.52135814       5.43948907       0.00064561       0.00271620       0.00064520
H        6.24592024       5.53235123       4.27145776       0.00369147       0.00134072       0.00293916
N        0.30781567       0.78524467       3.87392175      -0.01494531      -0.02465048       0.02829153
H       -0.22801346       0.99903680       3.03746237      -0.03713627      -0.02291966       0.00526027
H        0.89952181       1.58902692       4.07539236       0.01508657      -0.01113169      -0.02972748
H       -0.35717552       0.71894867       4.63343767       0.01405022       0.02789300       0.02575056
N        9.96544360       1.07477086       9.03437325       0.00115719      -0.00029451       0.00215552
H        9.39917630       1.86981736       9.35176738       0.00249813       0.00064851      -0.00030977
H        9.42859360       0.22391954       9.18672554      -0.00125240      -0.00090182       0.00747516
H       10.01716901       1.18983797       8.01836923       0.00108560      -0.00729323       0.00321309
N        5.94673817       9.66808335       3.03626091       0.00417110       0.01081169       0.00674199
H        5.71580954       9.11928975       3.85686097      -0.00289426       0.02457548       0.00588567
H        5.20800967       9.49905107       2.35253367       0.00144162       0.00623303      -0.00052223
H        5.88553340      10.64147151       3.31699529       0.00497302       0.01513668      -0.01026607
N        3.07832939       2.50767794       6.82498006       0.00424217      -0.00251827      -0.00274310
H        3.24006965       3.23820069       7.52739458       0.00258112      -0.00152789      -0.00171882
H        2.64387190       2.94540507       6.01961232       0.00248455      -0.00363816      -0.00183925
H        3.99330560       2.21150763       6.50224549       0.00416754      -0.00052586      -0.00195070
N        5.75776923       9.70585751       9.70522115      -0.00411101      -0.00484231      -0.00058478
H        4.76217299       9.65610823       9.52077309      -0.00634876      -0.00098966       0.00243101
H        6.09073647       8.75121274       9.63026465      -0.00636389      -0.00300206      -0.01258579
H        6.13643035      10.19928073       8.90161473      -0.00727879       0.00389776       0.00267455
N        9.98681390       8.81003034       5.88077617       0.01118922      -0.00011478      -0.00136609
H       10.66235844       8.05521086       5.91439367      -0.00576473      -0.00066182       0.00266378
H       10.47365754       9.62450820       5.52661237       0.00827084      -0.00522389       0.00441206
H        8.81114549       8.30777535       4.58895831      -0.00220725       0.00921747       0.00127000
N        8.62553905       4.42574481       1.12591135      -0.00609478       0.00601217      -0.00536987
H        7.63606011       4.38799584       0.88364173      -0.00316611       0.01089304      -0.01303131
H        8.86094152       5.41349405       1.11718945       0.00000348       0.00586021      -0.00551287
H        8.69762082       4.10777667       2.08556916      -0.01422393       0.00841337      -0.00362369
N        8.70366955       3.80158233       9.58547880      -0.00065842      -0.00095323      -0.00438532
H        8.85845692       3.97522144      10.58029344       0.00004877       0.00213958      -0.00329425
H        7.82548580       4.25571121       9.35889116      -0.00158168      -0.00601184      -0.00360475
H        9.44146481       4.26264588       9.06176118      -0.00231843       0.00110482      -0.00483909
