149
Lattice="12.62203841999648 0.0 0.0 0.0 12.62203841999648 0.0 0.0 0.0 12.62203841999648" Properties=species:S:1:pos:R:3:forces:R:3 energy=-1163105.625 stress="0.0002224053314421326 1.1555215451153344e-06 -0.00011269876267760992 1.1555215451153344e-06 -0.000894760072696954 -3.6050836570211686e-05 -0.00011269876267760992 -3.6050836570211686e-05 0.0007523573585785925" pbc="T T T"
Md      12.48139816      11.10812086      -0.75611328      -0.00172626       0.00330206       0.01294162
O        9.70753799      13.36452102       4.22443792       0.02326069       0.01648581       0.00664657
O       10.79338410      12.50877718       2.54212711       0.01989299       0.00062221       0.00694489
O        9.02731953      11.47486065       3.39225408       0.00633371       0.02716970       0.00551530
N        9.75152486      12.44556394       3.46128388       0.01305133       0.00388855       0.00255203
O        1.46570845      11.10275721      10.16027900      -0.01460627       0.00378263      -0.00256222
O        1.16018418      12.97387412      11.18822379      -0.00305831       0.00080830       0.00513726
O        2.74631124      12.80853099       9.70431444      -0.01754451       0.00436354      -0.01076531
N        1.83202032      12.33221104      10.33368755      -0.01303381       0.00241129      -0.00192115
O        3.49096760      12.47553256       3.44913625      -0.01758224       0.00300682       0.01793146
O        4.75859555      11.05755634       4.55323281       0.02589381       0.00677776      -0.02234964
O        4.68798242      13.15393266       5.11398796      -0.01932544      -0.01830626       0.03157961
N        4.36640420      12.20309297       4.42416052      -0.00803569      -0.00447918       0.01135340
O        7.96105683       2.75844923       2.15657962       0.00411394      -0.00787508      -0.01346752
O        6.39335941       4.34808683       2.00279847       0.01248026      -0.00418037      -0.00408110
C        8.56209578       4.92639401       2.85455109       0.00866926      -0.01289862      -0.00072584
C        7.51435325       4.00016863       2.30550396       0.00104725      -0.00553994      -0.00930193
H        8.95907599       4.53051933       3.78717432       0.01444658      -0.02460328      -0.00883590
H        9.40157308       4.98460909       2.16057094       0.00413570      -0.00181956      -0.00452553
H        8.13473270       5.91322758       3.00874570       0.00774007      -0.01606126       0.01448222
H        7.25929627       2.24434302       1.68243506       0.00360867      -0.00302302      -0.01974607
O       12.74048481       0.78988397       8.35145342      -0.01167178       0.00152688      -0.00492179
O       13.55209759       2.85856270       8.30358723       0.00519723      -0.00442603      -0.01149845
C       11.77441692       2.36079503       9.84546811       0.00453162       0.01098812      -0.00574803
C       12.77854099       2.06049324       8.78729882      -0.00158399       0.00111777      -0.00696565
H       10.98731800       2.95697432       9.37990164       0.00610352       0.01361194      -0.00526693
H       11.31636644       1.46484279      10.25192339       0.00125146       0.01451337      -0.00149101
H       12.24667429       2.96137633      10.62014953       0.00958128       0.01079795      -0.00878708
H       13.43395885       0.70487259       7.67761170      -0.01336271      -0.00593768      -0.00505602
O       11.49000397       3.71785829       6.58563325      -0.00919724      -0.01002063      -0.02035111
O       11.59091246       5.24375044       4.96250063      -0.00118637       0.00089435      -0.01092288
C        9.88218562       5.43554635       6.64253967       0.00588256       0.00329781      -0.00146931
C       11.06584797       4.82166377       5.97587527      -0.00356531      -0.00226998      -0.00820163
H        8.98909892       5.05595205       6.14489520       0.00043887       0.02108708      -0.00449628
H        9.81447687       5.16351051       7.69206282       0.00376114      -0.00902429      -0.00495136
H        9.89493889       6.51473404       6.51682681       0.01918398       0.00434273       0.01260715
H       12.27269369       3.38666308       6.11666415      -0.01111156      -0.00863674      -0.02306300
O        2.24621376       6.48347869       2.37884132      -0.00850093      -0.00338331      -0.02249838
O        3.37553566       8.06551256       3.49115053      -0.00447585      -0.03765798      -0.00274134
C        4.47235382       6.91335194       1.69476053      -0.00273412      -0.00947206      -0.00516695
C        3.34527331       7.23407837       2.61420631      -0.00708964      -0.00428176       0.00633478
H        5.10118940       6.14709284       2.15436030       0.00245406      -0.00243859      -0.00128896
H        4.11494856       6.52589359       0.74354283       0.00084401      -0.01318330      -0.00340785
H        5.08083793       7.80026862       1.53931682      -0.00928453      -0.00487404      -0.00448604
H        1.52854851       6.83569109       2.93857320      -0.01124391      -0.00432383      -0.02116279
O        6.06958293       8.93126953       8.24692437      -0.00517434       0.01988226      -0.01733170
O        7.62408389       9.95469133       9.49209483      -0.00516605      -0.00354058      -0.00751618
C        5.89116586      11.26012755       8.44686934       0.01147071       0.01805043       0.00569658
C        6.62660075      10.01691733       8.79659708       0.00806326       0.00739969      -0.00110191
H        5.79306329      11.33930285       7.36247703       0.00808338       0.02516612       0.00699687
H        4.87314532      11.19950936       8.83378498       0.01310974       0.02452918       0.00986692
H        6.41019957      12.12170919       8.85039300       0.02153349       0.00985530       0.00928272
H        6.63921104       8.15944825       8.39534850      -0.01003855       0.01220584      -0.02703011
O        3.21686153      10.64904202       1.85024103      -0.00410068       0.00004876       0.00647920
O        1.21407753      11.26338930       1.05595279      -0.00607014      -0.01386285       0.00934308
C        2.16658730       9.18830311       0.33998191       0.01511350       0.00374067      -0.01600587
C        2.21591562      10.46774653       1.13412363       0.00191511      -0.00459111       0.00144321
H        3.16559559       8.81670554       0.13439893       0.01838414       0.00974308      -0.00797525
H        1.65020548       8.45049505       0.95949947       0.00999945      -0.00749949      -0.03518735
H        1.62328308       9.28034779      -0.59867241       0.02685159       0.00786401      -0.02215172
H        3.36921304      11.62343438       2.78399337      -0.00622553       0.01287614       0.00961111
O        4.63483961       2.91623544      12.43361396      -0.00268090       0.00166792      -0.00771469
O        6.31991939       1.56696765      13.05646302      -0.00769514      -0.00527954      -0.00329530
C        6.02117907       2.07233394      10.73629444      -0.00233291      -0.00507483      -0.00466609
C        5.68898962       2.15800866      12.19598890      -0.00639543      -0.00048143      -0.00765800
H        5.26622122       1.45205114      10.24893542       0.00463727      -0.01606397      -0.00218230
H        5.97323399       3.05346584      10.26595585      -0.00738156      -0.00747646      -0.00971387
H        7.00361836       1.63005558      10.60011470      -0.00020987      -0.00123225      -0.00145959
H        4.35462047       2.85691041      13.38146835      -0.00472870       0.00251956      -0.00802475
O        2.74881086       9.98943406       8.02933292       0.02072601      -0.01353580       0.02716106
O        1.01903088       8.65377821       7.51779166      -0.00133383       0.02798396       0.01378620
C        3.17641944       8.26569701       6.50839463      -0.01572853      -0.00457984       0.00708419
C        2.18897566       8.95124801       7.39075678      -0.00216591       0.00458063       0.01704907
H        3.39073848       8.90356107       5.64908439      -0.01978198      -0.00839595       0.00352085
H        4.11273746       8.13137653       7.04699434      -0.01237665      -0.01409454      -0.00364430
H        2.78731245       7.32221201       6.14155989      -0.03063235       0.00019120       0.01278338
H        2.11627999      10.36325532       8.67772761       0.02128235      -0.00086032       0.02106805
O        8.07469789       7.42862194      10.23190983      -0.00357819      -0.00205827      -0.00788122
O        6.63845349       7.81889477      11.91252638       0.00730956      -0.01550210      -0.01323396
C        7.46772548       5.58828970      11.58501734       0.00778700      -0.00076169      -0.00645384
C        7.32535774       7.04967248      11.28437014      -0.00167668      -0.00507194      -0.00273624
H        7.53578166       5.00763572      10.66633545       0.00165809      -0.00822835      -0.00811759
H        8.39973369       5.43417533      12.13535382       0.01549798      -0.00360419      -0.01540796
H        6.64524211       5.25121028      12.21074481       0.01562208      -0.00765453       0.00148802
H        7.98143898       8.41425335      10.11416439      -0.00466911      -0.00843367      -0.01162460
O       10.84629769      10.42548646       0.82456115      -0.00975424      -0.00005054       0.00608028
O        9.37196089       9.71701906      -0.68181008      -0.00060320      -0.00281365       0.00026910
C        9.29777777       8.72327591       1.46492849      -0.01785877       0.00849015       0.00549155
C        9.88155046       9.69123760       0.49665897      -0.00789674       0.00226432       0.00338243
H       10.09464334       8.07711384       1.83888811      -0.02384235      -0.00090073       0.00148664
H        8.92036584       9.28396712       2.32032814      -0.00608218       0.01295790       0.00752902
H        8.49732924       8.14491172       1.01460869      -0.02581084       0.01724507       0.00988269
H       10.72987490      11.66476273       2.02657901      -0.00950135      -0.00519651       0.01959848
O        6.61587320       3.67461621       5.22405890       0.00785679      -0.01531413       0.00381875
O        6.80324225       4.36748461       7.34111889       0.00549977      -0.01266843       0.00207359
C        7.43135988       2.11688380       6.78036838      -0.00487256      -0.01511174       0.01083907
C        6.90789778       3.48044052       6.49051441       0.00369717      -0.01131058       0.00742868
H        6.82556943       1.36765277       6.27284133      -0.01739037      -0.01102966       0.02050853
H        8.43872593       2.03691517       6.36340158      -0.01126054      -0.02842218      -0.00010532
H        7.48303350       1.93577272       7.84835872       0.00579505      -0.00539284       0.01182932
H        6.25577356       4.60884339       5.07799259       0.01565043      -0.01307872       0.00098042
O        2.83844850       4.74784728       8.41688440       0.01610434      -0.01608759       0.01130337
O        2.08666615       5.98129868      10.13908744      -0.00594354      -0.01664156      -0.00162673
C        4.40826412       6.09443044       9.51620002      -0.00742251       0.00982633       0.00911675
C        2.98571031       5.63364420       9.40655377      -0.00372553      -0.00726816       0.00864714
H        4.94129139       5.34612046      10.10663597       0.00005195       0.02008046       0.01440459
H        4.88216795       6.13034304       8.53753396      -0.00558636       0.01120552       0.01053873
H        4.46809250       7.04969910      10.02842658      -0.02259419       0.01265955       0.00460371
H        1.96631348       4.30759631       8.48096312       0.01897228      -0.02416347       0.00973500
O       10.58232912      11.47804916      10.68342358      -0.00074703       0.00135998       0.01029646
O        9.58654911      12.71196460       9.10725363      -0.00055861       0.00223458       0.01036164
C       10.58156616      10.64102602       8.43614759       0.00458243       0.00414401       0.00986105
C       10.19169953      11.71057319       9.42007222       0.00123471       0.00176942       0.00988737
H       11.66838809      10.54225805       8.39696858       0.00422285       0.00067327       0.01706449
H       10.19074568       9.67762165       8.76498208      -0.00081887       0.00462686       0.00479816
H       10.19495904      10.87630690       7.44799706       0.01197824       0.00704791       0.00763965
H        9.83800022      10.46697136      11.34847614       0.00274052      -0.00127676       0.00252314
O        6.89697364       6.84771554       6.55121504      -0.01853430      -0.00802210       0.01848552
O        5.84687061       6.10101471       4.72867528       0.02361530      -0.01402009      -0.00338027
C        6.46146356       8.40429683       4.80120450      -0.00376545      -0.00711864       0.01553896
C        6.35667103       7.02514814       5.35085021       0.00376731      -0.00758314       0.01103772
H        6.55239255       9.15072677       5.58392516      -0.01504638      -0.00968111       0.01923592
H        7.36246681       8.44797980       4.18161702      -0.00134903       0.00289781       0.02017249
H        5.59994888       8.61284689       4.17018742      -0.00197601      -0.01154974       0.01155476
H        6.79754238       5.87759552       6.83018327      -0.00812238      -0.01129827       0.01260699
O        1.79982149       2.16832980       3.72123540      -0.00799125       0.01693517      -0.00439465
O        3.19749233       2.51406514       2.01612057      -0.00905055       0.01326296       0.00003505
C        3.55440186       3.69427938       4.08354970      -0.00071836       0.00989246      -0.00552851
C        2.86618590       2.75727215       3.15546801      -0.00428082       0.01036718      -0.01126599
H        2.83997517       4.38374409       4.53068788       0.00195628       0.01199544      -0.00531468
H        3.99787889       3.10043986       4.88397020      -0.00001107       0.01025406      -0.00567910
H        4.33034019       4.23462449       3.55340614      -0.00082538       0.00681245      -0.00888595
H        1.50116127       1.47388993       3.11458279      -0.01330089       0.02064015      -0.00717118
O       11.15906469       7.83124057       4.80916693       0.00739232       0.00034976      -0.00574511
O       12.62994255       7.97108641       3.13135769      -0.00488031      -0.00379455      -0.01913613
C       12.18988939       9.91273824       4.49123159       0.00854777      -0.00166351      -0.01500183
C       12.03181135       8.49263242       4.05771189       0.00085118      -0.00005305      -0.01089001
H       11.20966028      10.38351559       4.57068196       0.01009138      -0.00071644      -0.00247281
H       12.61778947       9.90366565       5.49631534       0.02021702      -0.00176042      -0.02015832
H       12.83113452      10.45731414       3.80634834       0.00046465      -0.00112436      -0.02209234
H       11.26552401       6.85417983       4.65276351       0.00360956       0.00041570      -0.00515091
O       12.00260435       6.90605593      12.18699785      -0.00154880       0.00500113       0.00370967
O       12.13454184       8.84236329      11.08275603       0.00775526       0.00909570       0.00843069
C       11.65811799       6.83771896       9.85754320       0.00116415       0.01317048       0.00233489
C       11.96455642       7.63226790      11.07342242       0.00213534       0.00521338       0.00420177
H       12.24830803       5.92326777       9.86385456      -0.00845873       0.00704369       0.00212788
H       10.59484214       6.58320155       9.87807397      -0.00154784       0.02438222      -0.00354124
H       11.88570837       7.42358291       8.97142085       0.01117848       0.01319972       0.00493550
H       12.25213872       7.47291925      12.93472332      -0.00033848       0.00109613       0.00480509
