147
Lattice="12.138750768280364 0.0 0.0 0.0 12.138750768280364 0.0 0.0 0.0 12.138750768280364" Properties=species:S:1:pos:R:3:forces:R:3 energy=-114994.578125 stress="0.0011208689538761973 0.0011307329405099154 -0.0005857366195414215 0.0011307329405099154 0.0005591812077909708 -0.0005745306261815131 -0.0005857366195414215 -0.0005745306261815131 -0.00019376723503228277" pbc="T T T"
Mg      12.29703224       8.74411711       1.25118999      -0.00918840       0.00024623       0.02380291
P        6.43523097      10.78680925       8.61044284      -0.02387901      -0.00874512       0.00775891
F        7.85828646      11.21438201       9.24209726      -0.02683443      -0.00926778       0.01395392
F        6.01165139      10.06972123       9.98732704      -0.03296512      -0.00895843       0.00485879
F        4.93442498      10.35512439       7.97843731      -0.02272433      -0.00985885       0.00146866
F        6.79926859      11.50585144       7.22381258      -0.02137226      -0.01093030       0.00757915
F        7.04248087       9.40365563       8.06382610      -0.02108184      -0.00903237       0.01164639
F        5.76063366      12.16954255       9.13520962      -0.02368757      -0.00785464       0.00443295
P        4.57494167      10.37389868       4.27175999       0.00381315      -0.00370211      -0.01402843
F        5.51207878      10.65507378       3.02211233       0.00003676      -0.01104999      -0.01973967
F        4.99822357      11.70968109       5.02323761       0.01305022      -0.00104916      -0.02245632
F        3.31894500      11.12142656       3.62809141       0.00464711      -0.00130707      -0.01354272
F        4.03927332       8.99457735       3.65898930      -0.00193591      -0.00430664      -0.00813217
F        5.70845753       9.56499384       5.05906972       0.00625107      -0.00369422      -0.01640424
F        1.11023172       9.16560635       2.73213741      -0.02646469       0.00706403       0.03397971
O        3.46532407      10.08130868       5.76126950       0.01235864       0.00532371      -0.01098669
C        2.33112625       9.12491132       5.72459015       0.01167156       0.00493559       0.00223368
C        2.77468545       7.77988693       6.25176734       0.01585881       0.00601596       0.00195017
C        1.17493878       9.71994524       6.49239755       0.01975214       0.00744101       0.01207438
H        2.07310125       9.07101357       4.66916717       0.00128709       0.00305144       0.00494945
H        1.95292396       7.06865949       6.14511794       0.01507966       0.00528861       0.01109991
H        3.62868202       7.40309374       5.69135593       0.01074773       0.00479820      -0.00491290
H        3.04537875       7.83920186       7.30855205       0.02504032       0.00837883      -0.00062609
H        0.30104939       9.08209242       6.34102790       0.01774940       0.00885299       0.01801402
H        0.93587005      10.71642197       6.12546697       0.01861698       0.00788423       0.01423535
H        1.37915578       9.77530914       7.56388457       0.02868963       0.00595290       0.01050752
H        4.00472005      10.05068678       6.59047777       0.01210070       0.01448499      -0.00940007
O        1.60960183       3.29254651       3.65461904      -0.01425588       0.00667441       0.01582045
C        0.95603896       2.02318289       3.55370638      -0.00759251       0.00367278       0.00254312
C        1.44784870       1.22759884       2.35513884       0.00691485       0.01528499      -0.00017512
C        1.06564656       1.23538360       4.84993780      -0.00866081      -0.00638056      -0.00257403
H       -0.09688398       2.28084814       3.40099246      -0.00783557      -0.00351378      -0.00437558
H        0.92512082       0.26927540       2.29819250       0.01302815       0.01245461      -0.00973337
H        1.27351099       1.77728474       1.42913009       0.00961825       0.01967777       0.00165321
H        2.51584648       1.01892110       2.43916553       0.00765774       0.02135812       0.00453282
H        0.40978923       0.36352944       4.81236970      -0.00293492      -0.01028955      -0.01265602
H        0.77188076       1.85447343       5.69849066      -0.01325798      -0.01874831       0.00530952
H        2.08298994       0.87446627       5.00849173      -0.00694780      -0.00122259      -0.00311483
H        2.56936497       3.17195118       3.69747671      -0.01711399       0.01213905       0.02412917
O        1.48492205       9.96244062      12.34930409      -0.00706178      -0.01928267       0.02708021
C        2.17652231      10.46621726      11.13445299      -0.00714215      -0.02003124       0.02668759
C        1.23843443      11.32700189      10.31559011      -0.00698003      -0.01384300       0.03215010
C        3.41492401      11.22677038      11.54214790      -0.00459957      -0.02754793       0.03107819
H        2.46304073       9.57651038      10.56627903      -0.01273219      -0.02098566       0.02536660
H        1.76775809      11.64212924       9.41402770      -0.01250027      -0.00333698       0.03226577
H        0.33633860      10.80154708      10.00598012      -0.00664209      -0.01303503       0.03036890
H        0.95325208      12.22268069      10.86871324      -0.00807857      -0.02041431       0.04195935
H        3.96463775      11.53015147      10.65089031      -0.00034806      -0.02764482       0.03366247
H        4.09155144      10.61087952      12.13458125      -0.01151519      -0.03222354       0.03494506
H        3.15501294      12.12354511      12.10959053      -0.00426321      -0.02771722       0.03152342
H        2.02236589      10.19343464      13.12401388      -0.01167139      -0.01016742       0.02878684
O        8.01630201       5.27592845       9.97142800       0.00197095       0.00662351      -0.01912691
C        7.22387678       4.08575446      10.08326167       0.01238689       0.00364792      -0.00546101
C        5.95876671       4.33798998       9.29092995       0.00256658       0.00145693       0.00886840
C        7.98244317       2.85860097       9.61578214       0.00674871       0.00250119      -0.01265529
H        6.94485973       3.93945725      11.14001054       0.02468185       0.00547200      -0.00172687
H        5.29309793       3.47631646       9.34137021       0.00234947       0.00125419       0.02076727
H        5.43629365       5.21754307       9.66976813       0.01006536       0.00455222       0.01142179
H        6.21879960       4.51984585       8.24730196      -0.00879398      -0.00203492       0.00554340
H        7.36211112       1.96287931       9.66297572       0.00893278       0.00157771      -0.00073622
H        8.86181426       2.68389368      10.24202250       0.01619375       0.00468705      -0.02527729
H        8.31209605       2.98821103       8.58263656      -0.00899383      -0.00055782      -0.01816162
H        8.95129032       5.05288645      10.02907582       0.00928256       0.01921253       0.00372603
O       10.78493397       6.45306063       9.77279791      -0.04100102      -0.00172867       0.01321420
C       10.26991955       7.78096729       9.98609368      -0.01489401       0.00494528      -0.00549546
C       11.18799016       8.49572709      10.96836450      -0.01205665       0.00374100      -0.00805557
C       10.10931691       8.57025357       8.70765807      -0.00626041      -0.00494978      -0.01197076
H        9.29142135       7.61495241      10.43815359      -0.02190959       0.02274835      -0.00479966
H       10.80516551       9.48031606      11.24814357      -0.00132906       0.01067774      -0.01921410
H       11.23811522       7.83466083      11.83821037      -0.01795696       0.01587063       0.00155645
H       12.18524260       8.61607037      10.53622777      -0.00920136      -0.01250939      -0.00710381
H        9.63006562       9.52789222       8.91523577       0.00644767       0.00305787      -0.02287611
H        9.47129428       8.03891690       8.00535597      -0.01154494      -0.00332889      -0.00889424
H       11.08390600       8.75923570       8.24700459      -0.00262658      -0.02318260      -0.01333058
H       11.59873805       6.53304699       9.26443795      -0.03532237      -0.01609206      -0.00860640
O       10.89991985       6.31547741       4.46625229       0.01296139      -0.00607687      -0.01853028
C        9.75578812       6.14555668       5.34955971       0.01489875       0.00142559      -0.01388872
C        8.66424435       5.33951724       4.67670445       0.01027972       0.00023878      -0.00519252
C       10.18937603       5.51007343       6.65193216       0.02197006       0.00585026      -0.01406807
H        9.39541634       7.16128055       5.53376256       0.01745601       0.00256497      -0.01647194
H        7.79322248       5.27647693       5.33294260       0.01328966       0.00569987      -0.00069954
H        8.34618607       5.80267306       3.74560841       0.00629843      -0.00358757      -0.00587934
H        9.00520242       4.32284626       4.46953158       0.00716630      -0.00139743      -0.00212825
H        9.35842281       5.46725349       7.35833413       0.02752335       0.00961183      -0.00734738
H       10.98875364       6.08436136       7.11693638       0.02814563       0.00621763      -0.02455613
H       10.53807736       4.48666957       6.48088732       0.01854697       0.00474513      -0.01322331
H       11.49870246       5.57501040       4.61951553       0.01295702      -0.00313628      -0.01553878
O        6.54751650       7.06356817       0.77790309       0.00464863      -0.00852624      -0.00530910
C        5.39242851       7.18326682       1.61648397       0.00356269      -0.00710037      -0.00552934
C        4.17161353       6.53423445       0.98886500       0.00254154      -0.00121585      -0.00936043
C        5.68192337       6.61919369       2.99974044       0.00065343      -0.01321605      -0.00739098
H        5.22442495       8.25752413       1.70264363       0.00632022      -0.00744861      -0.00115955
H        3.29349290       6.71033786       1.61480123       0.00347316      -0.00443162      -0.00702794
H        3.98295260       6.94185333      -0.00501507       0.00222183       0.00661547      -0.00605297
H        4.31096496       5.45169357       0.90569504       0.00066400      -0.00079741      -0.01725623
H        4.79354720       6.67939492       3.62975094      -0.00011151      -0.01261064      -0.00837335
H        6.47388745       7.18741791       3.48871914       0.00153990      -0.01664027      -0.00470015
H        5.99249450       5.57483630       2.91256525      -0.00163119      -0.01361136      -0.01080419
H        6.57002692       6.17302748       0.41158782      -0.00768685       0.00073829      -0.02321593
O       10.74205537       9.77280602       2.03357158      -0.01342687       0.00422960       0.00303078
C        9.34593273       9.40211275       2.33028952      -0.00616480       0.00765809       0.00880399
C        8.92493253      10.09572290       3.60329734      -0.00833705       0.00999254       0.00403333
C        8.51525991       9.77093272       1.12904526      -0.00577191       0.00413099       0.00402135
H        9.33028784       8.31656937       2.47663873      -0.00980672       0.00645697       0.00851784
H        7.91716644       9.79276674       3.88299777      -0.00742424       0.01394004       0.00627032
H        9.58886575       9.83725534       4.43291178      -0.00638142       0.01129238       0.00253266
H        8.92492023      11.17894873       3.47117901      -0.00326683       0.01024218       0.00032115
H        7.46607510       9.56182726       1.32956003      -0.00832289       0.00076702       0.00252653
H        8.78972124       9.19082897       0.24899093      -0.00440492       0.00548026       0.00485164
H        8.62378599      10.83108967       0.90409593      -0.01047716       0.00385328       0.00605493
H       11.20722552       9.93902099       2.86821719      -0.01002675       0.00775280       0.00370055
O       11.61020139       6.87018764       1.75571774       0.01150253      -0.00169778       0.00574505
C       11.08781545       5.70282446       1.02379707       0.01212199       0.00605266      -0.00533605
C       11.52216444       4.43495766       1.71690378       0.00858848       0.00063360      -0.01390710
C        9.58463601       5.78945239       0.88591393       0.01307553       0.01299129      -0.00613341
H       11.55602998       5.77177588       0.04094548       0.01559293       0.01359655      -0.00370637
H       11.23767158       3.57221327       1.11211460       0.00905018       0.00420099      -0.01899108
H       12.59487317       4.40225934       1.89408799       0.00824767      -0.00006932      -0.01209212
H       11.01368097       4.34060780       2.67842845       0.00695773      -0.00460669      -0.01501298
H        9.22493268       4.95543606       0.28012821       0.00800801       0.01420036      -0.00437966
H        9.24776526       6.70950437       0.41197423       0.01848755       0.01459260      -0.00668770
H        9.10564001       5.71509453       1.86184544       0.01302227       0.01732542      -0.00548945
H       11.34841584       6.77783794       2.69807121       0.00599787      -0.01174010       0.00507665
O        4.53946304       3.52965029       4.30525585      -0.02694139      -0.01967061      -0.00104507
C        4.53438875       2.64642549       5.45879326      -0.00928944      -0.00795400       0.00774789
C        5.93689232       2.36423164       5.95226875      -0.00226569       0.00560670      -0.00645947
C        3.62203852       3.20767267       6.53136660       0.00043395      -0.00030780       0.01084167
H        4.11701773       1.72294009       5.05864406      -0.00927413      -0.01417327       0.02290188
H        5.91435006       1.62302449       6.75221358       0.01014265       0.01634401       0.00363304
H        6.55682397       1.95967048       5.15224706      -0.00962007      -0.00204714      -0.00845721
H        6.40259187       3.27368075       6.34027507      -0.00377265       0.01385945      -0.02395033
H        3.46469967       2.46599612       7.31565310       0.01926344       0.00971518       0.02382010
H        2.65713211       3.47900174       6.10344392      -0.00777744      -0.01570024       0.01944865
H        4.06602569       4.09292361       6.99416473      -0.00106514       0.01133354      -0.00999365
H        4.83815550       4.40446138       4.57691726      -0.01248159      -0.02008966      -0.01496351
O        4.99191820       1.89867230       2.02492887       0.00572884       0.02953213      -0.01231284
C        6.37686621       1.56290191       1.95205522       0.00017864       0.01025217      -0.01051521
C        6.60059309       0.88616774       0.61661808      -0.00601705       0.00579733      -0.00969797
C        7.23480133       2.80806947       2.12078620       0.01287389       0.00292361      -0.00979387
H        6.62463413       0.85642933       2.75805159      -0.01302090       0.00438738      -0.01171345
H        7.66101947       0.69652896       0.44845158      -0.00653327       0.00003223      -0.00697755
H        6.07126674      -0.06383215       0.56472432      -0.01064694       0.00816961      -0.00812989
H        6.23449626       1.52697906      -0.18687515      -0.00081205       0.00380160      -0.01348989
H        8.29749315       2.55987949       2.07595171       0.01378313       0.00502572      -0.00622833
H        7.03732062       3.28142126       3.08436164       0.01182207       0.00546163      -0.01105078
H        7.01141629       3.52868185       1.33011247       0.01558749       0.00224964      -0.01114099
H        4.88080560       2.51356669       2.76556408       0.00373420      -0.01221728       0.02432437
