147
Lattice="15.999708476059112 0.0 0.0 0.0 15.999708476059112 0.0 0.0 0.0 15.999708476059112" Properties=species:S:1:pos:R:3:forces:R:3 energy=-1066846.75 stress="-0.0009565118816681206 -2.2791168703406584e-05 -0.00013588787260232493 -2.2791168703406584e-05 -0.0009345931466668844 -0.00021230243874015287 -0.00013588787260232493 -0.00021230243874015287 -0.001148281036876142" pbc="T T T"
Mg      18.07956662      15.37156647      -0.37172848      -0.00343710       0.04415876      -0.01502562
S        8.86334336      13.36366762      10.68923666      -0.00878084       0.00160599       0.00681406
F        7.27677904      15.37393935      11.35306319      -0.00701287       0.00275236       0.00462854
F        6.40378878      13.98545097       9.93598758      -0.01078582      -0.00043526       0.01070538
F        7.91060484      15.40454152       9.27974813      -0.01177634      -0.00316036       0.00370651
O        9.11033023      12.69962224       9.42017198      -0.01206005      -0.00199807       0.00845146
O        8.22018093      12.51481940      11.68069179      -0.00645554       0.00377262       0.01073194
O        9.93399080      14.20747043      11.18026990      -0.00860500       0.00250638       0.00219917
C        7.54930497      14.59795099      10.29396347      -0.00995970      -0.00000453       0.00658661
S        5.00352145      15.23884742      14.80710042      -0.03366184       0.01654886      -0.00741976
F        4.34798419      15.58313269      12.21807622       0.01492834       0.01002463      -0.00558114
F        2.64501177      15.47928005      13.59876645       0.00107512       0.01127879      -0.02497179
F        3.76099726      13.67588963      13.03626130      -0.00264120       0.00984848      -0.02546715
O        3.93815070      14.95959725      15.83584300      -0.02410054      -0.01506524      -0.01217902
O        5.36400554      16.62167564      14.74964108      -0.00998548      -0.01279306       0.01268078
O        6.00924827      14.23319834      14.76561484       0.00278175      -0.03184116      -0.00283457
C        3.95484145      14.95431914      13.29305876       0.00134051       0.00589427      -0.01676822
Cl       6.27212902       6.50551470       7.30764693       0.01064855       0.01587082      -0.00143288
Cl       6.76638164       8.43837383       9.42482129       0.00411251       0.00523099       0.00899383
Cl       8.56359217       6.16295019       9.05955166       0.01270990       0.01437718      -0.00428075
C        7.49840564       7.34095986       8.26125617       0.00808546       0.01446754       0.00298232
H        8.11210147       7.92584632       7.58727239       0.00538972       0.02048448       0.00599447
Cl       5.93468183       5.44391103      13.20172763      -0.01123660      -0.01132537      -0.00795817
Cl       5.80312085       3.93459081      10.70970707       0.01188612      -0.00711530      -0.01091631
Cl       4.22110790       6.35974858      11.02878193      -0.00114119      -0.01521988      -0.01803015
C        5.73403974       5.53572210      11.45588709      -0.00041629      -0.00904425      -0.00914388
H        6.54781540       6.12643783      11.05150340      -0.00056663      -0.00458261      -0.00261302
Cl       2.26725045       5.35167430       7.29751033       0.01250485      -0.00906132       0.00201886
Cl       0.83361452       4.31208208       4.96952211       0.00408790       0.00615872       0.00102156
Cl       0.88024948       2.78832748       7.45971048      -0.00297307      -0.00050473      -0.00342259
C        0.88306552       4.40472817       6.75415778       0.00630265       0.00117331       0.00091681
H       -0.01673793       4.91464479       7.07320619       0.00979522       0.00568491       0.00310054
Cl      12.50487798      13.78402448      10.04244581      -0.00853717       0.00015858      -0.00659427
Cl      14.03953587      11.34325434       9.67394040       0.01067919       0.01148379       0.00098664
Cl      14.07797826      13.41458366       7.61639852      -0.01138280       0.00016388      -0.00965834
C       13.95123788      13.10366189       9.36093601      -0.00525418       0.00875463      -0.00758890
H       14.83128754      13.53370660       9.82396115      -0.00843957       0.01853056      -0.01148909
Cl       8.64816277      11.98448597       4.44723924      -0.01471134      -0.00472549      -0.01132134
Cl       7.35532146      11.08878690       6.90183664      -0.01070645       0.01630801      -0.00108075
Cl       8.14403871       9.14433501       4.87524907       0.01231901      -0.00353885       0.02901839
C        8.52866269      10.69678577       5.65409280      -0.00453880       0.01153943       0.00682780
H        9.49937526      10.59239222       6.12244114      -0.00422102       0.02764392       0.00953078
Cl       6.05049206       6.64832822       3.49256425       0.01480074      -0.00373161       0.00156903
Cl       7.74746044       4.47180065       4.41476959       0.00934002      -0.00831019       0.00037757
Cl       4.90054527       4.52020786       5.12473246       0.01070376      -0.00063640       0.00131416
C        6.11273138       4.93795302       3.90768105       0.01042048      -0.00381889       0.00064442
H        5.88490719       4.36797226       3.01601940       0.00867215      -0.00308549       0.00077063
Cl       1.59506190      14.00662395       7.18945167      -0.00640059       0.01704340       0.01228036
Cl       4.44858340      13.50544460       7.57280843      -0.00968507      -0.00741702      -0.00143944
Cl       3.53410774      16.13639175       6.71073279       0.00964496      -0.00059962       0.00088048
C        3.16357075      14.69923416       7.67420358       0.00141913       0.00404290       0.00422737
H        3.06947946      15.00801287       8.70771477       0.00964118       0.00563816       0.00431091
Cl      11.99467772       8.22048512       6.38253873      -0.01249087       0.00153616       0.00216734
Cl      14.56249894       9.59855812       6.30567870      -0.00671726      -0.01121017      -0.00333419
Cl      12.14857798      10.96869516       5.42306602       0.00024557       0.00022392      -0.00306246
C       12.82265625       9.78175364       6.54668106      -0.00538820      -0.00230561      -0.00229229
H       12.66292913      10.14379914       7.55670362      -0.00251707      -0.00030206      -0.00278759
Cl      13.23636169       7.96558274      11.40161950      -0.00375105       0.00424797      -0.00660199
Cl      13.10057771       6.71811046      14.03166507      -0.00113927      -0.02064332      -0.01974192
Cl      13.84825693       9.52772136      13.78569778       0.01223880      -0.02162471       0.00657934
C       12.87310562       8.22130479      13.11734789       0.00352029      -0.00968694      -0.00329003
H       11.82946310       8.50523297      13.19049903       0.00526404      -0.00588854       0.00378576
Cl      10.21319360       2.53650879       5.76527008       0.00699325      -0.01096177       0.01267263
Cl       7.89359119       2.38172833       7.53944536       0.01043060      -0.01782295       0.01444311
Cl      10.52731833       2.98222631       8.62414324       0.00389485       0.01514807       0.00887942
C        9.44610154       3.16459845       7.24436914       0.00204823      -0.00528940       0.00747753
H        9.26380083       4.22182009       7.09262032      -0.00674340      -0.00806871      -0.00123762
Cl       1.12152168      10.48552219      10.29013283       0.01493138      -0.00028780       0.02680669
Cl       3.29891945       9.32274369       8.75684418      -0.00423071      -0.00618048       0.00486779
Cl       3.88834036      10.86248403      11.16716068       0.02414560      -0.01095358       0.00002809
C        2.74083443       9.77733287      10.37004704       0.01279157      -0.00607644       0.01071270
H        2.67465976       8.87474602      10.96439505       0.01554710      -0.00616053       0.01024193
Cl       8.70100941       0.83675808       2.90655251       0.00980110      -0.00547593      -0.00313479
Cl       5.87211558       1.41646999       3.30194919       0.00941712      -0.00325751      -0.01136383
Cl       7.15855574      -0.69009334       4.86211457       0.00593242       0.00526318       0.00172873
C        7.36659355       0.87395530       4.08278802       0.00748036       0.00056993      -0.00591280
H        7.62361234       1.60100633       4.84368011       0.00640903       0.00481775      -0.00963572
Cl      14.23547899      12.54292348      15.51220381       0.02975190       0.00435638       0.01933464
Cl      17.08999786      12.98640194      14.99185184       0.01575677       0.00201297      -0.01112666
Cl      15.16832590      12.89629747      12.78230461       0.01745843      -0.01596941       0.00236809
C       15.36603177      13.34612472      14.45651429       0.02052152      -0.00084708       0.00085974
H       15.26440078      14.41789089      14.59293568       0.00890715       0.00056767      -0.01132640
Cl      14.94923197      10.69961819       2.54785436       0.00197353      -0.00756025       0.00826824
Cl      13.13094041       8.42533575       2.62085417      -0.00623906      -0.00069540      -0.00740076
Cl      15.71534768       8.18513738       1.28191713       0.00048047      -0.00588793       0.00631806
C       14.82134525       8.93949297       2.62033851      -0.00473563      -0.00688344       0.00289093
H       15.27694175       8.61539169       3.54842385      -0.01080962      -0.01116239       0.00408411
Cl       3.35541680       4.67476635       1.83554386      -0.00013079      -0.00453230       0.00153407
Cl       4.47545919       6.74038022       0.12610356      -0.00577771      -0.00051895       0.00258282
Cl       5.87384430       4.18821715       0.43145023      -0.00450537      -0.00002450      -0.00587010
C        4.30208999       5.01020159       0.37021669      -0.00449476      -0.00070687      -0.00021573
H        3.76497250       4.59994451      -0.47517552      -0.00671306       0.00077844       0.00064000
Cl      12.17838400       2.96592685       2.39896127      -0.00237358       0.00250077       0.00983323
Cl      16.01112151       0.11830310       0.16012947      -0.01169600       0.01580833      -0.01323382
Cl      14.27544021       4.91967440       1.91676210      -0.00411937       0.00091445      -0.00144911
C       13.76048504       3.45567505       2.48565329      -0.00161386       0.00091629      -0.00024355
H       14.47706941       2.78488431       2.93973461       0.00066358       0.00035065      -0.00522622
Cl      13.31734366      15.24050696       4.75036184      -0.01956852       0.02938317      -0.00598443
Cl      15.67171321      16.87156689       4.21304436       0.00102089       0.00606816       0.00300156
Cl      15.65238259      14.04975725       3.46785239      -0.01563853      -0.00266510       0.03874619
C       14.67578394      15.50775959       3.65481303      -0.00457390       0.00835139       0.00768534
H       14.28459322      15.75670627       2.67468243       0.00953257       0.00151838       0.00018466
Cl       1.94647745       7.71704890       4.36516363       0.00218751       0.00313598       0.00124236
Cl       1.71382896      10.39847379       5.49373639       0.00187629       0.00136678       0.00407994
Cl       4.28290088       9.01787256       5.51865202       0.00205395       0.00272422       0.00030363
C        2.77255218       9.25872189       4.64663025       0.00151275       0.00319101       0.00194314
H        3.00648548       9.68838928       3.67998507       0.00072902       0.00393048       0.00226647
Cl       9.55123329       4.96998789      12.50273971      -0.00510379      -0.01146013       0.00231467
Cl      11.50020650       2.90689031      11.86950891      -0.00288761      -0.01332039       0.01567941
Cl       9.04517845       2.19622974      13.28419127      -0.00680986      -0.00773498       0.01169521
C        9.77342332       3.25386033      12.09243097      -0.00344412      -0.01278125       0.00976166
H        9.28386651       3.08627193      11.14113754      -0.00064096      -0.01659581       0.00925517
Cl       6.63152801      12.21382477       1.25128425      -0.00791377       0.00934088      -0.01462920
Cl       4.54224403      11.21146460      -0.54149430       0.00059491      -0.01163542      -0.01183951
Cl       5.84240988       9.41690642       1.35697577       0.00129835       0.00800791       0.00544861
C        5.30612578      11.08265515       1.04653867      -0.00389995       0.00364103      -0.00902987
H        4.55754142      11.31329535       1.79197698      -0.00662434       0.00696341      -0.01289770
Cl       9.40314094       8.51820459      11.75219857       0.01475883      -0.00027418       0.00217623
Cl      11.09402375      10.86409914      11.60737656       0.00460196       0.00832701       0.01552913
Cl      10.39967859       9.41881275       9.16766610      -0.00242047       0.02803536       0.00650194
C        9.85668997       9.94210763      10.78796142       0.00441085       0.01060053       0.01353911
H        8.98962578      10.58191282      10.66202095       0.00086457       0.00769961       0.02413570
Cl       2.84199923       2.82490911      12.80857353      -0.02482684      -0.00461883      -0.01146303
Cl       2.74212175       2.06713974      15.61108830       0.00520204      -0.00674368      -0.01104170
Cl       1.22574673       4.37495109      14.67590872      -0.01060596      -0.01201689       0.00604562
C        1.82518332       2.77595627      14.23354217      -0.01204056      -0.00767100      -0.00419872
H        0.97012850       2.13052115      14.06341969      -0.01091918      -0.01162726       0.00549478
Cl       3.46811477      14.86302517       3.06780762      -0.00316987       0.00356784      -0.00392003
Cl       2.24867346      12.31116153       2.35374112      -0.00617750       0.00149164       0.00893520
Cl       4.49886764      12.39350235       4.20429464       0.00580412       0.00630853      -0.00683855
C        3.06809164      13.24668842       3.63594274       0.00123599       0.00366268       0.00084099
H        2.36965828      13.33425243       4.46133051       0.00741601       0.00555837       0.00565407
Cl       8.50733406       7.93076416      15.14809723      -0.00505662       0.01125246      -0.00205955
Cl      10.67916188       9.84807972      15.53821597       0.00837725      -0.00915629       0.01987306
Cl       8.19736900      10.71845151      14.29169917       0.02973434       0.01486123      -0.00647831
C        8.91103353       9.63708015      15.46229898       0.00737792       0.00766037       0.00102782
H        8.52004233       9.87553996      16.44342058      -0.00131926       0.01253499      -0.00507197
Cl      -1.54672364       5.23964213       9.46720864      -0.01735415      -0.01771150      -0.00101778
Cl      -1.03862247       3.61052755      11.83183895       0.00826948      -0.03223246      -0.01695623
Cl       1.04784929       5.36718786      10.80362136      -0.01938057       0.00971235      -0.00033017
C       -0.68617830       5.14322684      11.01768218      -0.01628608      -0.01868284      -0.00276256
H       -1.05905400       5.94788511      11.63984616      -0.02797541      -0.03084296       0.00578749
Cl       9.54504472      13.64150868       1.09450417       0.01239324      -0.00981071      -0.02769065
Cl      12.00223899      12.61934966       2.28498289       0.00510092       0.00510848      -0.00081749
Cl      11.85691694      15.38151677       1.33656859       0.00622207      -0.00187360      -0.01904953
C       10.95426834      14.02574784       2.06992665       0.00346431       0.00083587      -0.01883080
H       10.62840846      14.35011508       3.05180597      -0.00563678       0.00645497      -0.02391309
