139
Lattice="12.807486293685624 0.0 0.0 0.0 12.807486293685624 0.0 0.0 0.0 12.807486293685624" Properties=species:S:1:pos:R:3:forces:R:3 energy=-101832.34375 stress="0.00034281358239240944 -8.324958616867661e-05 0.0001299069554079324 -8.324958616867661e-05 -0.002036155667155981 0.0003500939783407375 0.0001299069554079324 0.0003500939783407375 0.00016561421216465533" pbc="T T T"
Mg      13.35177833      13.06973118      -0.01202794       0.01900026       0.00014173      -0.00018885
S        3.33986409      11.84766574       7.64902206      -0.01021264       0.00347774       0.02596140
N        3.17424881      11.56082033      10.44483940      -0.04022679      -0.00942808       0.01048541
C        3.26624205      11.67054864       9.27117831      -0.02676314      -0.00474835       0.02827257
S        4.75918086      12.25133275       1.56772847       0.01991224      -0.00105546      -0.00089023
N        2.04160350      12.34758432       0.99008791       0.01829785       0.01247964       0.00857650
C        3.20280126      12.30064586       1.23218981       0.01945367       0.00670468       0.00455485
C        6.69316515       9.43180992       9.26390795      -0.00654697       0.00236247      -0.00131340
C        6.61566493      10.78510514       9.56510854      -0.00855938       0.00206701      -0.00040381
C        7.18666184       9.01982493       8.03205225      -0.00173886       0.00372347       0.00031886
C        7.04519809      11.72285601       8.63313005      -0.00553229       0.00321051       0.00215588
C        7.61096567       9.95790776       7.09950329       0.00106719       0.00485707       0.00277683
C        7.54446784      11.31304989       7.40284017      -0.00089625       0.00446069       0.00374541
H        6.34844910       8.69785576       9.98125290      -0.00850294       0.00161608      -0.00310067
H        6.18056232      11.11047881      10.50152175      -0.01136462       0.00079880      -0.00138888
H        7.23946762       7.96557670       7.79634270       0.00018631       0.00398979      -0.00028589
H        6.96583701      12.77628996       8.86503733      -0.00647116       0.00287236       0.00281078
H        7.98913540       9.63202370       6.13788480       0.00510867       0.00595767       0.00409661
H        7.86073682      12.04695775       6.67129620       0.00166416       0.00523761       0.00569352
C        9.86495621      11.13428005      11.71960939       0.01685983       0.00234346      -0.00150602
C       10.77011251      10.45667644      12.53047280       0.01852174       0.00027051      -0.00517983
C       10.32271426      11.99462021      10.72558951       0.01480857       0.00704807       0.00175663
C       12.13996471      10.60615467      12.33001437       0.01789171       0.00277352      -0.00593524
C       11.68894789      12.15611665      10.51825556       0.01429618       0.00957243       0.00144219
C       12.61023839      11.44958760      11.30892340       0.01601477       0.00742807      -0.00274328
H        8.79994636      10.98773871      11.85029574       0.01716910       0.00069940      -0.00128181
H       10.40583475       9.79368009      13.30559606       0.01991151      -0.00291880      -0.00755937
H        9.60887605      12.51360746      10.09936535       0.01367849       0.00936861       0.00493292
H       12.84673887      10.05045854      12.93617219       0.01953128       0.00104269      -0.00924457
H       12.04989927      12.79536450       9.72134253       0.01338033       0.01340512       0.00412749
H       13.67618647      11.45284239      11.04467880       0.01640099       0.00885991      -0.00354926
C        9.63620818       7.06372039      10.91114099      -0.00344495      -0.00253698       0.00127892
C        9.34062008       6.74525259       9.59192768      -0.00271630      -0.00190172       0.00103636
C       10.95610537       7.26334479      11.29719654      -0.00375675      -0.00165065       0.00175801
C       10.35836758       6.65200865       8.65029029      -0.00240416      -0.00070352       0.00136046
C       11.97629520       7.17346229      10.35792890      -0.00350776      -0.00038958       0.00206191
C       11.67679388       6.87564638       9.03216215      -0.00276311       0.00001260       0.00194816
H        8.83767056       7.13783379      11.63927154      -0.00359573      -0.00366320       0.00104453
H        8.31660173       6.55037776       9.30272504      -0.00245513      -0.00241681       0.00057179
H       11.19205519       7.49549080      12.32880551      -0.00414676      -0.00202975       0.00182800
H       10.12153750       6.40321281       7.62253539      -0.00177317      -0.00042254       0.00123870
H       13.00570353       7.33880896      10.64839173      -0.00376788      -0.00008037       0.00254683
H       12.47616580       6.82015106       8.30322669      -0.00242262       0.00062369       0.00233456
C        3.96256971       9.25122910       3.08609376      -0.00701395       0.00261235       0.00414391
C        2.83117743       9.30257713       3.89095430      -0.00537921       0.00060418       0.00648616
C        3.86229588       8.83160625       1.76501104      -0.00910696       0.00327036       0.00413974
C        1.59772293       8.91771630       3.37378022      -0.00585240      -0.00063065       0.00876814
C        2.63132566       8.44558543       1.24995304      -0.00955997       0.00192456       0.00645922
C        1.49953352       8.48180769       2.05734324      -0.00786701       0.00021206       0.00872090
H        4.91896548       9.56754519       3.48055190      -0.00659218       0.00342926       0.00227700
H        2.91189137       9.65578056       4.91191226      -0.00393091      -0.00025437       0.00658464
H        4.74127807       8.82655103       1.13291745      -0.01045945       0.00478992       0.00242218
H        0.71351971       8.95739791       3.99826497      -0.00466950      -0.00217315       0.01045171
H        2.55468515       8.11787945       0.21997838      -0.01119623       0.00245176       0.00646107
H        0.54174683       8.16487874       1.66102180      -0.00828215       0.00003719       0.01019886
C       10.81046360       2.13040627       0.81939234       0.00680937      -0.00199360       0.00213976
C       11.31092841       3.22681022       1.50584371       0.00513988      -0.00217375       0.00343106
C       11.23859766       0.84214775       1.16145754       0.01031190      -0.00141918      -0.00092772
C       12.25954108       3.05166783       2.51223732       0.00717962      -0.00173227       0.00149781
C       12.16512317       0.66383750       2.20057819       0.01212623      -0.00111268      -0.00285678
C       12.69315006       1.77717852       2.85869034       0.01058713      -0.00120838      -0.00155416
H       10.07141752       2.25965199       0.03968750       0.00561962      -0.00236642       0.00326832
H       10.96216376       4.22218122       1.25901001       0.00265705      -0.00253811       0.00573966
H       10.75784082      -0.01566417       0.70124644       0.01266036      -0.00161681      -0.00266801
H       12.65692354       3.91194471       3.03722180       0.00621928      -0.00173084       0.00213724
H       12.44858373      -0.33422689       2.51949386       0.01452183      -0.00100622      -0.00479376
H       13.42466278       1.64480889       3.64548445       0.01223824      -0.00104782      -0.00308272
C        4.42630503       3.16682802       6.71456648      -0.01021816       0.00006755       0.00176568
C        4.70284177       1.86332408       6.32237532      -0.00738310       0.00032043       0.00304435
C        3.82915260       4.05171288       5.82277521      -0.00923592      -0.00126196      -0.00005020
C        4.36673823       1.43968525       5.04109279      -0.00321707      -0.00043866       0.00229675
C        3.50217969       3.63135149       4.53875116      -0.00513224      -0.00200802      -0.00073130
C        3.76549854       2.32109378       4.15173486      -0.00197801      -0.00153591       0.00033426
H        4.66891188       3.49440916       7.71913276      -0.01312646       0.00095506       0.00209086
H        5.13777982       1.15671696       7.01701126      -0.00794765       0.00157525       0.00462730
H        3.61878979       5.06706898       6.13279952      -0.01191267      -0.00175610      -0.00082501
H        4.56599850       0.42021671       4.73598455      -0.00046683       0.00005309       0.00273452
H        3.06126566       4.32646429       3.83457572      -0.00436299      -0.00285247      -0.00200322
H        3.52356051       1.98790704       3.15037201       0.00132372      -0.00197221      -0.00023697
C        0.59278699       3.78657963      10.33053405      -0.01481464       0.00022422       0.00263248
C        0.73169621       3.51716916      11.68257391      -0.00707547       0.00681974       0.00303204
C        1.12094341       2.90969557       9.38400938      -0.01333567      -0.00009735       0.00400098
C        1.42845437       2.37564174      12.09820058       0.00207150       0.01328268       0.00459342
C        1.78738208       1.76117299       9.78234924      -0.00328588       0.00644552       0.00549750
C        1.96569437       1.49899938      11.14324081       0.00428358       0.01361544       0.00589532
H        0.08656677       4.68828535      10.01253437      -0.02221358      -0.00452495       0.00142635
H        0.33308031       4.20495002      12.41585343      -0.00850149       0.00705005       0.00186007
H        1.02946566       3.13531015       8.32829278      -0.02077484      -0.00574926       0.00355767
H        1.66696923       2.26234123      13.15934556       0.00427535       0.01692805       0.00421414
H        2.20635037       1.08192059       9.04743568      -0.00293294       0.00589228       0.00625795
H        2.57336313       0.63189615      11.40901509       0.00990464       0.01841918       0.00771699
C        4.77854176       5.41904532       1.13069331       0.00065131       0.00161116       0.00102884
C        4.42003370       4.17758897       0.61612288       0.00002739       0.00376279      -0.00353413
C        5.85515203       5.52497700       2.00485642      -0.00050282      -0.00246087       0.00273195
C        5.13566232       3.04209103       0.97552159      -0.00183036       0.00183088      -0.00602972
C        6.57235304       4.38823121       2.36592975      -0.00221482      -0.00430993      -0.00007281
C        6.20944509       3.14861071       1.85224879      -0.00287504      -0.00224589      -0.00437377
H        4.21313221       6.30073783       0.86279952       0.00188823       0.00308841       0.00331870
H        3.58496020       4.09878865      -0.06993534       0.00103191       0.00690922      -0.00494426
H        6.12533071       6.49143945       2.41372119       0.00000593      -0.00417228       0.00629220
H        4.86324973       2.06874306       0.58685643      -0.00211624       0.00339355      -0.00956992
H        7.40260331       4.46985590       3.05691367      -0.00299332      -0.00737275       0.00116462
H        6.75130773       2.25743340       2.14377461      -0.00445975      -0.00379395      -0.00658624
C        6.58827304       3.40282990      10.43288623       0.00148197       0.00550058      -0.00786984
C        7.21703793       2.65785325       9.44217901      -0.00073600       0.00508537      -0.00885603
C        7.34721671       4.05244483      11.39972711       0.00309803      -0.00046333      -0.00528131
C        8.60465007       2.55515544       9.42157639      -0.00133894      -0.00152225      -0.00711965
C        8.73181445       3.95377587      11.37245977       0.00260118      -0.00684271      -0.00365527
C        9.36428866       3.20688864      10.38502991       0.00036791      -0.00761591      -0.00439354
H        5.50694178       3.46394299      10.46497539       0.00180228       0.01057454      -0.00911392
H        6.62390773       2.15745199       8.68680166      -0.00183921       0.00973131      -0.01096742
H        6.85907711       4.62627093      12.17613818       0.00473102      -0.00010172      -0.00455119
H        9.09487065       1.96966551       8.65310859      -0.00308122      -0.00203551      -0.00774537
H        9.31928796       4.47673770      12.11646931       0.00398879      -0.01107600      -0.00193819
H       10.44623628       3.14496219      10.36020769      -0.00009188      -0.01301865      -0.00292803
C        9.76346306       5.48673555       4.53426102       0.00293204       0.00506274      -0.00344941
C        9.72619451       4.23594938       5.14219809       0.00149013       0.00500643      -0.00375676
C        8.75592303       6.41232487       4.78551051       0.00248103       0.00501083      -0.00562566
C        8.68763081       3.91751488       6.00929617      -0.00063999       0.00483698      -0.00646864
C        7.71408561       6.08867324       5.64837592       0.00060208       0.00498697      -0.00808311
C        7.68466062       4.84439245       6.26773514      -0.00116536       0.00476817      -0.00869374
H       10.57298678       5.73816165       3.85984038       0.00458990       0.00505744      -0.00124298
H       10.50252355       3.50873210       4.93759351       0.00203139       0.00519535      -0.00193952
H        8.77902178       7.38185072       4.30385307       0.00372796       0.00508952      -0.00530407
H        8.65384685       2.94565864       6.48333915      -0.00156406       0.00486687      -0.00668792
H        6.92027220       6.80225579       5.83105786       0.00055322       0.00521323      -0.00938192
H        6.87844603       4.58702492       6.94157036      -0.00297785       0.00456527      -0.01094438
C        3.69835665       7.13082825       8.50083031       0.00151736      -0.01521097      -0.00668635
C        3.42644391       7.63748779       9.76741621       0.00014713      -0.01821630      -0.00584111
C        2.97586359       7.58416873       7.40246900       0.00157079      -0.01377068      -0.00607418
C        2.43613200       8.59780363       9.93270282      -0.00078997      -0.01954676      -0.00454578
C        1.97635747       8.53328470       7.57390951       0.00008972      -0.01577894      -0.00457929
C        1.70635144       9.03799392       8.83672215      -0.00068539      -0.01816782      -0.00400883
H        4.48830717       6.40050287       8.36956946       0.00209377      -0.01431412      -0.00772476
H        4.00638164       7.30472630      10.62064634      -0.00034095      -0.01960696      -0.00613268
H        3.20715898       7.22530916       6.40716335       0.00213418      -0.01163789      -0.00658332
H        2.26741477       9.04651234      10.90264912      -0.00213875      -0.02139034      -0.00399922
H        1.43014710       8.91024664       6.71896254      -0.00083142      -0.01588687      -0.00406665
H        0.95909285       9.81079044       8.95831438      -0.00211233      -0.01982737      -0.00250531
