150
Lattice="11.349513976649632 0.0 0.0 0.0 11.349513976649632 0.0 0.0 0.0 11.349513976649632" Properties=species:S:1:pos:R:3:forces:R:3 energy=-224875.796875 stress="0.00257039163261652 0.0012952560791745782 0.0009127853845711797 0.0012952560791745782 0.0027422874700278044 0.0005612519453279674 0.0009127853845711797 0.0005612519453279674 0.0021572995465248823" pbc="T T T"
Mg      11.57903235      10.86748889       0.04787765       0.01242054      -0.00573325       0.00068802
O       10.14980965       0.40988526       1.00333840       0.01081590      -0.00605226       0.00048833
O       10.19922088       2.69804423       2.90090748       0.00317977      -0.00361237      -0.00156218
O        8.02298823       2.41956555       0.92760405      -0.00112069      -0.01847821       0.00513020
O       10.63683995       3.07168004       0.10350669      -0.00717181      -0.00424016      -0.00219846
Mo       9.71757017       2.14691233       1.24152448       0.00465031      -0.00564954      -0.00273532
O        5.18946296       0.72165979       8.25421648       0.00750846      -0.00507265      -0.00047970
H        5.21653850      -0.18080575       7.89799826       0.00691962      -0.00593772       0.00851170
H        4.25161403       0.96003315       8.33454414       0.00650719      -0.00337131      -0.00072861
O       -0.10943212       8.70699478       8.41061099      -0.00672984       0.00265086       0.00600284
H        0.40909663       8.01323617       8.86088729      -0.00028420       0.01095511       0.00721128
H        0.01675627       9.52631274       8.91130417      -0.00762787       0.00927854      -0.00070442
O        3.84229936       6.55502281       4.03258522      -0.01099551       0.01352648      -0.01252593
H        3.78968861       5.59729778       3.86446120      -0.00867515       0.01108150      -0.00564222
H        3.86622125       6.94899802       3.13031642      -0.00672330       0.00604342      -0.01506542
O        1.54365645       1.82475511       2.79746400       0.00253687       0.00081311       0.00712392
H        0.63206431       2.15586180       2.87426248       0.00275795      -0.00043473       0.00363020
H        2.12514628       2.53609764       3.14435124       0.00124287       0.00254400       0.00570591
O        9.84481908       1.58771697       8.13648109       0.00244662       0.00498384       0.00791863
H        9.54544901       2.35875771       8.67841162       0.00145279       0.00696957       0.00634882
H       10.35439059       1.96866034       7.41018467       0.00218245       0.00502902       0.00632582
O        8.02382012       8.46682439       0.12431183       0.00609158      -0.00321285       0.00324425
H        7.73603657       9.06580050      -0.60616531       0.00896749      -0.00508119       0.00046670
H        7.52188478       8.72271756       0.91558731       0.00145243      -0.00145326       0.00010708
O        3.97726330       3.79468899       7.59825018       0.00512549       0.00185974       0.00592579
H        4.64879438       4.20001799       8.17279579       0.00599596       0.00368813       0.00395835
H        4.43450007       3.24278168       6.93574282       0.00394268       0.00241264       0.00450969
O        7.25027440      10.01406481       9.42846851       0.00839458      -0.00864728      -0.00059347
H        6.43935476       9.66223890       9.03275717       0.00693253      -0.00938156       0.00155472
H        7.81274609      10.13424668       8.64055790       0.00419137      -0.00511573      -0.00314043
O        8.80255880       7.33450861       6.41080969      -0.00360306      -0.00302985      -0.00379725
H        7.91578724       7.05420083       6.13424943      -0.00623238      -0.00408688      -0.00119906
H        9.02578876       6.87499406       7.25444297      -0.00342236       0.00118724      -0.00236259
O       10.54298791       6.61805361       0.63476399       0.01420453      -0.01120251      -0.02552414
H       10.91786757       6.01761224       1.30041029       0.01168928      -0.00613921      -0.01975481
H        9.63149845       6.31687783       0.47911223       0.00928343      -0.00194174      -0.01136994
O        8.54982043       3.61215587       9.31995322      -0.00516063       0.00637234       0.01056468
H        8.32897228       3.54965958      10.26062217       0.00404371       0.01243592      -0.00768702
H        7.74739898       3.38599685       8.81484227      -0.00099176       0.00733653       0.00447605
O        9.61915912       6.08719728       8.70201882       0.00161634       0.00826766      -0.00364774
H        9.20495759       5.24915442       8.99902527       0.00092221       0.00949749       0.00367200
H        9.52942187       6.70118164       9.43814793       0.01761819       0.00992725      -0.00956044
O       10.34893430      -0.38815789       5.48167660      -0.00975782       0.00113960       0.00036435
H       10.59457586       0.55796202       5.48601198      -0.01036378       0.00158656       0.00146675
H       10.13928117      -0.63893301       4.55265797      -0.00124631      -0.00060106      -0.00128247
O       11.51984201       5.11408968       2.90225118      -0.00295231       0.00160497      -0.00712333
H       11.02474693       4.26082965       2.90982982      -0.00103217       0.00170383      -0.00492229
H       12.45234825       4.87287665       2.93601639      -0.00157095       0.00305627       0.00165583
O        1.30132915       6.43629438       9.04290183       0.01234509       0.01877552       0.00958689
H        0.53226457       5.85361842       8.97407982       0.02539531       0.01162430       0.00657475
H        1.88263048       6.11949455       9.76679818       0.02254617       0.01673396       0.00638738
O        2.98929194       7.84893131       7.43055697      -0.00027917       0.00341978      -0.01300004
H        2.44321320       8.34312941       6.79645625      -0.00251798       0.00895559      -0.00489059
H        2.39026364       7.21730252       7.88088584      -0.00295907       0.01214124       0.00078442
O        0.10365023      -0.01651434       9.47559524       0.00292195       0.00289910       0.00263697
H       -0.59263022       0.53938940       9.02550650       0.00264148       0.00674228       0.00665360
H        0.96578820       0.38255591       9.16801306       0.00317657       0.00041695       0.00008530
O        2.22241959       0.84721647       6.06948047      -0.00655246       0.00296734       0.00263886
H        1.99050960      -0.10657198       6.11350438      -0.00677938       0.00286166       0.00263049
H        1.47401132       1.28740067       5.61610393      -0.00705564       0.00317946       0.00380784
O       10.15754940       9.93729469       3.06339954       0.01240051      -0.00536360       0.00220942
H        9.84650137       9.01833280       3.06944243       0.00856543      -0.00531786       0.00574608
H        9.75839914      10.43260811       2.32616080       0.01333222      -0.00684318       0.00243565
O        1.45785654       9.18855678       3.05956289       0.01327357      -0.00569676       0.00454789
H        1.45174252       8.45192278       3.68119042       0.01982903      -0.00353812       0.00741057
H        0.57027656       9.59514821       3.16246839       0.01284251      -0.00696879       0.00746463
O        5.77869376       2.21349188      10.64276378       0.00458464      -0.00020507      -0.01025686
H        5.76712997       1.45252694      10.04337422       0.00329968       0.00422788      -0.01080237
H        6.53944673       2.10740981      11.23993946       0.00260898      -0.00583312      -0.00478646
O       10.10233531       7.29856942       3.94890168      -0.01960653      -0.00849088      -0.01202922
H        9.82629872       7.26104603       4.88724425      -0.01386850      -0.00561786      -0.00874065
H       10.70920458       6.55605028       3.77858844      -0.01222638      -0.00119322      -0.01076420
O        2.26772720       5.11665153       6.08973643       0.00496207       0.00550115       0.00887687
H        2.64570102       5.97055864       5.83689485      -0.00143898       0.01064436       0.02222304
H        2.90460715       4.72995658       6.75310539       0.00593904       0.00183238       0.00737058
O        3.22505172       5.66913564      -0.42581697      -0.00756931      -0.01246880      -0.00481056
H        2.80509449       4.80439625      -0.25225797      -0.01451696      -0.01552216      -0.01362132
H        4.06094399       5.40750729      -0.87960468      -0.00813757      -0.01087674      -0.00411971
O        8.23463790      10.04671874       6.83377523      -0.01815699      -0.00382095      -0.01438516
H        9.02791917      10.48269332       6.44551187      -0.01922427      -0.00102068      -0.01307851
H        8.44962590       9.09423581       6.74518856      -0.01278686      -0.00316738      -0.01217987
O        4.11946017      10.19410109       3.52794118       0.01517805      -0.00680910       0.00486957
H        3.18434044       9.92344715       3.49845800       0.01355097      -0.00647081       0.00818464
H        4.62790452       9.41750926       3.25239107       0.01472591       0.00018864      -0.00824867
O        3.10789542       3.79082124       3.88653695      -0.00081026       0.00702962       0.00546468
H        3.80769130       3.20343638       4.24940970      -0.00089076       0.00769410       0.00524129
H        2.68530933       4.15536695       4.69991580       0.00109353       0.01084338       0.00558449
O        7.20724871       2.37339191       7.18879994       0.00397772      -0.00375630      -0.00165784
H        7.96529863       1.79617367       7.37177274       0.00514315       0.00170784       0.00479506
H        6.43027278       1.83283975       7.43657183       0.00479148      -0.00567274      -0.00311847
O        7.87416781       5.85899273       3.06696317      -0.01578760      -0.01301549      -0.00022070
H        8.01118446       5.08369096       3.65182454      -0.01828940      -0.01322750      -0.00234973
H        8.67893984       6.39860962       3.20835177      -0.01359084      -0.01274940       0.00284489
O        2.34278471       1.18839899       8.69042750       0.00664619      -0.00056443       0.00329374
H        2.29277593       2.07427476       9.09864096       0.00431387      -0.00372387       0.00402201
H        2.25246064       1.27346724       7.70839536       0.00316803       0.00005940       0.00178465
O        6.31715876      11.26815206       5.23117334      -0.01579647       0.00759947      -0.02127606
H        5.56522541      10.69158112       5.02885320      -0.01257813       0.01230495      -0.04345654
H        6.91933863      10.77927062       5.83700149      -0.02250211      -0.00078773      -0.02141358
O        1.20222362       9.59984986       6.24919656      -0.01025865       0.00220651       0.00080353
H        0.75262885       9.27295332       7.07227516      -0.00959954       0.00067912       0.00125491
H        0.43624137       9.98924683       5.77507823      -0.01125094       0.00536425       0.00374997
O        5.34117619       9.19072302       7.39674108      -0.00386056       0.00428593       0.02619089
H        5.92407397       8.78107168       6.74697901      -0.00402502       0.01926160       0.01530998
H        4.55955269       8.60347277       7.44216161      -0.00491376       0.00779664       0.01247530
O       11.13771641       4.32313040       6.77093741       0.00247230       0.00266862       0.00385827
H       10.39010196       4.86402319       6.49508138       0.01349225       0.00878273       0.03288344
H       11.95934826       4.81708753       6.55587566       0.00902065      -0.00218847       0.00733932
O        1.84480163       0.47815679       0.62886566       0.00650373       0.00137530       0.00721760
H        1.77543525       0.99318013       1.48591105       0.00492791      -0.00044616       0.00819426
H        2.76848373       0.06000040       0.62443996       0.00775184       0.00219093       0.00639384
O        4.03917571       7.60523122       1.51733410      -0.00252622      -0.00203869      -0.02400982
H        4.97834674       7.81747606       1.43768851      -0.00324176      -0.01681036      -0.02459251
H        3.82089856       6.93191006       0.84187221      -0.01143155      -0.00775449      -0.01680634
O        4.15906912      10.74390969       0.70455226       0.00649306      -0.00059396       0.00550541
H        4.24257039      10.52023431       1.65012070       0.01201839       0.00717118       0.00195056
H        3.98864088       9.91590216       0.23393095       0.00268938      -0.00518228       0.01160525
O        7.44758739       0.15230000       2.76965387       0.01107249      -0.00911388      -0.00922562
H        7.13934348       0.88654282       2.22306270       0.03049769      -0.00315432      -0.01918599
H        7.05200843       0.25971187       3.66053318       0.00595529       0.00517449      -0.01642200
O        6.46383076       8.96532981       2.46186903      -0.00297085      -0.00040006      -0.00388794
H        6.63217592       8.52928036       3.31737786       0.00023881      -0.00236400      -0.00537970
H        6.78048648       9.89575766       2.54786284       0.00488526      -0.00233962      -0.00574195
O        4.57566122       2.11753791       5.43102820      -0.00376371       0.00418782       0.00636890
H        3.80486003       1.53220084       5.58377367      -0.00471180       0.00648028       0.00573414
H        5.33950675       1.51378133       5.40028527      -0.00573745      -0.00047918      -0.00043238
O        5.54854373       4.72754610       9.79263077      -0.00275178       0.00641021       0.01273923
H        5.60986562       3.79273894      10.11910989       0.00021897       0.00293052       0.00527567
H        6.31054002       5.17639772      10.20056275      -0.00409755       0.00472452       0.01694266
O        0.39697593       8.96293989       0.52324892       0.00776023      -0.00559691       0.00509650
H        0.95938750       8.84209101       1.31592977       0.00593395      -0.00715475       0.00636759
H       -0.18160131       8.15411043       0.49454229       0.01125694      -0.00795926      -0.00336871
O        7.76114085       5.84037148      11.41266409      -0.00022555      -0.00366490       0.01192148
H        7.73523143       6.83399061      11.38417176       0.00375358      -0.00395944       0.00748425
H        7.61057816       5.62249372      12.34625663       0.00306213       0.00176154       0.01545890
O        2.77018117       9.77295483       9.78438767      -0.00845716       0.00576398      -0.00710629
H        2.99889908      10.62388413       9.38901312      -0.00682539       0.00135045       0.01136726
H        2.83635796       9.13138717       9.05874008      -0.01199004       0.01667861       0.01823811
O        1.93301546       3.17545383      -0.65379277      -0.00722171      -0.01072223       0.00122729
H        2.22423060       2.40649836      -0.14265698      -0.01147332      -0.01233424       0.00332891
H        0.97432833       3.22245197      -0.44586430      -0.00770536      -0.00690538      -0.00128064
O       11.24305398       2.15223823       5.35887343      -0.00750011       0.00100295       0.00133498
H       10.85209643       2.33346260       4.47758639      -0.00440645       0.00021201      -0.00018219
H       11.19800864       3.02273938       5.84859308      -0.00646851       0.00273246      -0.00026116
O        8.50059018       3.87273510       4.88766733      -0.01550721      -0.01333299      -0.00672396
H        8.93624545       3.25497561       4.27569599      -0.01110383      -0.00981198       0.00122218
H        7.94499572       3.34729932       5.48501508      -0.00942512      -0.01413035       0.00192506
O        6.41293072       7.34127727       4.81879942      -0.00570916       0.00232542      -0.00511491
H        6.90340775       6.74651364       4.19983251      -0.01123423      -0.00480388      -0.00265496
H        5.48224476       7.05145034       4.70414817      -0.00837269       0.01062019      -0.00478195
