144
Lattice="12.926423718402786 0.0 0.0 0.0 12.926423718402786 0.0 0.0 0.0 12.926423718402786" Properties=species:S:1:pos:R:3:forces:R:3 energy=-109447.546875 stress="0.00030573655385524035 -0.00016860834148246795 -0.0001861956698121503 -0.00016860834148246795 -0.0002786806144285947 0.00030123803298920393 -0.0001861956698121503 0.00030123803298920393 -0.001068635261617601" pbc="T T T"
Mg      12.24819338      13.24062200       0.88047440      -0.00653130      -0.00223684       0.01887824
Cl      10.54064697      11.73201866       6.18754652      -0.00985956       0.00154066       0.00947094
O        9.23745183      12.34683938       6.54956786      -0.00693941       0.01171839       0.00283325
O       11.63818139      12.65412726       6.57901271      -0.00593901       0.00113821      -0.00150955
O       10.58303144      11.56944659       4.69683659      -0.01102678      -0.01415360       0.01107645
Cl       5.40571976      11.24996331      11.83092179      -0.03509736       0.00735140       0.00838757
O        3.95202828      11.55404117      11.59401060      -0.03882885      -0.01557308       0.00422639
O        5.63855812       9.81668425      11.53051243      -0.01214406       0.01112199       0.01125091
O        6.20386179      12.08124818      10.88577811      -0.04594171       0.01696205       0.00774312
C        4.65831250       8.96393989       8.78439298       0.00667588       0.00889100       0.00790067
C        4.20373216      10.23615087       8.44264693       0.00907347       0.01049224       0.00232425
C        5.99475212       8.65807444       8.55004979       0.01123731       0.01340218       0.00843490
C        3.73600975       7.98560494       9.44406560       0.00905904       0.01152191       0.00994149
C        5.05996940      11.16964512       7.87987988       0.00326812       0.00635175       0.00522906
C        6.85813426       9.59353828       7.99581573       0.00602947       0.00863773       0.01075825
C        6.39506978      10.85532644       7.65146503       0.00933927       0.01245466       0.00528329
H        3.17494553      10.50533380       8.65194951       0.00547644       0.00694226       0.00237021
H        6.36783399       7.67483735       8.81493368       0.00982313       0.01165300       0.01230042
H        4.20268729       7.00735479       9.55304022       0.00228949       0.00666822      -0.00396539
H        3.46962931       8.34948871      10.43881463       0.02551505       0.00591011       0.01650426
H        2.81638948       7.85089815       8.87042986       0.00018807       0.02421367       0.02135074
H        4.68406619      12.15731595       7.64402628       0.00517705       0.00826089       0.00184819
H        7.89894168       9.34061795       7.83345636       0.00932872       0.01278044       0.01126136
H        7.08329641      11.57523410       7.22484957       0.00599633       0.00965135       0.00689714
C        3.07962044       7.91786538       5.75935471      -0.00284187      -0.00488499       0.00434235
C        3.46038433       6.58942532       5.94322382      -0.00094935      -0.00397258       0.00796197
C        4.05963891       8.84017562       5.39161623       0.00094113      -0.00541762       0.00475376
C        1.66408013       8.36070508       5.98386715      -0.00287178      -0.00443865      -0.00246836
C        4.78465845       6.19757139       5.77471648      -0.00394633      -0.00476739       0.01283748
C        5.37902577       8.45398837       5.21840805      -0.00225978      -0.00563574       0.00975941
C        5.74673888       7.12909040       5.41148319       0.00067666      -0.00504819       0.01263295
H        2.71219695       5.85752288       6.22851242      -0.00340413      -0.00358034       0.00807950
H        3.78053872       9.87493051       5.23569772      -0.00042068      -0.00555433       0.00228707
H        1.37583532       9.13814142       5.27618582      -0.00335117      -0.01199864      -0.01056315
H        0.95996556       7.53433754       5.89047276      -0.00141460      -0.00645274       0.00432588
H        1.54166008       8.77988579       6.98617837      -0.00536990       0.00517999      -0.00687131
H        5.06795366       5.16434420       5.93372191      -0.00243609      -0.00410266       0.01501228
H        6.11854747       9.18538046       4.92245434       0.00086264      -0.00604182       0.01024276
H        6.77821685       6.82556502       5.28464069      -0.00119679      -0.00558478       0.01667227
C        2.31441725       3.16234343       2.11237112       0.00279571       0.00221622       0.00174120
C        3.10595416       3.69206615       3.13240787       0.00270984      -0.00167194       0.00390927
C        2.75661749       2.00915994       1.46707586       0.00353771       0.00237413      -0.00041938
C        1.04142661       3.82524176       1.67938039       0.00427261       0.00385249       0.00156754
C        4.30081179       3.08030666       3.49350761       0.00051244      -0.00220656       0.00406678
C        3.94990829       1.39488081       1.82174559       0.00122934       0.00187969      -0.00054083
C        4.72604145       1.92734999       2.84315432       0.00176851      -0.00201558       0.00176721
H        2.78984970       4.59448106       3.64433021       0.00203248      -0.00203025       0.00570879
H        2.16611957       1.60210187       0.65320659       0.00344104       0.00473226      -0.00189558
H        0.29777874       3.07813752       1.37686768       0.00136674       0.00506538       0.00600348
H        0.61286921       4.43583432       2.47387111       0.00786566       0.00837124       0.00011036
H        1.21886977       4.46885035       0.81362485       0.00458437      -0.00016570      -0.00126511
H        4.90473226       3.51170756       4.28196706       0.00039288      -0.00519877       0.00592953
H        4.28135836       0.51668920       1.27911381       0.00195440       0.00213422      -0.00176968
H        5.66054064       1.45599538       3.12041816       0.00018314      -0.00268627       0.00175423
C        0.73972612      11.25345595       2.83907226      -0.00702569       0.00256192      -0.00794044
C        1.46218500      11.46199606       1.65810786       0.00154395      -0.00504810      -0.00376794
C       -0.09956631      10.13699134       2.90361072      -0.01400083       0.00617559      -0.01092339
C        0.80578877      12.22570954       3.97654801      -0.00936715       0.00352207      -0.00885534
C        1.38029045      10.58031801       0.58043170       0.00452378      -0.00554111      -0.00203428
C       -0.19546954       9.26168819       1.82967866      -0.01117134       0.00582909      -0.00897283
C        0.54067223       9.47949955       0.66626475      -0.00297483      -0.00204042      -0.00519806
H        2.13537627      12.30879695       1.59557974       0.00531717      -0.00701572      -0.00198779
H       -0.70628461       9.99504428       3.78917612      -0.02015677       0.01212376      -0.01388377
H        0.91380018      11.71705919       4.93508790      -0.00096887       0.00454019      -0.00937143
H        1.62681353      12.93200295       3.85092038      -0.01478434       0.00921436      -0.01282953
H       -0.13657711      12.77400420       4.06684884      -0.01262310      -0.00318356      -0.00362379
H        1.99358259      10.75967716      -0.29543503       0.01112713      -0.01071063       0.00176832
H       -0.85350597       8.40347406       1.89808452      -0.01712648       0.00933242      -0.01201130
H        0.46282537       8.78925230      -0.16404436      -0.00113955      -0.00234796      -0.00395719
C       10.10497902       7.62537000       6.29526310       0.00291022      -0.00965340      -0.00450219
C       10.71493214       8.38149676       7.29788415       0.00342503      -0.00945216      -0.00430781
C        9.69263607       6.32769251       6.60244970       0.00506444      -0.01045844      -0.00340688
C        9.91439101       8.19256428       4.91910409       0.00102535      -0.01017857      -0.00399768
C       10.90583167       7.85602726       8.56848915       0.00599428      -0.00922166      -0.00601652
C        9.88083896       5.79817629       7.87313479       0.00712638      -0.01034921      -0.00515937
C       10.49093524       6.56333565       8.86035382       0.00805198      -0.01019869      -0.00450474
H       11.02052822       9.39842551       7.08531920       0.00183691      -0.00871733      -0.00495112
H        9.22355972       5.71829478       5.83728757       0.00506239      -0.01085282      -0.00369506
H        9.01800202       7.78962087       4.44589927      -0.00401716      -0.00447132       0.00072957
H        9.84797909       9.28167881       4.93208925       0.00916489      -0.00972390      -0.00546497
H       10.76080047       7.92917349       4.27726980      -0.00386900      -0.01786474      -0.00717837
H       11.36752666       8.46569116       9.33578730       0.00738280      -0.00960232      -0.00613031
H        9.54268776       4.79307896       8.09066480       0.00922490      -0.01102415      -0.00435196
H       10.63853531       6.15723113       9.85217490       0.01000289      -0.01021172      -0.00573636
C        6.69162312       8.70252107       1.70147429       0.00746387       0.00987556       0.00164931
C        5.93108293       7.55544528       1.90806561       0.00803512      -0.00717241      -0.00260568
C        6.04890812       9.93814107       1.76268483       0.00877824      -0.00702247       0.00624789
C        8.14365962       8.62269666       1.33790818       0.00866485       0.00058491       0.00579818
C        4.56169821       7.63206506       2.12955784       0.00639714       0.00643268      -0.00260090
C        4.68203797      10.01905351       1.97755157       0.00688359       0.00581059       0.00678897
C        3.92874571       8.86532172       2.15316239       0.00913411      -0.01229031       0.00342556
H        6.42055262       6.58755074       1.89299643       0.00807761       0.00181081      -0.00750899
H        6.61931028      10.84193906       1.58384008       0.00689407       0.00309931       0.00984803
H        8.72862258       9.39316845       1.84079399       0.00774997       0.00021797       0.00979057
H        8.56584721       7.64929346       1.58904174       0.00740296       0.00210017       0.00598321
H        8.25687528       8.77352751       0.26101362       0.01244652       0.00500468       0.00642982
H        3.99172294       6.72587349       2.29677283       0.00830285      -0.00486824      -0.00566165
H        4.19417251      10.98498693       1.98162994       0.00751403      -0.00406900       0.01200572
H        2.86080938       8.93253772       2.31493903       0.00733832      -0.00308694       0.00383081
C        7.56407205       4.09146541      10.17197118       0.00166307      -0.00186436      -0.00278121
C        6.55993113       4.32796473       9.23445661       0.00704637       0.00051695      -0.00640842
C        8.03311072       2.78521709      10.32309911       0.00081815      -0.00015569       0.00096390
C        8.07723615       5.19687869      11.04904877      -0.00095476      -0.00103635      -0.00083986
C        6.02186877       3.28455401       8.49194066       0.00937526      -0.00213290      -0.01050480
C        7.49960008       1.73760188       9.58417817       0.00290499      -0.00234592      -0.00380521
C        6.48548434       1.98809706       8.66775616       0.00910582       0.00073367      -0.00728210
H        6.18213801       5.33515813       9.09895384       0.00841728      -0.00074188      -0.00971053
H        8.81609905       2.58430108      11.04682990      -0.00389620      -0.00194725       0.00395942
H        9.12618193       5.04509522      11.30392657      -0.00153828      -0.00042289       0.00174981
H        7.97470600       6.17345486      10.57613154      -0.00007599      -0.00129706      -0.00142275
H        7.51973744       5.23166408      11.98942716      -0.00331800      -0.00122346      -0.00244746
H        5.21610291       3.48385213       7.79607657       0.01361084      -0.00021955      -0.01378997
H        7.83947539       0.72322256       9.74035620       0.00330227      -0.00073051      -0.00203075
H        6.04928705       1.16588786       8.11695671       0.01159565      -0.00042738      -0.01155009
C        8.92404742       3.42518484       3.23834387      -0.00396761       0.01065341      -0.00017229
C       10.30334525       3.63058386       3.21176800       0.00034766       0.01204664       0.00196640
C        8.37720504       2.76161844       4.33778517      -0.00172526       0.00942858      -0.00345232
C        8.05926550       3.84093246       2.08301408       0.00063172       0.01225067      -0.00213802
C       11.11272348       3.15229985       4.23740869      -0.00552207       0.00977623       0.00292042
C        9.18268024       2.27472374       5.35816470      -0.00753865       0.00694606      -0.00277331
C       10.55847130       2.46097556       5.30621044      -0.00297302       0.00807913      -0.00067651
H       10.74959344       4.13498763       2.36145903      -0.00109937       0.01555737       0.00524501
H        7.30596718       2.59708883       4.37816536      -0.00408210       0.00839583      -0.00559902
H        7.03897885       4.05484460       2.40310705      -0.00074475       0.01069863      -0.00376563
H        8.46022274       4.72137107       1.57941380       0.00015725       0.01298375      -0.00018675
H        7.99879231       3.04197927       1.33831425       0.00273035       0.01277173      -0.00283833
H       12.18526299       3.30097042       4.19318254      -0.00296670       0.01115208       0.00489561
H        8.76106154       1.69745815       6.16900171      -0.00623402       0.00570580      -0.00489354
H       11.18266637       2.01589199       6.06905101      -0.00694056       0.00576459      -0.00012629
C        4.04046766       4.30722559      11.77790820      -0.00457156      -0.00932260      -0.00548297
C        4.85179171       3.17934685      11.90316354      -0.00578120      -0.00527980      -0.00829388
C        2.79515126       4.15844781      11.16945567      -0.00629359      -0.00702621      -0.00806195
C        4.51406571       5.63790367      12.27445538      -0.00881675      -0.00926366      -0.00045151
C        4.44834837       1.94341649      11.42344861      -0.00164993      -0.00797273      -0.01121280
C        2.37335347       2.91672009      10.70449930      -0.00183353      -0.00943416      -0.01126041
C        3.19947395       1.80615953      10.82865647      -0.00361425      -0.00487190      -0.01310910
H        5.81696769       3.27431889      12.38805487      -0.00488691      -0.00742794      -0.00731939
H        2.15078779       5.02480504      11.06407921      -0.00569324      -0.00916475      -0.00651402
H        3.69050959       6.31682409      12.49175229      -0.00959569      -0.00938560      -0.00530667
H        5.10299178       5.52440724      13.18274335      -0.01506895      -0.01163432       0.00369705
H        5.15245728       6.14204970      11.54466439      -0.00286032      -0.00893755       0.00497869
H        5.09381784       1.07742797      11.49971769      -0.00156121      -0.00476542      -0.01401977
H        1.39445062       2.82016655      10.24923070      -0.00269413      -0.00749154      -0.01296891
H        2.88937132       0.82735088      10.48620220      -0.00068486      -0.00684677      -0.01480691
