137
Lattice="12.405478774790183 0.0 0.0 0.0 12.405478774790183 0.0 0.0 0.0 12.405478774790183" Properties=species:S:1:pos:R:3:forces:R:3 energy=-108822.46875 stress="-0.000586360169108957 0.0009016787225846201 -3.805768028541934e-05 0.0009016787225846201 -0.00034154645982198417 0.00013307746849022806 -3.805768028541934e-05 0.00013307746849022806 -0.0002838894142769277" pbc="T T T"
Mg      11.32337937      11.09833324       3.82146622      -0.02075986      -0.02137667       0.03548826
S        1.20333721      10.69176186       4.77934805      -0.00637481       0.01354561       0.00877237
F        0.11385983      12.86666305       5.59880949      -0.00363296       0.00844651       0.00387426
F        2.28205616      13.01535431       5.41548156      -0.00846887       0.02821699       0.00830844
F        1.41612310      11.95926564       7.09372654       0.00726258       0.01712345       0.00593951
O        2.37150600       9.90938274       4.91064808       0.00862783       0.01261055      -0.00834545
O        0.87171532      11.28572590       3.44539549      -0.02703731      -0.00204158       0.01717603
O       -0.09392273      10.11633709       5.24934831       0.01922169       0.00479621       0.03860793
C        1.31727141      12.22747896       5.81339084      -0.00012618       0.01595484       0.00518513
S        5.48799935      11.35830308       7.22724269       0.02249694       0.00876224      -0.01773587
F        7.13652100       9.94623449       5.68120296       0.00760362      -0.01524318      -0.01271239
F        5.23861052       8.96407216       6.06033759      -0.00334559       0.00743103      -0.01159541
F        6.73736844       9.04539305       7.62068408      -0.00485532      -0.00352281      -0.00972834
O        4.43695316      10.92504662       8.12691828       0.01617372       0.02374840      -0.01782131
O        5.04011290      11.99025102       6.00071437       0.03435785       0.01030850      -0.02173209
O        6.65673159      11.95489243       7.84908826       0.02794492      -0.00291824      -0.01773924
C        6.16618724       9.74679897       6.62588552       0.00436717      -0.00095594      -0.01264992
O       10.05285156      10.42822438       2.53865884      -0.01380119      -0.02236506       0.02956062
C        8.78422979      10.97191226       3.00978078      -0.01703191      -0.00837444       0.00488824
C        9.99407556       9.41083802       1.50102933      -0.00325775      -0.00794554       0.01577240
C        9.15326264      11.84404457       4.19144882      -0.03277907      -0.00641507       0.00806159
C       11.36668020       8.81314406       1.35109773       0.00080848       0.00336584       0.00769992
H        8.31309097      11.53185399       2.20155834       0.00305188      -0.00721309      -0.00587934
H        8.14291090      10.14764813       3.31841220      -0.02940299      -0.00143129      -0.00443368
H        9.25375835       8.67322259       1.81688179       0.00127110      -0.01749207       0.00338195
H        9.65031896       9.89466022       0.58860842      -0.00452104       0.00371614       0.02256677
H        8.29209063      12.33421962       4.64199834      -0.03968123      -0.00873961      -0.00262298
H        9.55458451      11.24638251       5.03327895      -0.04632612      -0.00660636       0.01454839
H        9.82271747      12.67984569       3.89908664      -0.02743767      -0.00831883       0.01433686
H       11.34686207       8.06438022       0.55953288      -0.00033411       0.00212099       0.00871108
H       12.10689852       9.56628792       1.07547721      -0.00652444       0.00853673       0.00275562
H       11.68610358       8.31493742       2.26870770       0.01062870       0.00621534       0.00591052
O        6.89447330      11.33717361      11.49453506      -0.00146828      -0.00870192       0.00415051
C        5.73394870      10.54543494      11.23946941      -0.00337958      -0.00338165      -0.00289445
C        8.05318500      10.72575741      10.97408640      -0.00253195      -0.00394577      -0.00465488
C        4.51985931      11.42938782      11.32329785      -0.00086349      -0.00015807       0.00155045
C        9.21451531      11.68420095      11.11221973      -0.00247225      -0.00500292       0.00096505
H        5.80171842      10.11634036      10.23387825      -0.00311219       0.00345747      -0.00573432
H        5.69708385       9.71919179      11.96829921      -0.00729940      -0.00844246      -0.00891906
H        8.24830727       9.77818221      11.50251493      -0.00025783      -0.00883657      -0.01457566
H        7.89354194      10.46244286       9.92468531      -0.00580949       0.00686966      -0.00678182
H        3.61743953      10.83920205      11.15621881      -0.00261852       0.00376578      -0.00262977
H        4.45413729      11.91753624      12.29753862      -0.00050666      -0.00616328       0.00454223
H        4.57488934      12.19333258      10.55266621       0.00214893       0.00480175       0.00655693
H       10.15221589      11.19696105      10.83758008      -0.00321108      -0.00290307      -0.00490787
H        9.07249861      12.54775557      10.46248190      -0.00362260      -0.00003847       0.00792347
H        9.29731674      12.05643595      12.13656753       0.00017576      -0.01357997       0.00392781
O        9.15760727       4.64189896       6.14642935       0.00049078      -0.00038122       0.00429124
C       10.08505370       3.57676766       6.20613789      -0.00185114      -0.00263184       0.00402319
C        9.76777056       5.85754257       5.75174809       0.00201738      -0.00242251       0.00120103
C        9.35876110       2.31574570       6.60728194      -0.00455707      -0.00057068       0.00519165
C        8.73054454       6.95220367       5.75384628       0.00414419      -0.00051931       0.00243754
H       10.57078495       3.45795597       5.22320783      -0.00300467      -0.00441482       0.00378039
H       10.87973822       3.81386857       6.92895512      -0.00074491      -0.00398004       0.00321189
H       10.58874061       6.10241830       6.44288175       0.00406039      -0.00294825      -0.00104192
H       10.21366840       5.73696835       4.75158165      -0.00075428      -0.00449185       0.00023946
H       10.05389128       1.47458547       6.64886588      -0.00659310      -0.00208910       0.00635977
H        8.90321375       2.42232342       7.59087577      -0.00442278       0.00158169       0.00499788
H        8.56071231       2.08620135       5.90140836      -0.00501609       0.00001587       0.00560157
H        9.17654938       7.89053529       5.41830685       0.00457324      -0.00164106      -0.00011696
H        7.90108493       6.70449700       5.08992730       0.00182033       0.00003207       0.00520676
H        8.33360900       7.11496140       6.75580720       0.00684927       0.00119732       0.00314680
O        5.02023485       5.03129015       8.48513035       0.00415152       0.00137246       0.00371784
C        5.67306332       4.83834610       7.23764864       0.00202821      -0.00233310       0.00313622
C        4.97755498       6.40845866       8.82280719       0.00852868       0.00178134       0.00177622
C        5.71503076       3.37105520       6.89010890      -0.00016079      -0.00312394       0.00658678
C        4.19760302       6.58744020      10.10224295       0.01154721       0.00581886       0.00306004
H        5.13751145       5.40944201       6.46425662       0.00140727      -0.00353059       0.00272703
H        6.69272652       5.24319407       7.29431136       0.00253659      -0.00347415       0.00066066
H        6.00217725       6.79212145       8.93562810       0.00968039      -0.00073534      -0.00056539
H        4.50654643       6.97161306       8.00858113       0.00884476       0.00201908       0.00174260
H        6.24981211       3.24379676       5.94805463      -0.00236029      -0.00615600       0.00585334
H        6.22885590       2.79046272       7.65447419       0.00099017      -0.00154782       0.00694543
H        4.71754547       2.95142620       6.77394990      -0.00076258      -0.00238549       0.00960430
H        4.18416296       7.64244082      10.37989064       0.01546356       0.00609268       0.00204651
H        3.17013083       6.24901851       9.96380039       0.01027508       0.00876162       0.00575642
H        4.64546217       6.02467833      10.92163359       0.01150034       0.00540888       0.00276333
O        1.93897500       6.22598143       7.55986967       0.00391567       0.00078467      -0.00046853
C        1.14209840       5.07101810       7.39201172       0.00356436       0.00128329      -0.00282945
C        1.13631093       7.38037040       7.72298528       0.00398433       0.00068963      -0.00037029
C        2.03558140       3.88198761       7.15178827       0.00315595       0.00152275      -0.00465836
C        2.00402209       8.58396269       7.98673814       0.00405401       0.00061613       0.00020193
H        0.52136539       4.91933227       8.29118362       0.00305739      -0.00022719      -0.00351876
H        0.45319203       5.22003790       6.54612798       0.00405821       0.00302327      -0.00282931
H        0.53154548       7.52987545       6.81435935       0.00462493       0.00102951      -0.00052005
H        0.43429498       7.21613549       8.55486442       0.00363341       0.00058493      -0.00069642
H        1.44234651       2.96773250       7.09289517       0.00290915       0.00193193      -0.00625201
H        2.58535471       4.00044936       6.21811316       0.00343245       0.00300145      -0.00424945
H        2.76011194       3.78236017       7.95908180       0.00272587      -0.00001169      -0.00454041
H        1.38809787       9.48206026       8.04295742       0.00422493       0.00061186      -0.00046859
H        2.53971022       8.49115087       8.92914246       0.00321211      -0.00023622       0.00069793
H        2.73644853       8.72910138       7.19596973       0.00462808       0.00003899       0.00047804
O        4.08994906       8.22832315       2.03783580       0.00256068      -0.00467296      -0.00289878
C        3.73951306       9.60311379       1.98913481       0.00402796      -0.00472122      -0.00902671
C        3.08714136       7.42432548       1.45580421       0.00407085      -0.00629383      -0.00315112
C        4.76770495      10.41013368       2.74111508       0.00695190      -0.00297219      -0.01504549
C        3.49842420       5.97664187       1.54925943       0.00529774      -0.00564480      -0.00028293
H        3.66673893       9.92749671       0.94298866       0.00367879      -0.00971732      -0.01042193
H        2.74925924       9.73622897       2.43949990       0.00450563      -0.00060985      -0.00859830
H        2.13285995       7.58524867       1.98557268       0.00307065      -0.00627723      -0.00506994
H        2.92736643       7.72002657       0.40591953       0.00565060      -0.00778088      -0.00366533
H        4.49156543      11.46543842       2.74806977       0.00625613      -0.00335602      -0.01474335
H        4.83679100      10.08032270       3.77594033       0.01201438      -0.00155841      -0.01494426
H        5.74478632      10.31533381       2.26349807       0.00454044      -0.00234113      -0.01983440
H        2.74316824       5.33899942       1.08786108       0.00581869      -0.00716366       0.00109023
H        4.44675303       5.81611515       1.03660156       0.00537837      -0.00594347       0.00000876
H        3.61704722       5.68307057       2.59232655       0.00561920      -0.00340101       0.00027540
O        4.68734049       2.25772829      10.60040418      -0.00229940       0.00225455       0.00191632
C        5.72708299       3.04095923      11.15406341      -0.00144547       0.00137381       0.00133655
C        3.40437281       2.77487185      10.87604555      -0.00182998       0.00639778      -0.00358139
C        7.04596313       2.43222193      10.74697132      -0.00245464      -0.00500214       0.00783375
C        2.37120435       1.81214888      10.33582538      -0.00229162       0.00624153      -0.00218362
H        5.64363248       4.07069410      10.78615696       0.00302709      -0.00017631      -0.00366676
H        5.62929204       3.05820323      12.25179349      -0.00443424       0.00668178       0.00090724
H        3.27891119       2.90400387      11.96378496      -0.00437918       0.01122570      -0.00459898
H        3.29932865       3.76496770      10.41113648       0.00160508       0.00457317      -0.00808409
H        7.87147806       2.98394722      11.20096165      -0.00173533      -0.00548963       0.00690626
H        7.09005711       1.38950620      11.05932058      -0.00628818      -0.00350896       0.01323585
H        7.15881612       2.46517344       9.66357397       0.00036728      -0.01113325       0.00796545
H        1.37199034       2.24190772      10.42172954      -0.00184193       0.00772315      -0.00510401
H        2.57351790       1.59652033       9.28660653      -0.00109949       0.00267455      -0.00119081
H        2.39324377       0.86906328      10.88048867      -0.00431273       0.00800818       0.00091721
O        9.63076713       8.44909823       9.31992244      -0.00029421       0.00298321      -0.00637632
C       10.57923129       9.12904363       8.51399816       0.00104567       0.00102305      -0.00605682
C       10.18544512       7.29044412       9.91300594      -0.00306141       0.00242206      -0.00553495
C        9.91858960      10.28361168       7.80106963       0.00277448       0.00335771      -0.00353895
C        9.14665792       6.62464790      10.78162860      -0.00539458       0.00585148      -0.00586134
H       11.41169635       9.47905835       9.14477390       0.00243312      -0.00148919      -0.00657275
H       11.00337397       8.43108317       7.78008690      -0.00099131       0.00083390      -0.00711435
H       10.53163935       6.59943930       9.12949900      -0.00431755       0.00120381      -0.00500861
H       11.07305812       7.56682868      10.50684502      -0.00298735       0.00097440      -0.00519180
H       10.67908098      10.82041762       7.23066006       0.00350679       0.00241338      -0.00287947
H        9.14332968       9.92165088       7.12795005       0.00119120       0.00572114      -0.00313000
H        9.44918709      10.98240933       8.48933338       0.00491290       0.00354582      -0.00231607
H        9.57260390       5.74694498      11.27049854      -0.00877434       0.00415619      -0.00626551
H        8.78492696       7.31144726      11.54896879      -0.00271777       0.00708809      -0.00570577
H        8.29252546       6.30421783      10.18531584      -0.00650616       0.00949782      -0.00613523
