141
Lattice="12.42454756993864 0.0 0.0 0.0 12.42454756993864 0.0 0.0 0.0 12.42454756993864" Properties=species:S:1:pos:R:3:forces:R:3 energy=-387204.5 stress="-0.003231628565117717 0.00012048954886267893 0.0003843055892502889 0.00012048954886267893 -0.001337505760602653 0.0003777731326408684 0.0003843055892502889 0.0003777731326408684 -0.003425589529797435" pbc="T T T"
Mn      11.48924164      11.51302856       0.81756376      -0.00506997      -0.00040758       0.01666093
Br       1.45037604      10.83859016       4.29001742      -0.00728965      -0.01326334       0.00197554
O        0.05927625      10.86178035       1.77501245      -0.03903645       0.00237593      -0.00104100
O        2.12752470      12.25909230       4.81852465      -0.02291369      -0.00526667      -0.00830007
O        0.80011884      10.10538301       5.62540953       0.00969416      -0.01460803       0.00725520
O        2.68446131       9.85442723       3.76918950       0.00362325      -0.00005031      -0.00127274
Br       7.83973690      11.81638639       8.46437958       0.00497077       0.00718739       0.01325817
O        8.46350540      11.96875036       9.96655858      -0.00547534       0.00551549       0.01130843
O        8.92499141      12.41837171       7.40042693       0.00976169       0.00317848       0.01463473
O        7.53187022      10.26820618       8.13368026       0.00214343       0.00661969       0.01225448
O        6.47939359      12.70235874       8.35329813       0.00843549       0.01193154       0.00611497
S        5.75063627       1.76786085      11.08467122       0.00744259       0.00085235       0.00674498
O        5.92673830       2.14271578      12.52821694      -0.00553769       0.00893521       0.00586486
C        7.13174327       2.54925036      10.23839346       0.00342846       0.01233736       0.01105347
C        4.48777446       2.88210941      10.41652878      -0.00038791      -0.01759487      -0.00432071
H        7.99453653       1.90770089      10.40031835       0.00855251       0.02181841       0.01957595
H        7.25874195       3.53051289      10.69445097      -0.01039794       0.01843156       0.00336340
H        6.93458799       2.60914178       9.17132188       0.00948501       0.00109456       0.00959136
H        4.50760380       2.83339136       9.32913166      -0.00472941      -0.03548434      -0.00276184
H        4.71018935       3.89184458      10.76697235      -0.00611728      -0.01111700      -0.02217223
H        3.51605536       2.55642185      10.77955022       0.00415350      -0.01783454       0.00525224
S       12.86205568      10.25096087       9.39896712       0.01131898       0.00581717       0.01606824
O       13.03217175       8.78507341       9.68055087       0.00579622       0.00353408       0.02260542
C       11.73088514      10.87768366      10.69352272       0.00828707       0.01615699       0.00029474
C       11.64980105      10.45212066       8.10029025       0.01796120      -0.00002517       0.01008004
H       12.22378780      10.65380035      11.66437327       0.00999968       0.01884945       0.01126545
H       10.77676451      10.36089545      10.58570197       0.00857940       0.02057454       0.00512002
H       11.62480365      11.94579327      10.52060734       0.01753018       0.01469021      -0.00123505
H       11.28661689      11.47662098       8.14526536       0.02086325       0.00094053       0.00141954
H       10.84427438       9.73987647       8.27665761       0.01627825       0.00362264       0.01019193
H       12.15323095      10.29487442       7.14292316       0.02131504      -0.00736028       0.01234016
S        9.99259227       7.00534972       9.87889485       0.00935316       0.00954008      -0.00288737
O        9.61916492       8.16467202       9.02792989       0.00529379       0.00068843      -0.01252460
C       11.32139034       6.13424167       9.03036262       0.01145244       0.00732607       0.00431889
C        8.68478985       5.78387411       9.64926115       0.01443040       0.00358552       0.00864013
H       12.15666179       6.83379970       9.02663303       0.00941971       0.00899664      -0.00172952
H       11.00910006       5.90798825       8.01139461       0.01135476      -0.00254532       0.00700869
H       11.58559327       5.22600607       9.57255287       0.01426823       0.01312912       0.01157480
H        8.93748603       4.86844968      10.18180725       0.01632299       0.01171127       0.02046741
H        8.55556089       5.58789568       8.58461927       0.01726165      -0.00985984       0.01125710
H        7.78487814       6.23744366      10.06625893       0.01214482       0.00417608       0.00161123
S        4.78713427       9.53482161       6.78195423       0.01232141       0.00530076       0.00554085
O        4.84817966      10.74467336       5.93242053       0.01007055       0.00532174       0.00792849
C        5.93767112       8.34603291       6.06433635       0.01457793       0.00770712       0.00568819
C        3.28704116       8.60980539       6.42187106       0.01500201       0.00272304       0.00223759
H        6.93630397       8.72018253       6.27654851       0.01369207       0.00869477       0.00732283
H        5.76527314       8.29005106       4.98800065       0.01549091       0.00779732       0.00586531
H        5.79209967       7.37220640       6.53576260       0.01558440       0.00753195       0.00464188
H        3.33518964       7.66129391       6.96101742       0.01638497       0.00181389      -0.00001459
H        3.18115704       8.49170801       5.34280267       0.01679224       0.00444826       0.00239190
H        2.43526186       9.20061963       6.75492039       0.01357381      -0.00006363       0.00226383
S        9.32522834       9.40163207       0.24390438      -0.01627234       0.00589111      -0.00677544
O        9.81779425      10.72607381       0.95628106      -0.01127487       0.01309752      -0.01260598
C        7.92120591       9.04340251       1.25448781      -0.01576662       0.00329818      -0.00684652
C       10.45368561       8.16511428       0.84122569      -0.01396000       0.01037294      -0.00293633
H        7.17871781       9.81746535       1.08408359      -0.01441167       0.01073119      -0.00218689
H        8.22544716       9.00439250       2.29733784      -0.01326995       0.01082920      -0.00474343
H        7.51738438       8.09320206       0.92573088      -0.01272151       0.00581254      -0.00241908
H       10.06099109       7.20191339       0.51633615      -0.00956009       0.00926074       0.00240020
H       10.56224073       8.21911799       1.92470523      -0.01333656       0.01626077      -0.00334245
H       11.41563172       8.33694606       0.36691361      -0.01288286       0.01131613      -0.00437208
S       10.96308925       1.63886706       1.89177959      -0.01366732      -0.00230917       0.00064582
O       11.77515031       0.93340306       0.71719100      -0.00686413      -0.01034784      -0.00001740
C        9.28820971       1.58965492       1.25813134      -0.00934613       0.00809897      -0.00510965
C       11.33924212       3.37117330       1.62654834      -0.00203978      -0.00235826       0.01105765
H        8.98096799       0.54667134       1.29016351      -0.01366732       0.00899374      -0.01213890
H        9.29138935       1.94841658       0.23200016      -0.00221755       0.01026820      -0.00717470
H        8.65936888       2.19151634       1.90541499      -0.00853565       0.00755383      -0.00890806
H       10.74651110       3.94412875       2.33469715       0.00193667      -0.00485080       0.01209748
H       11.10766118       3.63854086       0.59722998      -0.00014565       0.00249989       0.01040286
H       12.39690498       3.50751394       1.83607934      -0.00125495      -0.01146987       0.01007067
S        9.00767019       1.77306166       5.10603261      -0.00830540      -0.00485206      -0.00139761
O        9.37938856       2.72593075       3.99148666      -0.01404186      -0.00680602      -0.00408161
C        7.93260392       0.52889716       4.37296722      -0.00495231      -0.01099363       0.00425485
C        7.72141748       2.62830139       6.03459770      -0.00908566      -0.00758034      -0.00154278
H        8.56611665      -0.14246858       3.79561041      -0.00466442      -0.00831749       0.00268347
H        7.21552941       1.03253540       3.72471158      -0.01018474      -0.02151859       0.00314971
H        7.42513855      -0.03076323       5.15648324       0.00131796      -0.01134773       0.00696364
H        7.24339043       1.92389014       6.71372950      -0.00189175      -0.00544390       0.00464143
H        7.01018546       3.04349712       5.32008663      -0.01451887      -0.01622744      -0.00037347
H        8.20512221       3.42990448       6.59138308      -0.01148458      -0.00141698      -0.00913819
S        2.55343562       1.23242644       2.47116421      -0.02257383       0.00773144      -0.00761688
O        2.62384746      -0.04322824       1.70977313      -0.02774855      -0.00498748      -0.02274096
C        2.85341681       2.50584145       1.20979295      -0.01266336       0.00364137      -0.00385642
C        4.12492732       1.44514612       3.33360326      -0.02434456      -0.01592883      -0.01059908
H        2.07816263       2.35885907       0.45908815      -0.00949059       0.01437279      -0.00776520
H        3.84767862       2.36462079       0.78479133      -0.01172060       0.00335183       0.00035159
H        2.75805222       3.49829096       1.65204885      -0.00990184       0.00144852       0.00374216
H        4.14333842       2.43657237       3.79099378      -0.02350631      -0.02079235       0.00217035
H        4.92844782       1.33526671       2.60406262      -0.02232275      -0.00766049      -0.00863184
H        4.14510541       0.67395797       4.10265163      -0.02875516      -0.02304050      -0.01958680
S        5.02711355       6.63279764       2.12863692      -0.00587153      -0.00909787       0.00275707
O        6.09970004       7.45278697       2.76549874      -0.00507903      -0.00993711       0.00148845
C        4.36802199       5.59111291       3.44045927      -0.00751236      -0.00665587       0.00363886
C        5.84519158       5.34526166       1.16017679      -0.00702393      -0.01078653       0.00561683
H        3.90662082       6.27172974       4.15310343      -0.00439095      -0.00524925       0.00394542
H        5.17930214       5.02913838       3.90463103      -0.00924978      -0.00914810       0.00283625
H        3.61242234       4.92009357       3.03650066      -0.00996622      -0.00396729       0.00475586
H        5.11016645       4.63740037       0.77891062      -0.00667492      -0.01020376       0.00477847
H        6.57551671       4.81434841       1.76836754      -0.00852259      -0.01087470       0.00672990
H        6.33444150       5.85601733       0.32888703      -0.00514752      -0.01227030       0.00613555
S       12.33500588       2.29866497       9.11372140       0.00799564       0.00919104      -0.00424302
O       12.98557119       0.96705092       9.23711834       0.01676363       0.01389754       0.00455442
C       10.91506901       2.25292702      10.23320407       0.00036293       0.00204255      -0.01575980
C       11.36951838       2.30192260       7.59285523       0.02083626      -0.00196066      -0.01135767
H       11.32978998       2.05748638      11.21992974      -0.00741579       0.00615904      -0.01245067
H       10.24768250       1.43926274       9.94129383       0.00597966      -0.00039054      -0.01966507
H       10.39334506       3.20992063      10.21700082      -0.00364426       0.00001767      -0.02263365
H       10.82240921       3.24516714       7.54061494       0.01750574      -0.00471705      -0.01991703
H       10.68187934       1.45558937       7.60016553       0.02372354      -0.00392842      -0.01283281
H       12.06476299       2.22549895       6.76064271       0.02780971      -0.00265678      -0.00467554
S        9.01728742       7.31962884       4.43417900      -0.00867867       0.00004160      -0.00398946
O       10.45145475       7.52459585       4.09591795      -0.00775695       0.01165657      -0.01668605
C        8.94403168       6.63047444       6.10237375       0.01399890       0.00057125      -0.00510275
C        8.53834199       5.79102985       3.60815573      -0.00170326      -0.00173050      -0.00108075
H        9.19671770       7.41064895       6.82111722       0.01599160       0.00164193      -0.00770108
H        9.65717911       5.80539474       6.14850851       0.01730809       0.00380544      -0.01068036
H        7.92839993       6.27935019       6.28383314       0.01697703      -0.00358128       0.00377204
H        7.50882231       5.55110076       3.86135249       0.00091241      -0.00677809       0.00487685
H        9.21552428       4.99119463       3.90427606       0.00286077       0.00144118      -0.00483216
H        8.59955781       5.98642114       2.53936410      -0.00943783      -0.00189541      -0.00107678
S        1.92976665       7.73799109       1.96281847       0.00158215      -0.00433534      -0.01389298
O        0.48835552       7.93154354       2.26272378      -0.01715565      -0.00460196      -0.01176116
C        2.47747488       9.08392570       0.90455399      -0.00974062       0.00470948      -0.00269949
C        1.92030203       6.46084421       0.65813365      -0.00510181       0.00699210      -0.01860046
H        2.44931436       9.98756231       1.50775313      -0.01293817       0.00132330       0.00025913
H        1.82468885       9.14036558       0.03185779      -0.00146896       0.00608329      -0.00616013
H        3.50399332       8.87572540       0.60860180      -0.00410947       0.00872621       0.00273193
H        2.91639316       6.31527518       0.24163383      -0.00319699       0.00899829      -0.01535664
H        1.22019548       6.76995375      -0.11938115      -0.00188591       0.01114928      -0.01842996
H        1.56983588       5.54212720       1.12777065      -0.00621367       0.00411762      -0.02485776
S        5.21255746       8.33457040      11.16146499      -0.00059366      -0.01831099       0.00402606
O        6.65445671       7.95745300      10.99384805      -0.00638759      -0.03353357       0.00795239
C        4.29810126       7.46239708       9.87837326      -0.00648135      -0.00108528      -0.00256389
C        4.95470412       9.99452506      10.51416336       0.02296485      -0.01505750       0.01066509
H        4.39723346       6.39948240      10.09288332      -0.02368556      -0.00231102      -0.00593311
H        4.75114656       7.70663911       8.91747779       0.00060798      -0.00496319       0.00037687
H        3.24815896       7.75974048       9.90200355      -0.00154567       0.01330803      -0.00609319
H        3.87721082      10.16530104      10.47943515       0.02695756       0.00215270       0.00588642
H        5.39841266      10.07039436       9.52171743       0.03082630      -0.01808466       0.01476765
H        5.41728282      10.70201746      11.19948451       0.02925570      -0.02597098       0.01596513
