141
Lattice="12.549412611101234 0.0 0.0 0.0 12.549412611101234 0.0 0.0 0.0 12.549412611101234" Properties=species:S:1:pos:R:3:forces:R:3 energy=-126096.9140625 stress="-0.00024908658815547824 0.0003423781890887767 0.00022729927877662703 0.0003423781890887767 0.0003412967489566654 0.00039298277988564223 0.00022729927877662703 0.00039298277988564223 -0.00120572152081877" pbc="T T T"
Mn      13.95682537      13.45785654       0.78076707      -0.01068172       0.00771439       0.02766937
S       12.51569905      11.29169291      -0.06657359      -0.01214546      -0.00041008       0.01124710
S       13.95563614      11.36501370       1.43745288      -0.02039477       0.00950003       0.03233713
O       12.88229939      12.67585095      -0.62325986      -0.00122268       0.01221198       0.01801756
O       11.19234988      11.29754875       0.49984811      -0.00090730       0.00053472      -0.00855717
O       12.79860413      10.23661257      -1.00578271       0.01693891       0.01750362       0.01466227
C        4.77060778       4.15968535       5.34960976       0.00423612      -0.00209331      -0.00420723
C        5.23138214       2.84251820       5.37533338       0.00352187      -0.00228137      -0.00298497
C        5.58488426       5.13420142       4.77081528       0.00479390      -0.00318316      -0.00448977
C        3.44510206       4.53042334       5.94351398       0.00447470      -0.00103450      -0.00437194
C        6.46961371       2.50594452       4.83940200       0.00365792      -0.00328590      -0.00237537
C        6.82202108       4.80240137       4.23421479       0.00469805      -0.00400043      -0.00384709
C        7.26985419       3.48656915       4.26564532       0.00428274      -0.00405948      -0.00264282
H        4.60780316       2.07373455       5.82004198       0.00324391      -0.00174578      -0.00262734
H        5.23541683       6.15988589       4.72766447       0.00514473      -0.00286840      -0.00570254
H        2.98898301       5.35692937       5.39727935       0.00330824      -0.00379030      -0.00731991
H        2.75417116       3.68678002       5.93694104       0.00536891      -0.00134300       0.00008974
H        3.56311691       4.84249256       6.98399231       0.00539807       0.00367654      -0.00602487
H        6.80776024       1.47668538       4.86003758       0.00305367      -0.00342067      -0.00150801
H        7.43220772       5.57300175       3.78094686       0.00535432      -0.00451711      -0.00425025
H        8.23295472       3.22719904       3.84332379       0.00437665      -0.00475337      -0.00187283
C        9.30636482       9.41123610       3.75930872      -0.00101263       0.00187245      -0.00093627
C        8.55001869      10.53052672       3.41112098      -0.00373301       0.00052953       0.00084584
C       10.65348068       9.59053703       4.06152708      -0.00079462       0.00426555      -0.00385881
C        8.66779539       8.05490631       3.80434116       0.00191483       0.00040063      -0.00018244
C        9.11927468      11.79386221       3.36509707      -0.00586955       0.00109629      -0.00193246
C       11.22838149      10.85434754       4.01056416      -0.00325885       0.00504273      -0.00586271
C       10.46450821      11.95935613       3.66706140      -0.00489949       0.00359084      -0.00550424
H        7.49958565      10.40433940       3.18490208      -0.00427756      -0.00136301       0.00411398
H       11.25810340       8.73474907       4.34258331       0.00140147       0.00535236      -0.00504164
H        9.34483273       7.31165138       4.22489309       0.00424194       0.00178512      -0.00153653
H        7.75919762       8.07038538       4.41046429       0.00285545      -0.00182807       0.00107567
H        8.38207538       7.72252183       2.80303579       0.00131024       0.00008991       0.00010052
H        8.51590096      12.64935783       3.08541892      -0.00624408       0.00072001      -0.00143650
H       12.28206091      10.97248329       4.21894946      -0.00279938       0.00700435      -0.00837981
H       10.91851469      12.94074597       3.61817445      -0.00642706       0.00376309      -0.00915551
C        1.01446093      10.45924452       7.36000802       0.00134116       0.00217913      -0.00536095
C        1.06601154       9.92471509       8.64582911       0.00331350       0.00343160      -0.00453031
C        1.38190309       9.64529140       6.28968063       0.00013067       0.00080311      -0.00497529
C        0.61714152      11.89391246       7.16769328       0.00135562       0.00151050      -0.00844604
C        1.47176697       8.61406970       8.86123897       0.00492186       0.00455462      -0.00436719
C        1.79509452       8.33500455       6.50026717       0.00127274       0.00167048      -0.00431316
C        1.83722792       7.81168816       7.78681383       0.00411073       0.00345972      -0.00339903
H        0.77912423      10.52864078       9.49511514       0.00402989       0.00444010      -0.00454091
H        1.35598199      10.04282542       5.28164115      -0.00235389      -0.00015840      -0.00533660
H        0.17147686      12.06589667       6.18872909      -0.00119757      -0.00172238      -0.00786047
H       -0.09691147      12.20276507       7.93173686       0.00347558       0.00455820      -0.00776729
H        1.48711794      12.55177613       7.25824383       0.00186655       0.00138749      -0.01344053
H        1.48146111       8.22727377       9.87323804       0.00743923       0.00523150      -0.00354555
H        2.09120205       7.72313866       5.65822542      -0.00001524       0.00061616      -0.00409059
H        2.14316521       6.78475995       7.94276303       0.00576034       0.00410908      -0.00265295
C       10.39886779       5.55156046       8.10618588       0.00200389      -0.00043016       0.00144467
C       10.54633410       6.81915226       8.67235649       0.00576811      -0.00036743       0.00178566
C       10.85820639       4.44958680       8.82662558      -0.00386827      -0.00145590       0.00318745
C        9.77763092       5.37956115       6.75017033       0.00485580       0.00202506       0.00044867
C       11.14193304       6.98683334       9.91630285       0.00379709      -0.00271909       0.00285578
C       11.44826476       4.60919298      10.07500639      -0.00612139      -0.00376694       0.00423162
C       11.59636248       5.87849536      10.62300462      -0.00222315      -0.00391879       0.00392555
H       10.19700825       7.68876931       8.12785851       0.01004778       0.00050095       0.00078525
H       10.74485505       3.45546392       8.40844112      -0.00705376      -0.00140054       0.00307802
H        9.38154056       4.37306688       6.61429495       0.00570045       0.00197980      -0.00233274
H        8.96157369       6.08506268       6.58861538       0.00430106       0.00175653       0.00029057
H       10.51354560       5.55152669       5.95949797       0.00582916       0.00434255       0.00211747
H       11.26420270       7.98062792      10.32993204       0.00639573      -0.00292230       0.00276573
H       11.77886481       3.73364142      10.62103916      -0.01100693      -0.00462677       0.00542072
H       12.06133616       6.00914949      11.59248358      -0.00370146      -0.00570143       0.00509955
C        5.80293716       4.08091288       9.61066995      -0.00259224      -0.00277013      -0.00529722
C        5.17168820       2.85573272       9.38013905      -0.00357100      -0.00098807      -0.01171071
C        5.00394747       5.20119682       9.83972964      -0.00153869      -0.00353214       0.00072597
C        7.29753221       4.19237495       9.57357587      -0.00247127      -0.00412398      -0.00445009
C        3.78570705       2.76005055       9.34864864      -0.00369717       0.00009196      -0.01113375
C        3.61639894       5.10768653       9.82442436      -0.00160825      -0.00223182       0.00080647
C        3.00144042       3.88951673       9.56282782      -0.00281250      -0.00051350      -0.00447452
H        5.77847748       1.97130034       9.21629377      -0.00445455      -0.00047497      -0.01684732
H        5.47607552       6.15981640      10.02138624      -0.00070908      -0.00480269       0.00563832
H        7.64818893       5.10829882      10.04825020      -0.00207547      -0.00491174      -0.00348337
H        7.77831330       3.34674802      10.06686884      -0.00366119      -0.00490904      -0.00467743
H        7.65273980       4.20600193       8.54019948      -0.00156866      -0.00391351      -0.00407532
H        3.31425048       1.80117987       9.16589152      -0.00442914       0.00169356      -0.01664164
H        3.01579026       5.99047968      10.00665792      -0.00091890      -0.00285977       0.00517603
H        1.92122273       3.82511326       9.51655289      -0.00272785       0.00047078      -0.00328535
C        5.90471024      10.79691988       7.13960134       0.00318702       0.00368653       0.00266586
C        6.89156002      11.76310680       6.94885226       0.00418603       0.00255665       0.00360824
C        6.30223451       9.47372220       7.33138283       0.00124750       0.00286195       0.00036051
C        4.45160985      11.16190706       7.13529968       0.00354061       0.00572510       0.00398395
C        8.23789614      11.41980070       6.93415864       0.00379211       0.00070892       0.00200623
C        7.64683172       9.12891739       7.33151284       0.00079344       0.00092510      -0.00142440
C        8.62175213      10.09944878       7.12884497       0.00199847      -0.00032201      -0.00061136
H        6.59736702      12.79882680       6.81882693       0.00583295       0.00318939       0.00550918
H        5.54708956       8.71398507       7.50160099       0.00037508       0.00361657      -0.00031097
H        3.89073766      10.57523155       7.86312116       0.00293431       0.00433131       0.00237392
H        4.31012885      12.22051333       7.35871609       0.00516419       0.00518778       0.00719296
H        3.99833803      10.96323742       6.16016016       0.00311103       0.00935791       0.00352228
H        8.98883784      12.18181465       6.76597080       0.00469473      -0.00025780       0.00279546
H        7.93294624       8.09874621       7.50633090      -0.00046711       0.00019002      -0.00352066
H        9.67176916       9.83490632       7.11735172       0.00148080      -0.00174964      -0.00220542
C        4.38179150       8.94836014       2.29594608      -0.00067750      -0.01252352      -0.00175543
C        3.17824467       8.68969248       2.95329014      -0.00164378      -0.01411678      -0.00429811
C        5.02166094       7.88999448       1.65304398       0.00182393      -0.01162191      -0.00084680
C        4.93718208      10.34041649       2.24364879      -0.00204352      -0.01203394       0.00039492
C        2.61574373       7.42041201       2.94354245      -0.00026559      -0.01481070      -0.00613166
C        4.46437112       6.61587817       1.64361004       0.00312462      -0.01204430      -0.00260285
C        3.25472874       6.37686158       2.28261319       0.00196674      -0.01374054      -0.00549728
H        2.66690180       9.50246845       3.45442909      -0.00320817      -0.01500046      -0.00457209
H        5.95324734       8.07887839       1.13357799       0.00284596      -0.01030834       0.00144541
H        5.83521533      10.38829552       1.62832499      -0.00095023      -0.01044063       0.00242709
H        4.20247654      11.02089566       1.80947210      -0.00216618      -0.01234254      -0.00023685
H        5.17824325      10.71651610       3.24189508      -0.00457088      -0.01269191       0.00120342
H        1.66580336       7.25051000       3.43664371      -0.00076650      -0.01591686      -0.00749208
H        4.97322104       5.80887302       1.13013442       0.00516344      -0.01135285      -0.00175083
H        2.81559030       5.38626078       2.26995263       0.00300358      -0.01424249      -0.00671235
C        3.14655036       1.88630504       1.50230059      -0.00213632       0.00119033       0.00251497
C        2.19722362       1.80084380       2.53228501       0.00499900       0.02379093       0.01131830
C        2.73161346       2.40857617       0.24270928      -0.00470966      -0.00650704       0.00058709
C        4.56136635       1.44432280       1.69032556      -0.00458255      -0.00597242       0.00150613
C        0.84346176       2.13232742       2.28200440       0.00570829       0.02821746       0.01471472
C        1.44091547       2.93518183       0.05650043      -0.00346725      -0.00376502       0.00192760
C        0.47425877       2.74578549       1.05323307       0.00125955       0.01319379       0.00928382
H        2.46119888       1.28331653       3.44623561       0.00745399       0.03937251       0.01863293
H        3.43630260       2.41527392      -0.57907052      -0.01111199      -0.02249221      -0.00480082
H        5.20966389       2.32128886       1.76404616      -0.00505880      -0.00724474       0.01775389
H        4.68384679       0.86745793       2.60485983      -0.00963546      -0.01909572      -0.00653523
H        4.90159306       0.84649365       0.84324996      -0.00217023       0.00613223      -0.00583085
H        0.08795886       1.90022903       3.02018734       0.00892588       0.04363542       0.02227252
H        1.15327276       3.30365702      -0.91833218      -0.01013846      -0.02108014      -0.00207714
H       -0.56695090       2.95672572       0.84607255       0.00119776       0.01553938       0.01291965
C        7.55960230      10.91843034      10.81684965      -0.00310421       0.00345521       0.00259716
C        7.84238290       9.55869366      10.95743155      -0.00167140       0.00366226       0.00135404
C        6.22139277      11.30911416      10.75630421      -0.00395934       0.00166014       0.00295765
C        8.66880884      11.91995255      10.70855551      -0.00491050       0.00493178       0.00401916
C        6.81981772       8.62118386      11.01745811      -0.00013895       0.00249750       0.00047992
C        5.19354955      10.37564886      10.82196800      -0.00277974       0.00056073       0.00241026
C        5.49055467       9.02453902      10.94791819      -0.00104448       0.00065231       0.00121493
H        8.87581363       9.23736731      11.02370225      -0.00099286       0.00506687       0.00103712
H        5.98463903      12.36351345      10.65839484      -0.00520839       0.00128785       0.00363183
H        8.34644396      12.90581829      11.04452058      -0.00790406       0.00526716       0.00006203
H        9.53390653      11.62305472      11.30024752      -0.00649276       0.00796360       0.00801206
H        8.99095747      12.01502657       9.66781122      -0.00103538       0.00271149       0.00491238
H        7.06494494       7.57083431      11.12958533       0.00116646       0.00259215      -0.00077200
H        4.16046144      10.69907418      10.78073531      -0.00262995       0.00019678       0.00327383
H        4.68975896       8.29810523      11.01146421       0.00041783      -0.00050817       0.00080441
