146
Lattice="12.423703336954972 0.0 0.0 0.0 12.423703336954972 0.0 0.0 0.0 12.423703336954972" Properties=species:S:1:pos:R:3:forces:R:3 energy=-144731.0 stress="-0.00036647834349423647 0.00017986135935643688 0.0004398962337290868 0.00017986135935643688 -0.0007996809436008334 0.00012824253644794226 0.0004398962337290868 0.00012824253644794226 0.00043933786218985915" pbc="T T T"
Mn      10.60617849      11.91231786      -0.58659753      -0.00588131      -0.01110369       0.00741434
S       11.42706784       1.08226650       6.12834707      -0.00275058       0.00251943      -0.00914967
S       10.35201553       0.34021987       1.77565133      -0.02344245      -0.02589479       0.02890211
S       10.46224881       2.20665098       4.49056258      -0.00735089       0.00403646      -0.00597891
S       11.50654820       1.75748834       2.84403270      -0.01236573       0.00087088      -0.00743154
O       12.84696429       1.33755212       5.96782796      -0.00071371      -0.00190371      -0.01836027
O        9.34867530      -0.23721247       2.61085994       0.02828667      -0.02452342       0.01572111
O       11.03053200      -0.30030903       5.97911564      -0.00885433       0.00884163      -0.00158407
O       10.76919178       1.82263344       7.19444356       0.00888836       0.01164103      -0.00428581
O        9.82992521       0.93591583       0.47769427      -0.03419587      -0.03149831       0.01618078
O       11.40019141      -0.58642576       1.20541933       0.00657113      -0.00171148       0.00130481
O        4.12305903       3.72823707       5.67775873       0.00214935      -0.00042075       0.00045922
C        2.79700141       3.21215452       5.67596507       0.00326502      -0.00317764       0.00258704
C        5.06454142       2.73629725       6.03463061       0.00465143       0.00279140       0.00283215
C        1.83363197       4.33830243       5.40569443       0.00102234      -0.00665659      -0.00373847
C        6.44712558       3.33833177       6.02165989       0.00343156       0.00542605      -0.00180271
H        2.70157968       2.42371510       4.91746620       0.00515327      -0.00720555       0.00671560
H        2.57517545       2.74335991       6.64314446       0.00388910       0.00143275       0.00507522
H        4.82268905       2.34642910       7.03596209       0.00710884       0.00627835       0.00477666
H        4.99426866       1.89068198       5.33232889       0.00523087       0.00002953       0.00621846
H        0.81212663       3.96177494       5.44870403       0.00188777      -0.00866848      -0.00227294
H        1.95107335       5.11966033       6.15663963      -0.00082408      -0.00232668      -0.00795457
H        2.01200067       4.77846313       4.42350103       0.00057018      -0.01182656      -0.00610523
H        7.19493555       2.59149047       6.29336781       0.00551619       0.00755833      -0.00161726
H        6.69668178       3.71274505       5.02827537       0.00032304       0.00320129      -0.00339895
H        6.50140873       4.15901139       6.73691720       0.00357691       0.00739898      -0.00413804
O        9.78935530      11.70560704       9.95068723       0.00165793       0.01192872       0.01270621
C       10.07403401      10.46698878      10.58977078      -0.00072563       0.00072439      -0.00656322
C        8.39220578      11.93215100       9.56476512       0.00379232       0.02225286       0.01142859
C       11.56849292      10.28077176      10.62421204      -0.00078067       0.00055709      -0.00901699
C        8.33234224      12.18659979       8.08347564       0.01047593       0.01079632       0.00952345
H        9.63779185      10.51056709      11.68410411      -0.00045767      -0.01569965      -0.00696322
H        9.49617711       9.62175536      10.19631349      -0.00114299       0.00790605      -0.02171972
H        7.81318332      11.05177921       9.86335190      -0.00539023       0.03149319       0.02060385
H        8.04477266      12.78721500      10.14584765       0.01392028       0.03090268       0.00449549
H       12.07711468      11.04379147      11.28465613      -0.00072053       0.00615630      -0.01638038
H       11.83254544       9.30959244      11.04392555       0.00083792       0.00224823      -0.00654931
H       11.99195779      10.42238594       9.63178766      -0.00422463      -0.00328372      -0.01121685
H        7.31185347      12.45749813       7.80700501       0.01085655       0.00054728      -0.00106460
H        9.00429719      12.99772219       7.80685449       0.00672263       0.01300982       0.00717442
H        8.62697735      11.30783815       7.50901302       0.02267968       0.00845104       0.01967184
O        5.75994865       4.87704400       9.23427596       0.00424765      -0.00461744      -0.00158337
C        6.75953016       4.47967333      10.15780689       0.00192398      -0.00622964       0.00008231
C        4.79644929       5.73209844       9.81999212       0.00299758      -0.00524220      -0.00274834
C        7.73259582       3.56096412       9.46208453       0.00337675      -0.00487417       0.00043842
C        3.70604253       6.00699047       8.81340369       0.00454512      -0.00560525      -0.00450781
H        7.27629995       5.36849565      10.55043649       0.00094411      -0.00701517       0.00318909
H        6.28825019       3.97752713      11.01576142      -0.00012660      -0.00795943      -0.00205261
H        4.38124422       5.26102726      10.72356565       0.00182471      -0.00576684      -0.00362685
H        5.28011785       6.66728204      10.14414848       0.00202084      -0.00512931      -0.00179483
H        8.49467785       3.21682468      10.16250180       0.00204127      -0.00598911       0.00141238
H        7.20948441       2.69170774       9.06192036       0.00418833      -0.00413157      -0.00214409
H        8.23047466       4.06634300       8.63414715       0.00496215      -0.00339527       0.00236909
H        2.98890494       6.72082114       9.22119658       0.00342234      -0.00621450      -0.00547729
H        4.12275333       6.42568121       7.89780400       0.00589667      -0.00521797      -0.00365251
H        3.18137530       5.08763329       8.55381331       0.00556038      -0.00582063      -0.00566442
O        3.79424846      10.27130452       7.70362858       0.00011569       0.00619030      -0.00103392
C        5.19536660      10.40937657       7.67427489       0.00008568       0.00707042      -0.00174769
C        3.13238875      11.53110291       7.75709694      -0.00115931       0.00555539      -0.00417417
C        5.82578694       9.03948800       7.71598738       0.00077614       0.00737935      -0.00037121
C        1.65537553      11.29200115       7.92218354      -0.00036961       0.00441036       0.00102162
H        5.50547727      10.95526112       6.76949180      -0.00054450       0.00605255      -0.00249684
H        5.52264525      11.00787399       8.53823970       0.00008942       0.00833479      -0.00262299
H        3.53283202      12.10743324       8.60443018       0.00027750       0.00946487      -0.00759009
H        3.34275738      12.10258075       6.84209824      -0.00450254       0.00229040      -0.00695640
H        6.91317512       9.11904910       7.70256138       0.00072706       0.00796217      -0.00020954
H        5.52476392       8.50667147       8.61856207       0.00079332       0.00789135      -0.00001389
H        5.51718546       8.44636128       6.85455849       0.00120918       0.00662755      -0.00001836
H        1.13563716      12.23711931       8.07593717      -0.00141498       0.00433415      -0.00235763
H        1.22110560      10.81842286       7.04143519      -0.00183190      -0.00098716       0.00462705
H        1.50265271      10.64343772       8.78601871       0.00289823       0.00882689       0.00492409
O        0.96098377       9.27519084       5.14664419      -0.00512362      -0.00104545       0.00366647
C        1.95756113       9.91003698       4.36480402      -0.00563038      -0.00177121       0.00237390
C        1.47838855       8.17580410       5.87232422      -0.00517854      -0.00191459       0.00212151
C        1.35472097      11.11927982       3.69577336      -0.00550354      -0.00155419       0.00262962
C        0.39777921       7.66032022       6.78987124      -0.00482637      -0.00300048       0.00187910
H        2.79386020      10.20426619       5.01982849      -0.00470704      -0.00233011       0.00138453
H        2.35802121       9.19626727       3.62905343      -0.00689189      -0.00225687       0.00213772
H        1.80596301       7.39035966       5.17465070      -0.00563273      -0.00116104       0.00101545
H        2.35760471       8.49713926       6.44969420      -0.00479585      -0.00289592       0.00214612
H        2.11016449      11.63670131       3.10049548      -0.00577147      -0.00242533       0.00163901
H        0.53819192      10.83362769       3.03329810      -0.00633191      -0.00124110       0.00355759
H        0.96340620      11.81385556       4.43821871      -0.00414747      -0.00072736       0.00253087
H        0.77442474       6.83715908       7.39825445      -0.00516193      -0.00479047      -0.00036906
H        0.06112949       8.46039191       7.45151978      -0.00361351      -0.00434396       0.00409813
H       -0.46338257       7.29951546       6.22915280      -0.00556903      -0.00091900       0.00176319
O        9.52865983       6.44842976       7.36141989      -0.00147247      -0.00447553       0.00086569
C        9.32124952       7.04226874       8.62379136      -0.00364509      -0.00171964      -0.00087976
C        8.64693622       6.96640853       6.38061674       0.00109571      -0.00521085      -0.00187188
C       10.29839037       6.45755243       9.61580623      -0.00368947       0.00271174       0.00169694
C        8.97002409       6.33547500       5.05012968       0.00417700      -0.00619555      -0.00062591
H        9.46053902       8.13320756       8.53587713      -0.00525521      -0.00179023      -0.00368824
H        8.28181740       6.87246643       8.94882292      -0.00368756      -0.00245646      -0.00146860
H        7.60833635       6.75373057       6.67659438       0.00030333      -0.00458390      -0.00427149
H        8.75577040       8.06119544       6.32859383       0.00155998      -0.00531805      -0.00234796
H       10.12273696       6.86479141      10.61409982      -0.00451635       0.00630108       0.00007528
H       10.18745838       5.37435239       9.66419008      -0.00262763       0.00278619       0.00551117
H       11.32345844       6.67982704       9.31744629      -0.00375180       0.00255068       0.00147871
H        8.28309149       6.69868578       4.28336913       0.00514172      -0.00756629      -0.00211181
H        9.98584207       6.58417651       4.74180423       0.00443134      -0.00543612       0.00084371
H        8.88322572       5.25042156       5.10907507       0.00541116      -0.00624213       0.00037047
O        4.50390683       8.42998915       2.54498448      -0.00033277       0.00082648       0.00162619
C        4.62880670       9.76374714       2.08632973      -0.00060305       0.00194165       0.00483668
C        5.20935824       8.19978037       3.75172534      -0.00057299      -0.00110561       0.00133136
C        3.76459152       9.93293775       0.86004259      -0.00105736       0.00533021       0.00569969
C        4.98616794       6.77001858       4.17755753      -0.00118908      -0.00148726      -0.00046818
H        4.31945111      10.46121444       2.87750205      -0.00046842      -0.00016218       0.00677288
H        5.68180225       9.98748146       1.85920485      -0.00079572       0.00261887       0.00507064
H        6.28092788       8.40231686       3.59991974      -0.00052977      -0.00131042       0.00174893
H        4.85354456       8.89927060       4.52304179      -0.00040075      -0.00192812       0.00213826
H        3.85467802      10.94762505       0.47208291      -0.00010150       0.00625549       0.00845729
H        4.06325889       9.23535676       0.07606116      -0.00190552       0.00714643       0.00382137
H        2.71773428       9.74760261       1.10241016      -0.00110514       0.00556584       0.00558566
H        5.54374721       6.54191852       5.08653635      -0.00112504      -0.00284764      -0.00088927
H        3.93256911       6.57918516       4.37558026      -0.00121474      -0.00124747      -0.00051732
H        5.31336375       6.07916421       3.39991775      -0.00159252      -0.00054418      -0.00144474
O        9.37050302       7.83748898       1.12204073       0.00614067       0.00760719      -0.00549670
C       10.39185270       8.61476123       1.73817506       0.00345391      -0.00068516       0.00973087
C        8.12814157       8.50927189       1.07313221       0.00453925       0.00560099       0.00381006
C       11.65717649       7.79630630       1.79222079       0.00251213      -0.00225279       0.00627416
C        7.08072540       7.54243713       0.57969865       0.00662926       0.00831059      -0.00611082
H       10.54666880       9.53789140       1.16727775       0.00696030       0.00628704       0.02198669
H       10.07508506       8.91863491       2.74445040      -0.00184870      -0.01317012       0.01149738
H        7.87469031       8.89725962       2.06927555       0.00477143      -0.00720151       0.00859720
H        8.19542810       9.38605348       0.40962903       0.00171670       0.01414552       0.01481327
H       12.46562290       8.39415526       2.21391800       0.00070888      -0.00805894       0.01793951
H       11.52490228       6.91244584       2.41628022      -0.00163692      -0.00970949      -0.00521661
H       11.94546823       7.46433600       0.79310162       0.00782519       0.00975063       0.00392814
H        6.12511180       8.04256996       0.43318015       0.00484639       0.00694570       0.00074462
H        7.39706720       7.09672868      -0.36426344       0.00673766       0.01951611      -0.01134355
H        6.92645052       6.74009874       1.29984266       0.01012300      -0.00004615      -0.01465198
O        7.64305859       2.84460055       2.34436569      -0.00327832      -0.00211334      -0.00636698
C        7.83240401       4.19307030       1.96700563      -0.00780976      -0.00262815      -0.00929818
C        6.27569541       2.48402290       2.34923646      -0.00233436      -0.00553375      -0.00197294
C        9.30523526       4.50420276       1.91257263      -0.00871098       0.00071514      -0.01585281
C        6.15768511       1.03247121       2.74143910       0.00218475      -0.00554496      -0.00126287
H        7.36298299       4.37011097       0.98657995      -0.01230288      -0.00525748      -0.00772870
H        7.32353770       4.85091125       2.69052115      -0.00634524      -0.00242203      -0.00844112
H        5.71883970       3.12555646       3.04965468      -0.00163066      -0.00653145      -0.00047225
H        5.84551550       2.65369211       1.34914956      -0.00570346      -0.00688306      -0.00080401
H        9.45252821       5.54073624       1.60986428      -0.01189674      -0.00008887      -0.02016199
H        9.76284045       4.35811450       2.89118372      -0.00453775       0.00564475      -0.01709127
H        9.80749680       3.84798541       1.20252520      -0.00996586      -0.00101952      -0.01514578
H        5.10586777       0.74622726       2.79643554       0.00304267      -0.00832387       0.00031103
H        6.66650810       0.39678846       2.01789613       0.00259170      -0.00437629      -0.00197926
H        6.62312326       0.86401462       3.71256348       0.00400348      -0.00400146      -0.00187269
