150
Lattice="12.062388213257732 0.0 0.0 0.0 12.062388213257732 0.0 0.0 0.0 12.062388213257732" Properties=species:S:1:pos:R:3:forces:R:3 energy=-218646.84375 stress="-0.0006478760624304414 0.0003828650515060872 -3.690381345222704e-05 0.0003828650515060872 -0.00037369487108662724 -3.027880211448064e-05 -3.690381345222704e-05 -3.027880211448064e-05 0.0009476159466430545" pbc="T T T"
Mn      12.43173966      12.09607562       1.14947064       0.00180644       0.00374453      -0.00269864
O       11.06081679      11.47513802       2.09223559       0.00333777       0.00365889      -0.00403577
O       12.20204234       9.35393025       3.88001484       0.01373845      -0.01276624      -0.00886680
O        9.75507105      10.72486724       4.60124602       0.01482147      -0.00472014      -0.01428854
O       12.25263411      12.07540351       4.69280215       0.00305545      -0.00264335      -0.00265759
Mo      11.33958038      10.86626096       3.84691386      -0.02203897       0.01572713       0.00005049
O        7.69962272       9.82410991       2.73848158      -0.00681552      -0.02208674      -0.01594806
C        7.45008924      10.95632495       1.90555714       0.00920489      -0.01112740       0.01825660
C        7.05390305      10.47498762       0.52667397       0.00726140       0.00022227       0.00943452
H        6.65573021      11.57288025       2.34655463       0.00562340      -0.01635039       0.02087823
H        8.35137594      11.57561664       1.84178229       0.00520557      -0.00949988       0.01998442
H        6.76931027      11.31873241      -0.10552178       0.00732660       0.01034138       0.01719870
H        7.88463476       9.95202715       0.05121551       0.00588045       0.00789896       0.00446126
H        6.21282274       9.78106790       0.58872980       0.00648619       0.00341600       0.00125298
H        8.26206270      10.11541457       3.47840540       0.02610262      -0.01606509       0.01903667
O        2.67351991       8.39878884       4.19225180      -0.00564492       0.01335174      -0.02347514
C        3.25361093       9.44054682       4.96278859       0.00279063       0.00735444      -0.00739518
C        4.75597792       9.28389505       4.93286529      -0.00100446       0.01378617       0.00273570
H        2.96122826      10.42009367       4.56224535      -0.00027046       0.01030135      -0.00414211
H        2.88838557       9.40732716       5.99938735      -0.00963719      -0.00180455      -0.01265305
H        5.24961164      10.13834282       5.39817465      -0.00700375       0.00701368       0.01350209
H        5.05873214       8.37553217       5.45758980      -0.00205433       0.00617985      -0.00492702
H        5.11733779       9.22087139       3.90468931       0.00817543       0.02201281       0.00317551
H        1.72070649       8.61392561       4.10631146       0.01730507       0.00400762      -0.01967531
O        7.13545872       1.37226185       7.20103065       0.00115081      -0.01055372      -0.00861746
C        6.90651244       0.89874630       8.52751932      -0.00616378      -0.00487494      -0.00890648
C        5.44849071       1.06692859       8.87004635      -0.00569212       0.00624192      -0.01346845
H        7.20089809      -0.15263473       8.60708709      -0.01285566      -0.00637180      -0.00412071
H        7.51553752       1.47421427       9.23310488      -0.00412229      -0.00675127      -0.00823566
H        5.26774925       0.71637924       9.88744997      -0.01076888       0.01267584      -0.01226962
H        5.16237780       2.11849371       8.82095211       0.00094295       0.00760463      -0.01977760
H        4.82112904       0.49909401       8.18041312      -0.00778922       0.00669385      -0.01225381
H        8.03921590       1.06556447       6.96110322       0.00126652      -0.01717946      -0.00516894
O        8.06164214       7.29215994       1.14684338      -0.00251788       0.03644609       0.01850760
C        9.44618822       7.00346676       1.25413035      -0.01004988       0.01120178       0.01237577
C       10.29428695       8.25137035       1.35721237       0.01683614      -0.00566924      -0.00883950
H        9.63559695       6.35632222       2.12392068      -0.01492253       0.01795530       0.01861447
H        9.71057674       6.42875336       0.36325401      -0.02892398      -0.00490516       0.01721630
H       11.35434853       8.01741231       1.46542391       0.01205207      -0.02601654      -0.01033349
H       10.15109877       8.89391992       0.48639274       0.02581825      -0.01369773      -0.01620550
H        9.99619156       8.81896281       2.23791458       0.03461692       0.01124626      -0.01480141
H        7.87761361       8.04169182       1.73542264       0.01365420       0.04259752       0.02134064
O       12.01852750       1.89741406       1.50664803      -0.00001010       0.00596710      -0.00745237
C       11.19647125       2.32883600       2.65092055       0.00715026       0.00121310       0.00243780
C       11.36904357       3.80443909       2.88723843      -0.00243639       0.00424588      -0.00540984
H       10.16502828       2.05073372       2.43095300       0.00737900      -0.00641482       0.01063375
H       11.56372190       1.72597756       3.48024903       0.01733151       0.00712730      -0.00017452
H       10.69646522       4.12025285       3.68535567       0.00151107       0.00139149      -0.00030608
H       12.38979472       4.03924544       3.18662312      -0.00215787       0.01396717      -0.01467060
H       11.11631930       4.39063688       2.00002850      -0.01463936      -0.00112700      -0.00460084
H       11.78241196       2.44432213       0.74612678      -0.00834724      -0.00129870      -0.00102812
O        6.53335964       1.40682073       4.52286842      -0.01152086       0.01504725      -0.00189513
C        7.66821595       2.19010177       4.20855373      -0.00616783       0.00630653      -0.00677007
C        7.47388829       2.78910610       2.83350587      -0.00309183      -0.00069903      -0.01029629
H        7.79549480       2.98598330       4.95622980      -0.00293942       0.01095381      -0.01147398
H        8.58198585       1.57661354       4.23619975      -0.01052278       0.00210944      -0.00231402
H        8.28805163       3.46935917       2.57550800       0.00054756      -0.00626158      -0.01365889
H        7.41675759       2.01699196       2.06536224      -0.00558494      -0.00528942      -0.00576162
H        6.54724773       3.36225140       2.80490182      -0.00008154       0.00321781      -0.01486643
H        6.54471888       1.25607987       5.48676444      -0.00597518       0.01077278      -0.00368886
O        1.13772658       3.82363466       9.20419703      -0.00186953      -0.00998677      -0.02988791
C        2.28144210       3.37564767       9.93258580       0.00007991       0.00377187       0.00809903
C        2.27962834       1.87567894      10.13517097       0.00031113       0.00277376       0.00343952
H        3.20093549       3.69604260       9.43360334      -0.00115323       0.00294174       0.00017691
H        2.23643656       3.88833748      10.89536665      -0.00279674       0.00355400      -0.00255263
H        3.15138793       1.57261458      10.71465247      -0.00139502       0.00682586       0.00944638
H        1.37561145       1.57194118      10.67338991      -0.00153093       0.00292237       0.00151683
H        2.29950492       1.34859130       9.17821644       0.00553061       0.00039345       0.00639237
H        1.21457510       3.48292441       8.30770151      -0.00427006       0.00514528       0.02332163
O        3.40971806       1.90029191       1.30469715       0.00799799      -0.00321534       0.00893191
C        3.40216433       2.42239417       2.64658025      -0.00432994      -0.00389008       0.00713176
C        3.43285531       1.33868694       3.70049127      -0.00841334      -0.00343114       0.00786117
H        4.24494453       3.10775563       2.77011643      -0.01044276       0.00122547       0.01576876
H        2.48718081       3.01100959       2.72577569      -0.00944826      -0.00937283      -0.00195461
H        3.50187133       1.79175063       4.69139751      -0.01919977      -0.00315157       0.00845648
H        2.52413517       0.73407726       3.67765157      -0.00498484      -0.00792928       0.00067056
H        4.31404389       0.70860425       3.58169565      -0.00421326       0.00135062       0.01498380
H        4.32923584       1.74666885       1.06398859       0.01570365      -0.00675240       0.01907378
O        5.64736940       5.39569690       6.39094528      -0.00206482       0.01087186       0.00230551
C        5.32018074       5.33036352       5.00783176       0.00185810      -0.00073899       0.00200725
C        6.39316513       5.93453194       4.12044683      -0.00013834       0.00016230       0.00042486
H        5.12984446       4.28969213       4.71201704       0.00862965      -0.00357646       0.00883409
H        4.38340396       5.88165525       4.90320842      -0.00136063      -0.00675231      -0.00359769
H        6.11520974       5.87869115       3.06496560       0.00080922      -0.00411884       0.00032635
H        6.56849559       6.98090695       4.37204333      -0.00398804       0.00148125      -0.00341112
H        7.33552891       5.39334450       4.23245839       0.00182311       0.00384493       0.00265776
H        6.51987240       5.00064534       6.51770259       0.00187954       0.01912704       0.00641368
O        9.55888888       0.44930006       6.76353889      -0.00389796      -0.01880556       0.01308703
C       10.60420546       1.28358618       7.25174866      -0.00190103      -0.01973920      -0.01225549
C       10.92101062       0.92654453       8.68961920      -0.00106875      -0.00186783      -0.00717610
H       11.48411109       1.19132180       6.61054904      -0.00503215      -0.02553752      -0.00918773
H       10.25193628       2.32286144       7.21039150      -0.00290850      -0.01839030      -0.02138350
H       11.60940196       1.65762421       9.11696341       0.00559568       0.00095040      -0.01667479
H       10.00528205       0.93013132       9.28230293       0.00275694       0.00903203      -0.00293886
H       11.36912043      -0.06625275       8.75101761      -0.00291263      -0.00356016       0.00329914
H        9.81396961      -0.10184832       5.99990704      -0.00789747      -0.01998715      -0.01235009
O        8.58553538       3.84675594       9.53288545       0.00626308      -0.00356117       0.00011837
C        9.61942862       4.26872352      10.42112629       0.00462192      -0.00102168       0.00025495
C       10.43603314       5.41924594       9.87884723      -0.00086072       0.00433540       0.00338942
H        9.16220698       4.54273825      11.38007106       0.00438383      -0.00575772       0.00167191
H       10.26504384       3.40042558      10.59458449       0.00857133       0.00129902      -0.00279393
H       11.24281150       5.67362856      10.56810477      -0.00284693       0.00695672       0.00481887
H       10.90481854       5.14912338       8.93265401       0.00087737       0.00883222       0.00297786
H        9.81533957       6.30551829       9.73550388      -0.00528707       0.00139479       0.00542379
H        8.47771982       4.49633079       8.81561280      -0.00151279       0.00209981       0.00552532
O        8.47026201       5.49837528       7.18727964      -0.02960998       0.01547980       0.01595300
C        8.37251354       6.94803313       7.15001883       0.00371024       0.00521327       0.00257882
C        9.39287598       7.55855141       6.22273252      -0.00239787       0.00157554      -0.00050983
H        7.35426451       7.16265842       6.82923439      -0.00237930       0.01351134       0.00687866
H        8.48421028       7.33103455       8.16621688       0.00487988       0.01051307       0.00336975
H        9.28099015       8.64288419       6.18630793       0.00651561       0.00011286      -0.00288929
H       10.41258874       7.34820827       6.55694102      -0.00057822      -0.00669082      -0.00549993
H        9.27677994       7.18532808       5.20290696      -0.00861896      -0.00090340      -0.00064497
H        9.33579909       5.25616503       6.84561430       0.00555760      -0.00231800      -0.00403650
O        4.36119338       7.42014555       0.96766688      -0.00402719      -0.00602076      -0.00068691
C        2.97778463       7.08112382       1.03963764      -0.00371668      -0.00493345      -0.00405803
C        2.75090773       5.75921078       1.73705618      -0.00774429      -0.00346714      -0.00259632
H        2.41495783       7.86889493       1.54918278      -0.00494567      -0.00324103      -0.00680745
H        2.63919938       7.03443513       0.00081391      -0.00101840      -0.00605540      -0.00467458
H        1.68736806       5.51044256       1.74177986      -0.00777614      -0.00301643      -0.00731855
H        3.29642911       4.95725554       1.23898652      -0.00597690      -0.00470504       0.00097010
H        3.07982484       5.82294993       2.77670544      -0.01221896      -0.00226884      -0.00139357
H        4.67907385       7.52614007       1.87108038      -0.00601427      -0.00311015       0.00071582
O        6.77322167       9.44880784       9.16647097       0.00503236      -0.02011147       0.01905453
C        5.42589475       9.46154618       8.69882890       0.00725007      -0.00306594       0.00840646
C        4.72695374       8.13880258       8.91908982      -0.00830516       0.00357407      -0.00016066
H        4.86496807      10.27403439       9.17843576       0.01384860       0.00102708       0.01009828
H        5.49057559       9.69924655       7.63719717       0.01559820       0.00043992       0.01118010
H        3.70770070       8.16901842       8.52855705      -0.00590648       0.01717669      -0.00492363
H        5.25588667       7.32613291       8.42035758      -0.01534380       0.00011334      -0.00194452
H        4.67449649       7.91658667       9.98723487      -0.01643850      -0.00101546      -0.00182700
H        6.75592781       9.23104282      10.10331081      -0.00156143      -0.02721377       0.01137535
O        1.10335558      10.29473665       0.64794700       0.00153226       0.00528800       0.00230563
C        2.23439858      11.17434570       0.84925784       0.00266504       0.00080012      -0.00237179
C        3.45618172      10.47214533       1.38484885      -0.00075170      -0.00351727       0.00215903
H        2.43079564      11.75421825      -0.06332472       0.00660295      -0.00054812      -0.00015236
H        1.95260068      11.88011933       1.72006524       0.00260806       0.00205091      -0.00220694
H        4.23810363      11.20371823       1.58492305      -0.00027962      -0.00482924       0.00822563
H        3.21823728       9.94132505       2.30709743      -0.00521741      -0.00635341      -0.00133145
H        3.82483640       9.75042591       0.65730962       0.00148025      -0.00091973       0.00103450
H        1.04071137      10.04014292      -0.28189334       0.00201168       0.00165440      -0.00741434
O        6.59185222       3.07467009      11.36528242       0.00552744      -0.00564563      -0.00092602
C        5.65007737       4.10496640      11.63580787       0.00680524      -0.00450003       0.00219122
C        5.56004488       5.14692402      10.54409103       0.00776277      -0.00264600       0.00363821
H        4.67599377       3.62212514      11.77313168       0.00678527      -0.00313920       0.00271334
H        5.89850548       4.60045261      12.58438793       0.00888821      -0.00621545       0.00250781
H        4.73552806       5.82703011      10.75685691       0.00908664      -0.00150919       0.00583880
H        6.47156032       5.74575694      10.49514525       0.00852075      -0.00393935       0.00339451
H        5.39313456       4.69014490       9.56618893       0.00580515      -0.00094014       0.00327457
H        7.19962150       3.37973396      10.66858270       0.00575705      -0.00566415       0.00090454
