147
Lattice="17.434193091959507 0.0 0.0 0.0 17.434193091959507 0.0 0.0 0.0 17.434193091959507" Properties=species:S:1:pos:R:3:forces:R:3 energy=-1496874.375 stress="-0.0004063167725689709 -0.00020537829550448805 0.00026304709899704903 -0.00020537829550448805 -0.0003533991111908108 0.00017964626022148877 0.00026304709899704903 0.00017964626022148877 -0.0007257272955030203" pbc="T T T"
Mn      18.07788536      16.88685908      -1.74332740       0.00821251      -0.02193981      -0.00720328
S        1.68331387      17.68129649       7.43643059      -0.00184023      -0.00006044       0.00595784
N        0.25679557      16.38362634       9.47557008       0.00515199       0.01724088      -0.01519156
C        0.85932633      16.93615342       8.62737212      -0.01940994      -0.00964445       0.02395853
S       15.31254004      16.84762633      12.25243767      -0.01850009       0.04331595       0.00426662
N       16.67025755      17.23793848      14.62891432       0.00864619      -0.01473319      -0.00281441
C       16.06598643      17.06359283      13.60662985      -0.00226575       0.01019883      -0.00125623
Cl       8.02300604      10.45866582       7.27308981      -0.01114359       0.01252276      -0.00336066
Cl       8.67757281      12.75951495       8.91382369      -0.00084522       0.00418696       0.00308549
Cl       9.27734515      12.79144398       6.08260144       0.00469103       0.00715765       0.00394833
Cl      10.78905534      11.07317464       7.85886700      -0.00884819      -0.00502068       0.00334325
C        9.19076295      11.76826030       7.53120867      -0.00406319       0.00487794       0.00174568
Cl       5.35498491       7.88368566       6.54003514      -0.00259960       0.00577328       0.00190055
Cl       3.34660024       6.93688673       4.67139518       0.00701445       0.00062287      -0.00532491
Cl       5.59170133       5.24118597       5.38730211       0.00465162       0.00379181       0.00869890
Cl       6.00697369       7.58041793       3.73234086       0.01096079       0.00042778       0.00566190
C        5.07624648       6.91001745       5.07267390       0.00524906       0.00273973       0.00271180
Cl       5.09199476      17.60905529       9.21046095       0.00771743       0.01223779      -0.01358011
Cl       4.83610668      14.73079147       8.96262548       0.00379634       0.01173693      -0.00067699
Cl       7.01104057      15.85946801      10.51697943       0.00088462       0.01602980      -0.00025281
Cl       7.00231122      16.10899488       7.62269558       0.00931028       0.00238458      -0.00065842
C        5.97635067      16.07782283       9.07285669       0.00521195       0.01059781      -0.00387642
Cl      13.99745690      13.03980899       6.53435236      -0.00099621       0.00366367       0.01042482
Cl      13.93510253      12.28584503       9.33290025      -0.00313750      -0.00008515       0.00882319
Cl      12.47437195      14.62288534       8.41849900      -0.00565553      -0.00144741       0.01062656
Cl      15.37286594      14.66428321       8.52624512      -0.00616592       0.00334814       0.01361542
C       13.95814461      13.65838584       8.20996033      -0.00387083       0.00142658       0.01100554
Cl      14.74746298       9.81855082      14.76504794      -0.01197428       0.00109260      -0.00742429
Cl      17.56533113       9.23915670      14.40639716      -0.00800398       0.00927662       0.01070079
Cl      15.96001831      10.08532444      12.14522492       0.00411631       0.00583515       0.00135195
Cl      15.56832791       7.45222441      13.29777645       0.00374095       0.00492060      -0.00295739
C       15.96342391       9.15444260      13.64944946      -0.00281355       0.00556685       0.00045566
Cl       8.31574636       5.52386008       9.44036197       0.00253855      -0.00701663      -0.00058730
Cl       5.66775120       4.36699469       9.22077889       0.00146711      -0.00442104       0.00569890
Cl       7.78111584       2.89997521      10.55811412      -0.00079646       0.00193548       0.01626498
Cl       7.86903278       3.26816867       7.68252066      -0.00008659      -0.01753128       0.01394701
C        7.40597094       4.00925087       9.22769977       0.00115386      -0.00602546       0.00869021
Cl      12.24130203       6.26884746       1.72289375      -0.00043780      -0.00433618      -0.00740506
Cl      13.98283409       6.72283811      -0.55552068       0.00078040      -0.00677986      -0.00680459
Cl      14.71703167       7.73742943       2.06403421       0.00004146      -0.00678509      -0.00662860
Cl      12.51833016       8.93090248       0.61227988       0.00565034      -0.00555697      -0.01440614
C       13.36197963       7.41460750       0.96328877       0.00080764      -0.00596668      -0.00755834
Cl       6.72192251      10.61078145      11.25080566      -0.00773394       0.01192640       0.00664186
Cl       5.61236090       8.18718316      10.12307805       0.00291506       0.01023316      -0.00057514
Cl       4.82081350      10.77051742       9.06069132      -0.00798915       0.00950432       0.00711754
Cl       3.93142074       9.96672943      11.69304878      -0.00431496      -0.00234211       0.00448275
C        5.27862184       9.88654073      10.52960260      -0.00409836       0.00750460       0.00442495
Cl      10.39728380       1.71841388       2.67933333      -0.00605752       0.00218149      -0.00255793
Cl       8.37081499       3.08835415       4.22971337      -0.00164396       0.00460637       0.00367442
Cl      11.12243638       3.99391821       4.32719320       0.00071220       0.00002715       0.00244037
Cl      10.37867150       1.48600200       5.57172127      -0.00493791      -0.00023723      -0.00298591
C       10.06954518       2.57811336       4.19483189      -0.00263720       0.00225083      -0.00143090
Cl      12.16473875      13.95577473      13.73876384       0.00039226       0.00838742      -0.00057051
Cl      10.97886996      14.85689628      16.23788693       0.00466594      -0.00628123       0.00618240
Cl      11.94449197      16.79064698      14.30731076      -0.00697516       0.00494570       0.01289043
Cl      13.83074601      15.15486094      15.78856088       0.00229108       0.00362688      -0.00013050
C       12.23151772      15.18843733      15.02118184       0.00010676       0.00284045       0.00436560
Cl      15.70620853      11.17480121       0.31980332      -0.00531609      -0.00402818       0.00898734
Cl      14.48664022      11.46725777       2.93873793       0.00351265      -0.01510452       0.01299590
Cl      16.69406126      13.17867165       2.16478151      -0.00094534      -0.00852966       0.01479547
Cl      17.16621027      10.36622025       2.68448607       0.00389960      -0.01007751      -0.00014265
C       16.01032725      11.53661274       2.02213364       0.00042736      -0.00877131       0.00890278
Cl      15.46913798       4.13017360       1.44736313      -0.00032642      -0.00810176      -0.00319406
Cl      16.85626319       2.38984201       3.29358771      -0.00215590      -0.00436118       0.00133017
Cl      14.00818846       2.06706305       2.83010371      -0.00094491      -0.00641358      -0.00155536
Cl      14.98898622       4.36564094       4.30105555      -0.00396585      -0.00370637      -0.00459048
C       15.33643070       3.24729354       2.96747870      -0.00186888      -0.00556052      -0.00204334
Cl      17.17783923      15.30964284      -0.61097159       0.01490413      -0.03345264      -0.02498842
Cl      15.18241196      15.74890289       3.98993965      -0.00717139      -0.00133383       0.01403558
Cl      13.79343166      17.42157406       5.85496817      -0.00345981       0.00443605       0.01131892
Cl      16.67936521      17.21844508       5.97191069      -0.00384218       0.00248250       0.00667775
C       15.22835207      16.80890664       5.27474758      -0.00497952       0.00210534       0.01065482
Cl       7.70255461      10.60244942       3.42767303      -0.00111875       0.00794847      -0.00770122
Cl      10.27257332      11.25257567       2.26282830       0.00461751      -0.00104374       0.00055659
Cl       9.05635421       8.64568390       1.78488295       0.00022327       0.00267768      -0.00006488
Cl      10.11617228       9.30449899       4.39698842      -0.01299857       0.00442874       0.00820708
C        9.29139390       9.94554638       2.96791106      -0.00124062       0.00323784      -0.00042406
Cl       9.39488828       3.03657875      14.22644540      -0.00098321       0.00796366      -0.00932473
Cl      10.93643104       4.39118087      12.16978709       0.01144856       0.00912602       0.00192201
Cl      10.96953407       5.38143281      14.89221629       0.00907195      -0.00426999       0.00654054
Cl       8.56883972       5.64373200      13.26837267       0.01488823       0.01586324       0.00078112
C        9.96761577       4.61375576      13.63588227       0.00863343       0.00772808      -0.00024458
Cl       3.56033310      10.60429304       2.09202853      -0.00078572       0.00510339       0.00097698
Cl       2.72157076       9.30062718      -0.35846725      -0.00697409      -0.00229880       0.00744268
Cl       4.77824842      11.34045870      -0.43252221      -0.00187650      -0.00811006      -0.00278932
Cl       2.02465757      12.07512444       0.10460264       0.00060281       0.00110713      -0.00289734
C        3.26853739      10.83589065       0.35240816      -0.00234363      -0.00102981       0.00061242
Cl       9.85995722       8.28366751      10.81282286      -0.00970048       0.02620099      -0.03067844
Cl      10.96332117      10.83225819      11.61884480       0.02135193      -0.00117606       0.00899163
Cl      12.61713735       8.93143713      10.17858254       0.00442487      -0.00755828      -0.00142971
Cl      11.84617741       8.39384633      12.91462111      -0.02435869      -0.02825969      -0.01434577
C       11.32333113       9.11060736      11.38497650      -0.00215221      -0.00296100      -0.00949141
Cl       2.15290771       6.06571914      15.51975402      -0.00127545      -0.00582124      -0.00854170
Cl       0.42626272       6.64597984      17.77225597      -0.00204459      -0.00961471      -0.00884008
Cl       1.80508085       4.09745868      17.62240802       0.00349389      -0.00636071      -0.00850655
Cl      -0.37418020       4.67667966      15.80007816       0.00216588      -0.01172666      -0.00796734
C        1.00886111       5.37605632      16.68495405       0.00056079      -0.00829330      -0.00866335
Cl       2.01285802      14.32208190       5.11208113       0.01015107       0.00180393       0.00999567
Cl       1.57602177      13.59134569       7.87506522       0.00139437       0.00123207       0.00621718
Cl       2.82653689      11.69554325       6.05347786       0.00084507      -0.00164130       0.00659600
Cl       0.01085074      12.33257696       5.79639858       0.00305253       0.00544292       0.00213896
C        1.60427369      12.98161080       6.21730408       0.00388463       0.00105995       0.00647833
Cl      10.72895300      10.98691139      15.57973396       0.00083989      -0.00178375      -0.00944037
Cl       8.51352609       9.45706165      14.50498798      -0.00667231       0.00060385       0.00335409
Cl       8.61675316      12.33257548      14.11205821       0.00128765      -0.00173464      -0.00902823
Cl       8.09094816      11.25155031      16.74168081       0.00507045       0.01112016      -0.00320187
C        8.98630639      11.00164874      15.23321316       0.00002559       0.00189178      -0.00461128
Cl       5.80653914       4.43248888      -1.42754560      -0.00069852       0.00295022      -0.00679842
Cl       6.60370871       4.58937340       1.35744261      -0.01668413      -0.00449619      -0.00215057
Cl       5.26752896       6.83719788       0.09886668       0.00641012       0.00514400      -0.00811679
Cl       7.99075970       6.16789540      -0.63146021       0.00593889      -0.01300596       0.00744402
C        6.41579887       5.51041905      -0.14990792      -0.00127226      -0.00231479      -0.00244471
Cl       3.59596736       4.09320882      12.40436606       0.00202057      -0.00562021      -0.01264909
Cl       2.27816596       4.68919299       9.88976719       0.00082227       0.00021652      -0.01061526
Cl       2.56475100       6.74904870      11.91373390       0.00110523      -0.00485864      -0.00648825
Cl       0.72395943       4.54666103      12.32259280       0.00259960      -0.00672584      -0.01003106
C        2.28941645       5.02629047      11.63368239       0.00165291      -0.00429116      -0.00985115
Cl       7.54203360      14.07828046       3.05404980       0.00076985       0.00301412      -0.01035246
Cl      10.04946908      15.38679797       3.68193519      -0.00166160       0.00606379      -0.00943989
Cl       7.55199982      16.85117519       3.90107601      -0.00398530       0.00085109      -0.00439973
Cl       8.58528449      16.12408666       1.28779034      -0.00471717       0.00855082      -0.00656524
C        8.42625302      15.60857232       2.98129108      -0.00250141       0.00466262      -0.00768135
Cl       2.70053601      15.32566112       1.91589279       0.01909007      -0.00767762       0.00914336
Cl       4.20119328      15.24399027      -0.53619819       0.01282864      -0.00838048       0.00572333
Cl       4.69776581      17.34955866       1.37371486       0.00066567       0.00571902      -0.00593415
Cl       2.08522373      17.47280113      -0.19556541      -0.00184196      -0.02462265       0.00251555
C        3.53401672      16.25318213       0.71159920       0.00844800      -0.00750530       0.00251797
Cl       2.39385390       3.26881033       5.52227844      -0.00346538       0.00239438       0.00611395
Cl       3.88237835       3.03011824       3.04888474      -0.00426853       0.00680536       0.00566632
Cl       2.35055054       0.77369630       4.03982608       0.00069994       0.00362834       0.00330679
Cl       4.76365457       1.60118296       5.41925612      -0.00126159       0.00703251       0.00437063
C        3.34548419       2.17857499       4.51297350      -0.00215870       0.00492078       0.00492996
Cl      11.74739383       5.06573133       8.62381724       0.00000864      -0.00493518      -0.00490036
Cl      14.16350834       6.19954168       7.47973097      -0.00110818      -0.00422820      -0.00419530
Cl      13.97724110       3.34006368       7.93479144       0.00022340      -0.00179332      -0.00614844
Cl      14.18919327       5.15513482      10.18693420       0.00174440      -0.00454820      -0.00333381
C       13.51349491       4.94111768       8.55307301       0.00027540      -0.00337169      -0.00302184
Cl       1.88309114       1.42210887      14.15133755       0.01282847      -0.01126453       0.00575787
Cl       1.95103135      -1.46859837      14.28137580       0.01411763      -0.01211450      -0.00693002
Cl       4.22005328       0.09836914      13.00837238       0.00825626      -0.00721289      -0.00938303
Cl       1.66898966      -0.08901125      11.64110385       0.00319582      -0.00021098       0.00070885
C        2.49182072       0.09279279      13.13162718       0.00901923      -0.00687359      -0.00224006
Cl      -0.35991472       7.53935179       9.51922506      -0.00314894       0.00333577       0.00281152
Cl      -0.24641639       8.50694289       6.78703428      -0.01435983       0.00831670       0.00450760
Cl       2.20508251       8.03597946       8.25766309      -0.00862169       0.00687161      -0.00609903
Cl       0.50377144      10.25677810       8.97675295      -0.00690517       0.00461888       0.00425875
C        0.52612003       8.58159135       8.39142703      -0.00837394       0.00578362       0.00130372
