149
Lattice="11.684829470790275 0.0 0.0 0.0 11.684829470790275 0.0 0.0 0.0 11.684829470790275" Properties=species:S:1:pos:R:3:forces:R:3 energy=-100834.796875 stress="0.0020161992870271206 -5.679535570379812e-05 -0.0004549818258965388 -5.679535570379812e-05 0.0007941316580399871 -0.00023631473595742136 -0.0004549818258965388 -0.00023631473595742136 0.0017619862919673324" pbc="T T T"
Mn      11.94411696       9.78299200       0.73577918      -0.00682837      -0.00256205       0.00374906
O        1.63126003      10.97962815       0.33053716      -0.00375670      -0.00856847       0.00638021
O        2.09099022       9.26457782       1.48485690      -0.00799724       0.00709897       0.00507992
O        3.73113113      10.67645146       0.99735453      -0.01723930      -0.00837962       0.00594433
N        2.56518415      10.32599463       0.94698237       0.00328529      -0.00491760       0.00971577
O        7.40700287      12.41201324       2.99883595       0.00294596       0.01768315       0.01498306
O        7.77762379      11.05517172       4.65201207      -0.00183943      -0.01400366      -0.01187265
O        8.69770952      10.68583865       2.71706033      -0.01635605       0.01083291      -0.02345872
N        7.95202515      11.39188759       3.46505811      -0.00649854       0.00763814      -0.00794405
N        8.99207597       7.66891175      11.24067402      -0.01431183      -0.00323758      -0.00152385
H        8.90849906       7.51315308      12.23956025      -0.02523644       0.00199161      -0.00185351
H        9.88865526       7.27516996      10.97390360      -0.01106914      -0.00398388       0.01073688
H        8.30043660       7.05316097      10.79970703      -0.00988097      -0.00598316      -0.00558601
N        2.59783789       5.89294431       2.05549225       0.00129312       0.00513240      -0.00144902
H        2.08595109       5.68862785       2.90942402       0.00573864       0.00312974       0.00114602
H        2.53983021       6.89562497       1.91711164       0.00511484       0.00455149       0.00251769
H        3.56812726       5.67288472       2.27435616       0.00232900       0.00008299      -0.00686257
N        6.60978100       3.87784732       7.67376651       0.00553017      -0.00240853      -0.01570913
H        7.50769896       3.82297077       7.19103984       0.00710897      -0.00286457      -0.01293406
H        5.91824893       4.15445088       6.98483744       0.00565425      -0.01015110      -0.01913837
H        6.36805778       2.93107581       7.95016657       0.00794551      -0.00080746      -0.00821697
N        3.81947927       7.97364632      -0.72917031      -0.00217217       0.00800821      -0.00038442
H        3.89284199       6.96835123      -0.62024651      -0.01095257       0.01168455       0.00743474
H        3.94398564       8.35664147       0.20075956       0.01618027       0.01787556      -0.00679244
H        4.63049784       8.27723876      -1.26608927      -0.00537351      -0.00281344      -0.01448255
N        7.42342025       6.91410237       6.37690590      -0.00515924       0.00091901      -0.00010334
H        6.98617023       6.30963064       5.68688259       0.00654987       0.00263657      -0.00886488
H        7.34550047       6.40861005       7.25445586       0.00654470      -0.01387311      -0.00803173
H        8.41253882       6.91986944       6.14889952      -0.00613486       0.02540733      -0.00124372
N        0.51196500       3.57562088      10.02011924      -0.00222184      -0.00151965       0.01067707
H        0.59067088       2.69017584       9.51343497       0.00738237       0.00032461       0.00855720
H       -0.25562501       3.44225290      10.67071036      -0.00790047      -0.00699786       0.00242586
H        1.34372715       3.64292213      10.59868613      -0.00787167       0.00177924       0.01862832
N        1.68169070       8.80136940       5.39186766       0.01194994       0.00193128      -0.01059171
H        0.69677594       9.05055941       5.48532762       0.01116572      -0.00205764      -0.00969609
H        1.93959995       8.93947364       4.42049848       0.00840000      -0.00709035      -0.01225968
H        2.19344589       9.49810449       5.92490691       0.01039186       0.01038460      -0.01868023
N       10.11272580      10.39461135       0.05352674      -0.00177282      -0.00380559      -0.01017583
H       10.12020886      11.09313481      -0.68615244       0.00637908      -0.01022619      -0.01520830
H        9.60685601       9.56720693      -0.30398140      -0.00250539      -0.00261527      -0.00578371
H        9.52685247      10.76939692       0.80331919      -0.00346008       0.00557508      -0.01766306
N       -0.06324329      10.63253870       2.55366257      -0.01130518       0.00763927       0.00015008
H        0.49089332      11.50760209       2.65154246      -0.01364252       0.00855860      -0.00383697
H       -1.04191170      10.85232271       2.75063326      -0.01315504       0.00746480      -0.00726123
H        0.22645558      10.02709146       3.31863301      -0.01389531       0.01488122       0.00413659
N        4.47851598       2.12566013       1.94742599       0.00064117       0.00983545      -0.00386842
H        5.33253445       1.61408543       2.14413904       0.00049623       0.00536731      -0.00991003
H        4.69285482       3.10941349       2.07885032       0.00369749       0.00654518       0.00033943
H        4.27478062       2.00074867       0.95827856      -0.00221960       0.01409797      -0.00527396
N        9.37328003       3.79656614       5.79054712      -0.00219267       0.00488380       0.00727966
H        8.76055113       3.78763566       4.98308725       0.00594865       0.01408478       0.00110333
H        9.97695555       2.97959259       5.70695030      -0.00637665       0.00147742       0.00777555
H        9.98327501       4.60921226       5.69567177       0.00206492       0.00272679       0.01951500
N        3.71017134       1.35378407      10.42484025       0.01044461       0.00089471       0.00910943
H        2.78186590       1.33844549      10.01371269       0.00888328       0.00150754       0.01783194
H        3.79616545       0.49409054      10.95576717       0.01393057      -0.00301354       0.00930678
H        4.36141459       1.29143422       9.64858207       0.00490487       0.00165328       0.00712628
N        0.01251072       5.90499093       5.06871795       0.00474959       0.01685238       0.02239404
H       -0.38332996       6.17090460       4.17174844      -0.00349511       0.03642385       0.03228687
H        0.64442766       5.12255100       4.89494030      -0.00931628       0.01047014       0.00243492
H        0.61609044       6.68351131       5.32480753       0.01995805       0.00292927       0.02641040
N        2.61596805       4.01278715       4.60099292       0.00063485       0.00543992       0.00234812
H        3.17899783       4.83464837       4.80352618      -0.00373513       0.00599569       0.01116065
H        3.09073817       3.52497468       3.84841364       0.00711968       0.01170091       0.00206158
H        2.69313547       3.42792936       5.43350913      -0.00117491       0.00007210      -0.00117609
N       10.33527778       7.87619547       2.79934805      -0.00566433       0.00224134      -0.00059646
H       11.10221430       7.91818844       2.12812984       0.00759776       0.02303192       0.01742670
H        9.76335238       8.71192026       2.73011666      -0.01241617      -0.00145139       0.00332048
H        9.77321370       7.09002303       2.49327600       0.00990611       0.00092529      -0.02416871
N        2.86601449       5.75357331       8.76233733      -0.00272751      -0.00682572       0.00573909
H        2.82309953       6.72268116       9.05805508      -0.00438740      -0.00366420      -0.00486808
H        3.36716968       5.25588716       9.49045145       0.00800240       0.00346293       0.00537720
H        1.91635326       5.39465417       8.79692596      -0.00045456      -0.01111036       0.01907474
N        4.62562389      11.01950955       4.15487229      -0.00217557      -0.00500121      -0.01046085
H        4.32159865      10.88075280       3.19670740      -0.00155769      -0.00463624      -0.01397066
H        5.05147111      10.14973236       4.45516365       0.01004440       0.00157749      -0.01702793
H        5.38973957      11.68606909       4.10145721      -0.01552019       0.00753446      -0.00787441
N       10.88229329       6.29925564       8.96724347       0.00950104       0.00042835       0.00985450
H        9.88020420       6.13110502       8.94028679       0.00931273       0.00367076       0.00283809
H       11.30072273       5.39120137       9.18951240       0.00523251      -0.00162476       0.01051589
H       11.14310329       6.48047008       8.00079624       0.01630254       0.00159296       0.01212665
N        5.34934246       0.52729791       7.46439613      -0.00188423      -0.00248685      -0.00022291
H        4.43687080       0.11806388       7.27147794      -0.00173281      -0.00340120      -0.00051710
H        5.89026812      -0.19670759       7.92186137       0.00017981      -0.00356352      -0.00400596
H        5.78768998       0.66310150       6.55851601      -0.00353944       0.00217581      -0.00001243
N        5.56065065       5.14126697       3.48730898       0.00611684      -0.00684824      -0.00414149
H        5.89571218       4.25753009       3.85252591       0.00789219      -0.00664866      -0.00472074
H        5.14224675       5.64648750       4.27190072       0.00012454      -0.01023938      -0.00586493
H        6.36323829       5.67662560       3.17119769       0.00570249      -0.00348405       0.00019851
N        1.49836986       1.47345610       2.86506115      -0.00473875       0.01081049      -0.00160165
H        2.50794249       1.41735072       2.69613108      -0.00485472       0.00569773      -0.00453725
H        1.40976782       1.80563424       3.82132236       0.00121029       0.01339384      -0.00263622
H        1.20621988       2.26296070       2.29580623      -0.00213360       0.01096140      -0.00197535
N        9.29306358       1.41791049       8.41046078       0.00826232      -0.01482631       0.01560979
H        9.51493882       2.16156835       7.75386748       0.00894007      -0.02098273       0.00916585
H        8.89934808       1.87762442       9.23478059       0.00407859      -0.00783265       0.00972786
H        8.54057818       0.89632966       7.97402625       0.01142665      -0.02153540       0.01789603
N        6.84385681       8.03484065       3.02232879       0.01452740      -0.00362155       0.00938998
H        7.14383884       8.88425839       2.55506352       0.01755480      -0.00257741       0.01236282
H        6.98183911       8.20793511       4.01374780       0.00807689      -0.00421456       0.00981542
H        5.84196520       7.96247225       2.88199212       0.01493544      -0.00264035       0.00293897
N        3.08922418       2.91051870       7.47210821       0.00039525      -0.00765988       0.00342795
H        3.28758553       3.88935627       7.65483873      -0.00839425      -0.00657246       0.00530245
H        3.92167558       2.37242792       7.69123789       0.00444868      -0.00135693       0.00518691
H        2.36868524       2.62547051       8.12636122       0.00079045      -0.01581519       0.00069330
N        6.72700849       9.19997980       9.46902583      -0.02058908      -0.01091877       0.00400363
H        6.59764836      10.17675377       9.70504820      -0.02336061      -0.00942734       0.00033234
H        6.94764699       9.15269496       8.47963745      -0.02228490      -0.01490995       0.00455827
H        7.55679543       8.89048116       9.97116315      -0.01966043      -0.00656630       0.00495505
N       10.20472526       9.28669492       5.82864050       0.00458735      -0.01052433      -0.02316324
H        9.99805565       9.02428259       6.78601743       0.00595158      -0.01073715      -0.02293788
H       10.23479378       8.43085878       5.28104011       0.01116016      -0.01009039      -0.02329055
H        9.39654233       9.80417476       5.48775924       0.00203044      -0.01480872      -0.02408452
N       11.28206889       5.34017067       1.01887491      -0.00390498       0.01126122      -0.00342458
H       12.26529290       5.23150979       1.26335626      -0.00483852       0.01673362       0.00167513
H       11.25818675       5.43962367       0.01043310       0.00043352       0.00432920      -0.00435815
H       10.80609374       4.46727857       1.23098900      -0.00112215       0.01015116       0.00004166
N        8.25220618       3.01494171      10.96519552       0.00169504       0.00378530       0.00193763
H        8.76695314       2.98546685      11.84269267       0.00542004       0.00614698      -0.00015942
H        7.29147495       2.77402617      11.18095838       0.00320917       0.00113651       0.00710351
H        8.23917991       3.98037050      10.65364366      -0.00271298       0.00332102       0.00086432
N        6.78255518       5.96132131       9.96272752      -0.00979137      -0.00961401      -0.00777576
H        6.32499053       6.81522565       9.65859340      -0.01168880      -0.00988993      -0.00636027
H        6.30338337       5.65657754      10.80199205      -0.01264666      -0.01486840      -0.01133551
H        6.64060267       5.24276289       9.24437071      -0.00429565      -0.00672083      -0.01190942
N       10.57374169       0.88984278       5.31546171      -0.01198646       0.00069207       0.00539191
H       10.86087132       0.88896712       4.34250617       0.00560459       0.00578525       0.01073847
H        9.56437369       0.77302281       5.30284960      -0.01093208      -0.00419186      -0.01264355
H       10.91435370       0.01526382       5.70653392      -0.01333891       0.00200438       0.00901801
N        9.91043711       2.33384036       2.03826951       0.00224004       0.00526938       0.00011304
H        9.07275001       1.77851252       2.20672611       0.00046226       0.00660251       0.00031200
H       10.14402602       2.77205172       2.92387567       0.00208582       0.00485361       0.00017273
H       10.66441629       1.68686870       1.83482384       0.00087458       0.00374383       0.00117071
N        0.68685871       8.78342508      10.66502343      -0.00148860      -0.00778880       0.00855237
H        0.65219025       9.44314570       9.88904917      -0.00552422      -0.01067048       0.00673249
H        0.12163906       7.98855810      10.35249547       0.00132412      -0.01056802       0.01194309
H        1.66109126       8.45328515      10.69365326      -0.00117588      -0.00201981       0.00962520
N        4.20139611       6.74722160       5.92662415      -0.00753810      -0.01335818      -0.00161201
H        4.96677068       7.38705394       6.11713075      -0.00293810      -0.01797102      -0.00330526
H        3.94587349       6.33573302       6.82387318      -0.00373381      -0.01600558      -0.00152956
H        3.39338400       7.31341524       5.67141041      -0.00579249      -0.00799299       0.00533130
N        0.64412661       0.67332353       8.89395426       0.01658949       0.00066394       0.00260065
H        1.15954108       0.17924893       8.17123676       0.01385679       0.00323860      -0.00191437
H       -0.34160770       0.73902275       8.62681778       0.01538663      -0.00168874       0.00842788
H        0.70525949       0.14018477       9.75267330       0.02312600      -0.00168214       0.00050952
N        2.36738395       0.18424714       6.15231761       0.00008963       0.00164117      -0.00785273
H        2.41211150       1.18380001       6.34264043       0.01748634       0.00020470      -0.00482102
H        1.46246363       0.01007897       5.73161114      -0.00380703       0.01791709      -0.00424029
H        3.06629700      -0.02017729       5.43082983      -0.00515949      -0.00764075      -0.01108817
