146
Lattice="12.392884417220811 0.0 0.0 0.0 12.392884417220811 0.0 0.0 0.0 12.392884417220811" Properties=species:S:1:pos:R:3:forces:R:3 energy=-494480.125 stress="-0.00023793902073521167 0.0002485768491169438 -0.00026116690423805267 0.0002485768491169438 -0.0004953402676619589 4.2142695747315884e-05 -0.00026116690423805267 4.2142695747315884e-05 0.00014305100194178522" pbc="T T T"
Mn      12.25873046      10.48079113       0.14984755      -0.01005584       0.00260498      -0.00734807
I        2.91316453      12.49689530       8.73978823      -0.00579576      -0.00739969       0.03386372
I        4.61310207      12.26126730       6.26587831      -0.02432766       0.02799439       0.01067922
O        1.66727716       5.64693750       6.84899985      -0.00482351       0.00271633       0.00969328
C        2.63512704       7.80008923       6.69103812      -0.00531523       0.00286633       0.00025514
C        3.69512203       6.81066356       7.17656555      -0.00401843       0.00409865       0.00134486
C        1.35827306       7.03391984       7.01258759      -0.00570995       0.00358921       0.00035322
C        3.08840016       5.48289665       6.74932773      -0.00527617       0.00235158       0.00856357
H        2.68660293       8.77215358       7.18246861      -0.00563258       0.00320607      -0.00469762
H        2.72457892       7.96572745       5.61413737      -0.00513439      -0.00121335      -0.00189546
H        4.68292338       6.98346161       6.74956405      -0.00581773       0.00247168       0.00148126
H        3.79590400       6.86870627       8.26189618      -0.00414466       0.00824167       0.00278053
H        1.05632743       7.21157867       8.05563814      -0.00703698       0.00898196       0.00049043
H        0.51544365       7.27779086       6.36016366      -0.00389823      -0.00014229      -0.00063565
H        3.34862828       5.24824443       5.70930401      -0.00644241      -0.00071205       0.00812334
H        3.38689431       4.63578529       7.37162842      -0.00436392       0.00525099       0.01029941
O        4.10374180       1.43588836       1.67414333      -0.00589389      -0.00271401      -0.00532222
C        2.59545088       3.14914944       2.32681040      -0.00283974      -0.00182748      -0.00100911
C        3.37468267       2.67252134       3.55177290       0.00054684      -0.00340223      -0.00386530
C        2.84533321       2.02700944       1.32402909      -0.00736418      -0.00282145      -0.00017206
C        4.57742786       2.01202572       2.89937085      -0.00145158      -0.00126445      -0.00813660
H        1.53453997       3.31137707       2.51616586      -0.00283247      -0.00235030       0.00339014
H        3.03151488       4.08100449       1.96775231      -0.00536491      -0.00242725      -0.00253570
H        3.66615920       3.48545542       4.21418478       0.00286556      -0.00207606      -0.00400238
H        2.80437811       1.94596099       4.13459709       0.00282170      -0.00239384      -0.00263001
H        2.06645989       1.25538853       1.38211220      -0.00714475      -0.00270137       0.00303315
H        2.89235367       2.37557685       0.28800558      -0.01131260      -0.00339915      -0.00142431
H        5.35074820       2.75952052       2.67731686      -0.00227007      -0.00268167      -0.01040536
H        5.01705791       1.21535181       3.50683733       0.00162180      -0.00260749      -0.00889465
O        2.70136767      10.29459175       3.37715876      -0.02334487      -0.02635972       0.03418438
C        0.79042730      10.38153229       1.98541618       0.01055235      -0.00833131      -0.01372433
C        0.47453497      11.06316069       3.31876058      -0.00694597      -0.00784451      -0.01977709
C        2.06738990       9.60011058       2.31422360       0.01241827      -0.00175193      -0.00295821
C        1.87667304      11.39439095       3.80383394      -0.01498389      -0.01136102       0.00337733
H       -0.03800860       9.65132908       1.65328920       0.02501047      -0.01753968      -0.02040252
H        1.03914093      11.18911984       1.18987271       0.01236328      -0.01610333      -0.01676470
H       -0.18280222      11.92564708       3.22945902      -0.00562811      -0.01139426      -0.03122028
H        0.00237235      10.34102358       3.99237580      -0.01841301      -0.00570506      -0.02529803
H        1.79809338       8.58939435       2.65131441       0.01838955      -0.01331306      -0.03459549
H        2.73674103       9.50323572       1.45437051       0.03338885       0.02498012       0.01543286
H        2.24726683      12.31648491       3.34157008       0.00191148      -0.02079093       0.00011131
H        1.97741133      11.48617994       4.88442441      -0.03503268      -0.00086224       0.00456077
O        5.76877199       8.30020666       9.21504784       0.00209957       0.00846565       0.00679439
C        7.17860659       9.83804657       8.05970018       0.00023949       0.00395969      -0.00182998
C        8.00497857       8.85941716       8.89596963       0.00233895       0.00788808       0.00039271
C        5.75921973       9.59322861       8.57627592       0.00133967       0.00645408       0.00216302
C        7.03608582       7.69430381       9.01051740       0.00260037       0.00811301       0.01026710
H        7.48123452      10.88070498       8.15100265       0.00088435       0.00380057      -0.00677449
H        7.24833008       9.57173172       7.00211196      -0.00220712      -0.00130324      -0.00071269
H        8.95232337       8.58678738       8.43118779       0.00027911       0.00485440      -0.00198271
H        8.20785446       9.26600609       9.89094508       0.00668236       0.01309887      -0.00280142
H        5.45587043      10.33136009       9.32321003       0.00400648       0.00910488       0.00077799
H        5.01483918       9.60458732       7.77779882      -0.00055954       0.00358544       0.00415421
H        7.03313671       7.10865274       8.07677846       0.00187448       0.00117755       0.01445365
H        7.22526710       7.02464813       9.85085539       0.00337325       0.01447937       0.01488808
O        5.72084147       6.41329903      11.90125009      -0.00479579      -0.00293738       0.01304710
C        3.56625390       5.55191338      11.47887809      -0.00193304       0.00413972      -0.00506003
C        4.59066122       4.68981024      10.74307207       0.00271922      -0.00263244       0.00730699
C        4.36147508       6.83185536      11.68343427      -0.00191623      -0.00244543       0.00954720
C        5.86266721       5.04507744      11.50164518      -0.00229555      -0.00106496       0.01132005
H        2.64472268       5.71041604      10.91865474       0.00294551       0.00278147      -0.00744373
H        3.31645066       5.09476135      12.43947272      -0.01038345      -0.00079939      -0.00351894
H        4.37067021       3.62239061      10.75742619       0.00060309       0.00255862       0.00116131
H        4.66291641       5.01277273       9.70083971       0.01049360       0.00264882       0.00440326
H        4.33289575       7.46935909      10.79584675       0.00460704       0.00221586       0.00544167
H        4.04246502       7.41700774      12.54786084      -0.00636728      -0.00266454       0.00339872
H        5.96934094       4.41723260      12.39632434      -0.01193082      -0.00351068       0.01573926
H        6.77018339       4.94952929      10.89959676       0.00000536      -0.00492195       0.02296346
O       11.06034269       9.65515316      11.19692264      -0.02645344       0.01038449       0.00254221
C       11.77905031       9.83512615       8.89822559       0.01110667       0.00282224       0.01974165
C       11.10183043      11.13454666       9.34864760       0.00503576       0.00359225       0.00082093
C       11.57469819       8.86120797      10.06332652      -0.00986050       0.00613642       0.01554339
C       11.15890253      11.06330135      10.86822093      -0.02569804       0.00732015       0.00049611
H       11.33499930       9.45010005       7.97992798       0.03811677       0.00221224       0.01118699
H       12.83986528      10.00671190       8.70979474       0.01458585       0.00293775       0.03919746
H       11.59831770      12.01960493       8.95491164       0.00761296       0.00116943       0.00487246
H       10.05414751      11.17430262       9.04720428       0.00463137       0.00407744      -0.01851271
H       10.80844042       8.11117338       9.87461211      -0.01283869       0.00677845       0.00040088
H       12.49378878       8.37370639      10.38834323      -0.02318016       0.00158364       0.02864399
H       12.23497863      11.45876745      11.16626852      -0.03003088       0.01301771       0.01669616
H       10.38326868      11.60803940      11.41096092      -0.03293486       0.00008555      -0.01310699
O       10.79494741       5.32356289       5.17724161       0.00186244       0.00508250      -0.01272883
C        9.02655262       5.47154895       6.74773149       0.01275265       0.00650708      -0.00105509
C        9.20771613       6.81943590       6.05127632       0.01128463       0.00720137       0.00008681
C       10.34892318       4.77839960       6.43283341       0.00858539       0.00285728      -0.01139469
C        9.94308907       6.39811683       4.78974992       0.00274077       0.00822312      -0.00568584
H        8.84158511       5.55583615       7.81788374       0.01873880       0.00407026      -0.00045434
H        8.18533446       4.92851389       6.30649316       0.00855678       0.00960657       0.00171883
H        8.27369274       7.34202700       5.84757514       0.01277372       0.01094311       0.00823562
H        9.84445007       7.47305909       6.65322162       0.01867934       0.00369829      -0.00251988
H       11.10558626       5.00181039       7.19321945       0.01465756       0.00085570      -0.01538891
H       10.26438206       3.69433369       6.33232685       0.00619320       0.00501233      -0.01227291
H        9.22850937       6.05268204       4.02661414      -0.00471419       0.00976244      -0.00080937
H       10.55724391       7.18786680       4.34978204      -0.00000024       0.00570661      -0.00895824
O        9.17533275      11.29010755       2.05988694       0.01678815      -0.00055283      -0.03592568
C        8.05729267       9.58199270       0.93157222      -0.01302569      -0.00056553      -0.00184083
C        6.99708644      10.59121538       1.37286085      -0.00060791       0.01016252       0.00034529
C        9.15010981       9.87100247       1.94272798       0.00227039      -0.00084451      -0.01949140
C        7.84468820      11.79234153       1.80713373       0.01348054       0.00262696      -0.00793988
H        7.71422658       8.54717891       0.93074967      -0.02201188       0.00407907       0.01003497
H        8.42291551       9.82006070      -0.07118416      -0.02260737      -0.01532942      -0.00811040
H        6.28152849      10.84660124       0.59257672      -0.00106418       0.01479802       0.00404300
H        6.43355341      10.19738050       2.22067125       0.00003454       0.01990160       0.00590134
H        8.92195926       9.40790575       2.91615123       0.00807516       0.01271507      -0.01275972
H       10.14576946       9.54244970       1.62898266      -0.00694424      -0.01441081      -0.02411753
H        7.92111980      12.54707348       1.01843449       0.00239172       0.00898096      -0.00175461
H        7.45902747      12.27388531       2.70964531       0.03432053       0.00108926      -0.00167465
O        4.86501759       5.50178980       2.67672088       0.00486773      -0.00370154       0.00358692
C        4.85882509       7.83641517       3.05771732       0.00606810      -0.00194091      -0.00113931
C        6.11401390       7.22584575       3.67617310       0.00622648      -0.00222751      -0.00137544
C        3.97706521       6.60601394       2.90387621       0.00547795      -0.00287968       0.00206716
C        6.21590974       5.92448792       2.89598525       0.00529508      -0.00419146       0.00150415
H        4.39886085       8.62063904       3.65550316       0.00775337       0.00037810      -0.00205050
H        5.09931641       8.25173831       2.07540874       0.00597239      -0.00605369      -0.00328687
H        6.99965827       7.85389343       3.57553418       0.00685109      -0.00274250      -0.00343403
H        5.95121370       7.02587531       4.73948129       0.00717114       0.00001970      -0.00105497
H        3.39784394       6.41531208       3.81613328       0.00694136      -0.00040178       0.00349838
H        3.27749296       6.67105588       2.06683824       0.00448129      -0.00465607       0.00338066
H        6.69847261       6.09187916       1.92530216       0.00401996      -0.00547737       0.00008833
H        6.73945861       5.12676936       3.42839882       0.00552571      -0.00249535       0.00183272
O        8.35039641       0.94009262       8.30821502       0.00785434      -0.00533354       0.01495183
C        7.15621191       1.99716035      10.04245293      -0.01188797      -0.01361141      -0.00642997
C        7.25416534       2.96739283       8.86595650       0.01863415      -0.00463271      -0.00070499
C        8.31148672       1.05884155       9.72969101      -0.00826538      -0.00633404       0.00949317
C        7.58890681       2.01834590       7.72314340       0.01475057      -0.01076674       0.00678769
H        7.25276576       2.47056361      11.01949478      -0.01707581      -0.00416043       0.00285925
H        6.20635100       1.45654934      10.00561523      -0.00333029       0.00008577      -0.01074503
H        6.33651752       3.52580281       8.68467036       0.01007625       0.00095532      -0.01078578
H        8.06497283       3.68194162       9.03378865       0.00394481      -0.01121776       0.00683984
H        9.26175695       1.48257359      10.09031760      -0.00935543      -0.01119736       0.02273721
H        8.19082614       0.06013930      10.16064115      -0.01229800      -0.00805297       0.01077004
H        6.67622587       1.59968424       7.29022032       0.02437615      -0.00595424      -0.00521357
H        8.18350901       2.46892866       6.92540095       0.02767390      -0.00936939       0.00832388
O        9.75640242       2.06636508       4.04793627      -0.00268207      -0.00099325      -0.00151518
C        9.26239595       3.48182584       2.21017001      -0.00300017      -0.00725909      -0.00569963
C       10.77677909       3.42301819       2.41304050      -0.00318888      -0.00506771      -0.00531346
C        8.75096602       2.95219249       3.54740404      -0.00211108      -0.00090766      -0.00247842
C       10.90904519       2.12818552       3.19985293      -0.00189109      -0.00314218      -0.00139898
H        8.88934182       4.48120800       1.98759975      -0.00350922      -0.00758424      -0.00940846
H        8.96209766       2.81754715       1.39549240      -0.00339091      -0.01024178      -0.00185618
H       11.33987841       3.40904117       1.48009924      -0.00343525      -0.00889407      -0.00635329
H       11.11148753       4.26359149       3.02238118      -0.00316738      -0.00369874      -0.00936803
H        8.62075418       3.76968789       4.26668917       0.00075778       0.00178704      -0.00557157
H        7.80400089       2.41092610       3.46836308      -0.00268310       0.00043511       0.00094789
H       10.90638765       1.26049030       2.52574102      -0.00227724      -0.00495780       0.00104696
H       11.79831884       2.08625607       3.83327048      -0.00245005      -0.00071862      -0.00193614
