147
Lattice="13.195343590753817 0.0 0.0 0.0 13.195343590753817 0.0 0.0 0.0 13.195343590753817" Properties=species:S:1:pos:R:3:forces:R:3 energy=-258140.734375 stress="0.001203738385811448 0.0004169916792307049 -0.0002178727590944618 0.0004169916792307049 0.0013734552776440978 -0.00020556456001941115 -0.0002178727590944618 -0.00020556456001941115 0.0015731037128716707" pbc="T T T"
Mo      14.35055668      13.78892557      -0.91199240      -0.00119783      -0.00592783       0.00235254
F       11.20511500       2.18375642       2.77351923      -0.00107726       0.00501055      -0.00358473
F        7.40908928      12.32575733       0.21295317       0.00158164       0.00065805      -0.00604716
F        2.01583591       1.39126999      13.66666028      -0.00600170      -0.00530636       0.00623763
F        0.14417999      -0.63580559      -0.00725028      -0.00361438      -0.00789276       0.00050255
F        5.33371112       9.40847974       3.34757077       0.00277251       0.00058407       0.00560471
F       13.20557153       0.82487870      10.87385024       0.00116450      -0.00775596       0.00082690
O        9.83331717       2.09211010      11.00583800       0.01131552      -0.00950065       0.00640875
O        9.89166178       1.61210448      13.16475143      -0.01419850      -0.02092998       0.00430796
O        8.89173062       0.20664763      11.73856630       0.00229600      -0.01336259      -0.01430637
C       10.65323011       3.14955038      11.57763968       0.00023350      -0.00926575       0.02247220
C       10.51312421       2.92710694      13.08631027      -0.01229942      -0.02079022       0.01969528
C        9.50601952       1.23891234      11.96354840      -0.00003770      -0.01452091      -0.00269173
H       10.24536435       4.10014104      11.24347720      -0.00237480      -0.00894511       0.02629237
H       11.66381707       3.01093673      11.19468911       0.00415778      -0.00003264       0.02971047
H       11.42834670       2.87223311      13.67513626      -0.01858962      -0.02772329       0.02968812
H        9.84181473       3.63886215      13.56355362      -0.01469222      -0.02253380       0.01957840
O       11.50098872       7.94094636       6.32530445      -0.01216307       0.00297665      -0.00402130
O        9.92404442       7.21607690       4.93727695      -0.00550154      -0.00399235      -0.00827488
O        9.34898872       8.48367744       6.70480886      -0.01636308      -0.00759357      -0.00794578
C       12.21031785       7.25089370       5.27451145      -0.00632644       0.00677092      -0.00288075
C       11.10798045       6.47069778       4.57128424      -0.00127655       0.00094694      -0.00488025
C       10.18062395       7.92875933       6.04605075      -0.01071519      -0.00337410      -0.00750837
H       12.96998015       6.62159563       5.72828269      -0.00376153       0.01069918      -0.00112696
H       12.68010553       8.00164250       4.63598247      -0.00919981       0.00929117      -0.00217623
H       11.18436378       6.46451948       3.48708785       0.00126741       0.00010594      -0.00481063
H       11.00300166       5.45353889       4.94553950       0.00220806       0.00064677      -0.00402987
O        5.58265907       4.80678467       2.78476295       0.01144584      -0.00003263      -0.01880386
O        3.83930184       5.07303835       1.42824634       0.01120301       0.02041548      -0.01510666
O        5.18884923       3.29067104       1.15785222       0.00689226       0.01417601      -0.02491206
C        5.12213281       6.16003205       3.00669836       0.01271027      -0.00392982       0.00100082
C        3.72629611       6.11813447       2.41595272       0.01228505       0.00690916       0.00057412
C        4.90175516       4.28829887       1.74628385       0.00832960       0.01489776      -0.02129680
H        5.79778232       6.83383333       2.47780006       0.01349604       0.00246963       0.01053089
H        5.12607778       6.35780021       4.07276924       0.01281960      -0.02070593       0.00399357
H        2.97792786       5.82449660       3.15373020       0.01120260      -0.00264961      -0.00389719
H        3.42501087       7.03416455       1.91172110       0.01393371       0.01500344       0.01455773
O        7.10905316      12.78091251       9.03993938      -0.00335926       0.00052885      -0.00833541
O        6.41022659      10.69635488       9.35294375       0.00047848       0.00161102       0.00879586
O        4.98984376      12.41790444       9.67317163       0.00013709       0.00245747       0.00503647
C        8.26606875      11.97643210       8.71202496      -0.00382882      -0.00055191      -0.00878996
C        7.83150445      10.56604346       9.10727537      -0.00054088       0.00145334       0.00237903
C        6.07366575      11.99914697       9.37506729      -0.00088185       0.00170746       0.00214554
H        9.10244473      12.35353056       9.29414772      -0.00146443       0.00405224      -0.01522291
H        8.47090148      12.08030389       7.64945757      -0.00914280      -0.00725104      -0.01053631
H        7.98731644       9.83373350       8.31841191      -0.00389012      -0.00347725       0.00613973
H        8.29141130      10.22204131      10.03254806       0.00477609       0.00776535       0.00226527
O        4.89904286      11.58804039       2.97332980      -0.00287113      -0.00028071       0.00137431
O        4.01807748      10.91469091       1.03884160       0.00364836      -0.00743441       0.00063042
O        2.93169941      12.46726780       2.25690783      -0.01614416      -0.00149387      -0.00305259
C        5.69622154      10.51721122       2.57280801       0.00085196       0.00192028       0.00424963
C        5.30087037      10.27463842       1.13179532       0.00727716      -0.00083150       0.00458932
C        3.84351783      11.73051315       2.10011060       0.01271927      -0.01876926      -0.00503178
H        6.74374027      10.72417504       2.77103431       0.00175881       0.00466549       0.00877133
H        8.06088157      12.75478686      -0.36250165       0.00082693      -0.00746323      -0.01293954
H        5.99357969      10.74206875       0.43586705       0.00760230       0.00169432       0.00533351
H        5.17912441       9.21526705       0.92637231       0.01436201      -0.00317565       0.00399115
O        4.61385114       1.15472142      11.95833092       0.00224651      -0.00220412       0.00575626
O        4.36000716       2.28378739      10.07936375      -0.00305349       0.00465578       0.00943023
O        2.58086571       1.39425771      11.06033052       0.00038680      -0.00262743       0.00775981
C        5.97735654       1.54804050      11.61521983       0.00149119       0.00225992       0.00453469
C        5.80846453       2.30032687      10.29392347      -0.00153738       0.00193942       0.00439471
C        3.81006311       1.58464587      11.03772400       0.00032537       0.00029702       0.00824872
H        6.55395751       0.63764575      11.51448735       0.00288604       0.00317413       0.00348364
H        6.33624393       2.15776234      12.43985562      -0.00017070       0.00440738       0.00384837
H        6.11635809       3.34158246      10.34522958      -0.00043790       0.00166267       0.00237899
H        6.26712612       1.79699286       9.44868673      -0.00464110       0.00111046       0.00274467
O        2.95744038      10.65365200       5.62112975      -0.00228193       0.00035930       0.00216985
O        4.95547156      11.04247366       6.52501286      -0.00473350       0.00437266       0.00636758
O        3.70262829      12.77122539       5.81460765      -0.00547642       0.00234938       0.00054166
C        3.38622193       9.37266800       6.10549157      -0.00209218       0.00163859       0.00606733
C        4.84143153       9.61018484       6.51721853      -0.00254214       0.00383551       0.00688230
C        3.85426565      11.60075344       5.96884649      -0.00405803       0.00152779       0.00293221
H        3.28628459       8.64784273       5.29955083      -0.00091349      -0.00071132       0.00790423
H        2.74026892       9.09593988       6.93972928      -0.00307322       0.00350777       0.00625825
H        5.07220172       9.25162690       7.51773104      -0.00237276       0.00459135       0.00731689
H        5.55417958       9.21231559       5.79701787      -0.00139403       0.00461258       0.00728628
O       12.78666236       7.87006519       9.29651085       0.00137249       0.00092083      -0.00706115
O       11.29591018       9.51564662       9.33577965      -0.00074062      -0.00064280      -0.01324129
O       13.31798971       9.86677457       8.41186120      -0.00107205      -0.00180709      -0.01450765
C       11.64828722       7.29325034       9.97193669       0.00257698       0.00257444      -0.00300141
C       10.57888424       8.37447711       9.85270524       0.00068462       0.00026506      -0.00882250
C       12.53268930       9.15127317       8.96068114       0.00007880      -0.00011623      -0.01217675
H       11.92743521       7.08520648      11.00403962       0.00365642       0.00841610      -0.00211614
H       11.36178865       6.37783705       9.46273559       0.00398222      -0.00073946       0.00194648
H        9.79871638       8.11239921       9.14188532       0.00144580      -0.00390525      -0.00834677
H       10.14203905       8.64382287      10.81067499      -0.00048620       0.00342378      -0.01008224
O       10.13818436       8.05294941       1.18577680      -0.00965276       0.00357144       0.01108781
O        8.38989413       9.42272914       1.15325971      -0.00549865       0.00940385      -0.00258272
O        8.05160287       7.20261123       1.15531637      -0.01212662       0.01090896       0.00654409
C       10.69613948       9.37953414       1.36317760      -0.00722504       0.00369164       0.01025565
C        9.53855255      10.29624989       1.00845693      -0.00250371       0.00438875      -0.00394039
C        8.79867915       8.14154739       1.16674542      -0.00998327       0.00690407       0.00524567
H       11.55235879       9.48183391       0.70048257      -0.00140005      -0.00102425       0.01759058
H       11.00466239       9.49045241       2.40188952      -0.01733948       0.00855782       0.01256227
H        9.42478417      11.12719748       1.69623815      -0.00334290       0.01170102      -0.01244590
H        9.56281569      10.64712508      -0.02249142       0.00429174      -0.00463726      -0.00732511
O       11.64933578      11.20198509       4.38482486       0.00494856       0.01465809      -0.00881137
O       10.28869073      11.95522858       5.96711355       0.00402064       0.00231797      -0.00379449
O        9.42626546      11.16627750       4.04392176       0.00041032      -0.00074339      -0.00726128
C       12.51361775      11.52439990       5.50545964       0.00426626       0.00536215      -0.00472085
C       11.60937783      12.36395981       6.39026240       0.00232613       0.00398928      -0.00560525
C       10.36716240      11.43850622       4.73551354       0.00365645      -0.01240242       0.00724047
H       13.38345187      12.05380253       5.12887485       0.00364423       0.00456437      -0.00446814
H       12.81465121      10.59446199       5.98790462       0.00535572       0.00502181      -0.00249481
H       11.71366553      12.14061065       7.44846049       0.00401130       0.00691603      -0.00414282
H       11.69920274      13.43259588       6.20331349       0.00186145       0.00505978      -0.00704761
O        8.51402186       1.00670239       5.44440180      -0.00267878      -0.00166917       0.00293052
O        7.15922685       2.07862497       6.84416934      -0.00515521       0.00261590      -0.00046477
O        9.30599512       1.69982766       7.43358140      -0.00570369      -0.00419627       0.00492513
C        7.28534049       1.18288721       4.71229463      -0.00049022       0.00116485       0.00075626
C        6.29756734       1.54603006       5.81063425      -0.00384796       0.00518000      -0.00453600
C        8.41962536       1.60541212       6.63894295      -0.00479770      -0.00141660       0.00296348
H        7.05378484       0.24889083       4.20666860      -0.00286671       0.00258482      -0.00036640
H        7.43380786       1.97510830       3.97818212       0.00220098       0.00284660       0.00252652
H        5.57632956       2.31112948       5.53097607       0.00213444       0.00545752      -0.02597582
H        5.76443363       0.68447111       6.20898967      -0.00661752       0.00697386      -0.00275233
O        7.18622808       5.40084097      11.70253586       0.00685349       0.00068750      -0.00698487
O        7.55015514       7.56562443      11.34540228       0.00800076       0.00134789      -0.00323251
O        9.26514826       6.11771311      11.22129527       0.00938118       0.00191930       0.00505997
C        5.88777774       6.01310235      11.78946917       0.00554517      -0.00001279      -0.01589652
C        6.21319270       7.50012444      11.87039176       0.00415263       0.00014555      -0.01180147
C        8.10711341       6.33923518      11.40970227       0.00832379       0.00141677      -0.00104349
H        5.38544255       5.62522200      12.67160609      -0.00053234      -0.00140487      -0.01981184
H        5.32028653       5.75165248      10.89317360       0.01218060       0.00053577      -0.02036375
H        5.57169229       8.13404066      11.26304064       0.00784490       0.00060938      -0.01544161
H        6.25383729       7.85002982      12.89952809      -0.00275071      -0.00084379      -0.01132733
O        8.72398056       4.84176852       6.09507268       0.00445056      -0.00319721       0.00376895
O        7.94481691       5.55801351       8.04966198       0.00563589      -0.00080653       0.00358045
O       10.16827636       5.31504588       7.75180325       0.00521326      -0.00563582       0.00394166
C        7.35387116       5.19900579       5.83913100       0.00502738      -0.00054729       0.00327945
C        6.77552861       5.30006353       7.24135548       0.00483766       0.00298287       0.00327474
C        9.04709224       5.23615139       7.34013791       0.00550991      -0.00340380       0.00393820
H        6.89791972       4.42783146       5.22612538       0.00338896      -0.00110325       0.00481516
H        7.35107686       6.15408957       5.31108541       0.00703583      -0.00148547       0.00156932
H        6.08138376       6.12709381       7.36531242       0.00806260       0.00600764       0.00242816
H        6.31957024       4.36909906       7.57250442       0.00096646       0.00506848       0.00428483
O        1.83995055       5.58314879       6.73824734       0.00009291      -0.00230236       0.00102970
O        3.48649399       4.59661508       7.85761617      -0.00075004       0.00765933       0.01141551
O        3.85333552       5.33066808       5.76382799       0.00912324       0.01496816       0.01538807
C        1.34648251       5.44692426       8.09314817      -0.00944251      -0.01045012      -0.00308666
C        2.32439458       4.45298426       8.70162347      -0.00657114      -0.00490308       0.00149131
C        3.12185440       5.18001400       6.69940521       0.00327370       0.00764031       0.00990206
H        0.31921649       5.09545748       8.05054190      -0.00640726      -0.01830837      -0.01241131
H        1.38120415       6.42820448       8.56318462      -0.02027514      -0.01151812      -0.00007178
H        2.61530047       4.69317277       9.72099011      -0.01675434      -0.00636569       0.00484043
H        1.98555834       3.41922575       8.64835412       0.00238924      -0.00752088      -0.00515112
