139
Lattice="14.135951967148461 0.0 0.0 0.0 14.135951967148461 0.0 0.0 0.0 14.135951967148461" Properties=species:S:1:pos:R:3:forces:R:3 energy=-230432.171875 stress="-0.00021889116032980382 -0.0001562831603223458 0.00019891004922101274 -0.0001562831603223458 -4.484884630073793e-05 0.00015997878654161468 0.00019891004922101274 0.00015997878654161468 -0.00018258296768181026" pbc="T T T"
Mo      14.58695083      13.64952039       1.88459119      -0.02091016       0.01052423       0.01577634
S       10.84678231      14.92297740      13.47353254      -0.00560081       0.00415897      -0.00914989
N       13.12336346      14.12691106      14.83450555      -0.01126980       0.01329879       0.00591545
C       12.14005139      14.46713159      14.23293046      -0.00904727       0.00939655      -0.00065470
S        5.29184915       5.39710078      10.41844331       0.00325203      -0.00148934      -0.00677955
N        7.50484999       4.75244307       8.78884430      -0.00357628      -0.00118446      -0.01745236
C        6.57743621       5.02764338       9.46630021      -0.00266331      -0.00139956      -0.01221362
S        7.60042937      10.87873144       6.24788583      -0.00185210       0.00106905      -0.00082056
N        5.36312413      10.31728597       7.76936870       0.00819278      -0.01901356       0.00761020
C        6.31284575      10.52833790       7.04047391       0.00433695      -0.00883259       0.00305974
S        3.92973979       9.43123719       7.52280023      -0.00032121      -0.00060812       0.00257438
N        2.73687970      10.72038924       5.29131528       0.00327800       0.02446520      -0.01572523
C        3.23268978      10.20073568       6.20557889       0.02209082      -0.00729382       0.02891606
S        4.25318826       2.18164133       1.59570826       0.00708008      -0.01652530       0.00727090
N        2.09566522       0.45329447       1.51427742      -0.02508588       0.02355679       0.02893470
C        3.04186227       1.19930018       1.53628467      -0.01188588       0.00617814       0.02119648
S       -0.06107782      13.81258814       4.04241649      -0.04528312      -0.01767439       0.00702322
N        0.59541834      11.79186142       2.26599019      -0.00943725       0.00857365      -0.00675008
C        0.25883249      12.20288159       3.44257756      -0.02576590      -0.01982592      -0.00142803
C        9.53444755      10.12891602      10.64263296      -0.00125659       0.00125104       0.00105339
C        9.80900408      11.58232766      10.27471778      -0.00174066       0.00043264      -0.00237636
C        8.13359873       9.67670739      10.24480892       0.00073493      -0.00202543      -0.00198279
C       11.22355854      12.05424359      10.58695163      -0.00249112       0.00160450      -0.00110391
C        7.82112756       8.22778217      10.58498357       0.00201423      -0.00141817       0.00155623
C       11.47384607      13.48432069      10.12843023      -0.00266108       0.00120312      -0.00236193
H       10.27309511       9.48375437      10.15090786       0.00099456       0.00065863       0.00530964
H        9.67883329       9.98544186      11.72007883      -0.00435162       0.00469270       0.00186729
H        9.09152019      12.23066181      10.79148178      -0.00295426       0.00125825      -0.00527254
H        9.61575136      11.72010841       9.20380605       0.00001721      -0.00263184      -0.00298703
H        7.39801272      10.33559550      10.72014399      -0.00198382      -0.00159946      -0.00665285
H        8.02087502       9.83352506       9.16780469       0.00378666      -0.00543431      -0.00260305
H       11.40332409      11.97674704      11.66475473      -0.00385207       0.00301628      -0.00086537
H       11.94188304      11.38026934      10.10698323      -0.00158381       0.00156306       0.00063364
H        8.52034954       7.53965496      10.10529594       0.00384679      -0.00161492       0.00440316
H        6.82061988       7.93207860      10.26615946       0.00321224      -0.00367402       0.00001338
H        7.87633977       8.05628850      11.66148886       0.00002681       0.00138406       0.00204429
H       11.31858082      13.58277064       9.05253319      -0.00211094       0.00027006      -0.00252673
H       10.79179256      14.17611895      10.62383882      -0.00296800       0.00148727      -0.00331436
H       12.49050935      13.81094976      10.35221390      -0.00287497       0.00163737      -0.00213154
C        7.39146686       2.78305985      12.15942057       0.00442913       0.00177506      -0.00709349
C        7.94405265       4.03123912      12.83579331       0.00510722       0.00013417      -0.00481573
C        6.00550483       2.43457231      12.67991992       0.00555104      -0.00103769      -0.00579771
C        9.33187723       4.42625603      12.35189606       0.00429171       0.00201070      -0.00579250
C        5.38861596       1.20771992      12.02824821       0.00688046      -0.00017545      -0.00869775
C        9.88652863       5.63508684      13.09443404       0.00548944      -0.00067171      -0.00237089
H        7.35497917       2.94768623      11.07881819       0.00201685       0.00475192      -0.00657889
H        8.07145972       1.93675094      12.33219200       0.00536284       0.00179049      -0.01103047
H        7.96489647       3.87544865      13.92297007       0.00674046      -0.00278185      -0.00529003
H        7.24844177       4.85588943      12.64830186       0.00463811       0.00044593      -0.00158590
H        6.06385615       2.28038948      13.76074589       0.00677910      -0.00377402      -0.00622410
H        5.35257019       3.29612112      12.51502107       0.00437215      -0.00148511      -0.00324497
H       10.01572023       3.57958913      12.47794416       0.00459412       0.00174832      -0.01015816
H        9.28231998       4.63169889      11.27877197       0.00256398       0.00592858      -0.00496399
H        5.24388501       1.36631757      10.95874631       0.00618414       0.00271157      -0.00820333
H        4.41498389       0.97360329      12.46454012       0.00753230      -0.00285041      -0.00886527
H        6.02474256       0.32788342      12.15220345       0.00839992       0.00058775      -0.01160660
H        9.23489420       6.50082556      12.96747141       0.00603230       0.00015381       0.00109488
H        9.96124817       5.43516179      14.16636609       0.00627453      -0.00429431      -0.00308131
H       10.88046087       5.91273659      12.73942124       0.00541617      -0.00013228      -0.00214986
C       11.60200135       8.14933728       7.35521258       0.00350296       0.00034323      -0.00222796
C       11.70689563       9.64858190       7.11575120       0.00289202       0.00036412      -0.00139399
C       10.20842079       7.57106716       7.15005725       0.00329602       0.00019635      -0.00046395
C       13.11840734      10.18059646       7.33588943       0.00266537       0.00073415      -0.00090761
C       10.17341625       6.06501825       7.35371176       0.00402275       0.00022280      -0.00040691
C       13.24533752      11.66978660       7.05795174       0.00148372       0.00071132      -0.00075677
H       12.30560387       7.63151287       6.69148806       0.00258762       0.00086215      -0.00364873
H       11.93507401       7.92311299       8.37544101       0.00506277      -0.00029928      -0.00296363
H       11.00733797      10.17728709       7.77454077       0.00277101      -0.00026697      -0.00109395
H       11.38881991       9.87853456       6.09151945       0.00299151       0.00095490      -0.00115862
H        9.50787162       8.05579662       7.83909270       0.00431287      -0.00001349       0.00063741
H        9.85889037       7.82150269       6.14209693       0.00177208       0.00019024       0.00013480
H       13.42449414       9.96425644       8.36499075       0.00277139       0.00038814      -0.00117096
H       13.81261792       9.63025470       6.69198779       0.00283666       0.00140598      -0.00139764
H       10.80027278       5.56713910       6.60970533       0.00345436       0.00039009      -0.00097221
H        9.16544532       5.65486639       7.30557425       0.00413066      -0.00014643       0.00076623
H       10.55791070       5.79761083       8.34044415       0.00558898       0.00062124      -0.00088632
H       12.96323909      11.89054452       6.02750213      -0.00146940       0.00018150       0.00006288
H       12.59273304      12.25021845       7.71218890       0.00287497       0.00044672       0.00090691
H       14.26743845      12.02305674       7.20151263       0.00158313       0.00132975      -0.00376445
C        6.15183958       7.94639518       3.67072251      -0.00204766      -0.00220424       0.00250809
C        4.92409420       8.48671105       2.94803304      -0.00076914      -0.00218827       0.00061755
C        5.83969749       6.79272450       4.61837587      -0.00230813      -0.00184074       0.00280586
C        5.20733618       9.72002710       2.09790848       0.00137010      -0.00140437       0.00249510
C        7.04817468       6.32906080       5.41882717      -0.00258026      -0.00060295       0.00384122
C        3.94773961      10.29744588       1.46731499       0.00362846      -0.00110070      -0.00155421
H        6.90490131       7.62758458       2.93994532      -0.00123733      -0.00231452       0.00342682
H        6.61636203       8.75968014       4.23942987      -0.00269275      -0.00190938       0.00253576
H        4.15607952       8.74075676       3.68617723      -0.00277072      -0.00324721      -0.00099367
H        4.48918686       7.70078561       2.31957355       0.00098728      -0.00135139      -0.00132807
H        5.04682036       7.10671723       5.30498942      -0.00301909      -0.00175659       0.00192377
H        5.42534889       5.95695222       4.04401053      -0.00146829      -0.00242341       0.00310431
H        5.68096794      10.48125147       2.72704716      -0.00113745      -0.00157940       0.00462615
H        5.93878362       9.46910390       1.32239257       0.00391376      -0.00047134       0.00471705
H        7.85631469       6.00659234       4.75694545      -0.00236657      -0.00132805       0.00449167
H        6.81518241       5.50689985       6.09674411      -0.00238825       0.00051339       0.00517586
H        7.44041718       7.14203853       6.03300241      -0.00275128       0.00035594       0.00261246
H        3.47301889       9.57503539       0.79952596       0.00401845      -0.00183485      -0.00092042
H        3.21993724      10.56046803       2.23587965       0.00200883       0.00227572      -0.00425825
H        4.15929125      11.19749467       0.88630742       0.00724755      -0.00314021      -0.00331862
C       11.11171781       9.94584938       1.60922031       0.00098851       0.00118455      -0.00042084
C        9.75367783      10.55816180       1.92948428       0.00086904       0.00095645      -0.00105435
C       11.47413516       8.73395315       2.45969188      -0.00046194       0.00025323      -0.00119218
C        9.47474698      11.81268911       1.10853353       0.00141513       0.00202537       0.00035533
C       12.85756772       8.19115723       2.12663978      -0.00077605      -0.00083622      -0.00066138
C        8.12302890      12.44794316       1.40073527       0.00160968       0.00194305       0.00115590
H       11.13890776       9.66258450       0.55018149       0.00220279       0.00243381      -0.00069356
H       11.88789513      10.70977969       1.73452566       0.00108373       0.00077564       0.00169340
H        9.70998215      10.80710217       2.99696019      -0.00007442      -0.00041737      -0.00078484
H        8.96153426       9.81936327       1.76074456       0.00092721       0.00124937      -0.00265977
H       11.43222968       9.01162948       3.51847342      -0.00027630       0.00001208      -0.00120312
H       10.71995587       7.95194377       2.32159209      -0.00106612       0.00108123      -0.00200804
H       10.26817298      12.54238566       1.29718592       0.00194141       0.00152269       0.00126100
H        9.54390907      11.56935403       0.04271179       0.00133742       0.00321279       0.00007665
H       12.90539488       7.86124111       1.08671621      -0.00012742       0.00047853      -0.00094336
H       13.12583648       7.34170719       2.75582313      -0.00263455      -0.00207102      -0.00161208
H       13.61813689       8.96211147       2.26159999       0.00000416      -0.00191613       0.00128639
H        7.30651935      11.75943668       1.17659046       0.00139064       0.00223072       0.00059081
H        8.03707273      12.72277078       2.45451244       0.00177366       0.00065792       0.00146832
H        7.97181545      13.35259376       0.80979154       0.00161360       0.00258997       0.00226782
C       10.84439562       3.43261979       4.43963543      -0.00184441      -0.00005543       0.00371855
C        9.90834343       2.58895582       5.29520976      -0.00218718       0.00088602       0.00417501
C       12.26832951       3.50867412       4.97980853      -0.00073092      -0.00500926       0.00093907
C        8.51518329       2.43870849       4.69523195      -0.00225496       0.00140670       0.00435993
C       13.14965994       4.46192288       4.18452602      -0.00048962      -0.00378588       0.00286660
C        7.57315058       1.65007494       5.59354810      -0.00323752       0.00278959       0.00432324
H       10.86785461       3.03547405       3.41851608      -0.00470711       0.00138399       0.00312454
H       10.43654707       4.44692829       4.35705783       0.00057958       0.00092405       0.00597166
H        9.82264642       3.03704903       6.29049760      -0.00156217       0.00145634       0.00400290
H       10.34391520       1.59393261       5.44394873      -0.00220661       0.00073680       0.00407779
H       12.23844297       3.82487993       6.02707547       0.00231998      -0.00954106       0.00237852
H       12.70891138       2.50609208       4.97985296      -0.00298104      -0.00602609      -0.00444057
H        8.09538688       3.43230249       4.51142590      -0.00146042       0.00151762       0.00383520
H        8.59475359       1.95379591       3.71621430      -0.00225011       0.00063616       0.00487030
H       13.21866290       4.15770400       3.13789073      -0.00450233       0.00087787       0.00132698
H       14.16324604       4.51248549       4.58531001       0.00092870      -0.00852217      -0.00002438
H       12.73521811       5.47172972       4.20250816       0.00255972      -0.00272068       0.00881478
H        7.96428834       0.64788462       5.78464181      -0.00405042       0.00270472       0.00556132
H        7.45116806       2.15075635       6.55585008      -0.00314078       0.00377402       0.00381246
H        6.58558489       1.54086128       5.14286761      -0.00328206       0.00386541       0.00403070
