142
Lattice="14.184236176552412 0.0 0.0 0.0 14.184236176552412 0.0 0.0 0.0 14.184236176552412" Properties=species:S:1:pos:R:3:forces:R:3 energy=-194110.25 stress="-0.00024821539409458637 0.00018065623589791358 0.00014466073480434716 0.00018065623589791358 0.0001592731277924031 -0.00034020189195871353 0.00014466073480434716 -0.00034020189195871353 -8.735751907806844e-05" pbc="T T T"
Mo      12.19290519      12.93250495      -0.37445838      -0.00481233      -0.00100334       0.00112609
F       -1.11884880      13.35478795       1.19519978      -0.00489834       0.00479035      -0.00038642
F       11.18516706      13.00130687      12.25086971      -0.00546762      -0.00685246       0.00124547
F        7.03765773       4.10951513      14.41321502       0.02558365       0.03678250       0.00222576
F       13.75581375      12.77608975      12.86706866      -0.00520888      -0.00250914       0.00059372
F       10.01595993       8.40234701       8.40358875      -0.00381416      -0.00440961       0.00631964
F       10.71656098      12.33659001       0.55996559      -0.00344571      -0.00000180       0.00359045
C        7.16560149       9.02906548       5.49664146      -0.00178848      -0.00214677       0.00165973
C        6.03305016       9.18818703       4.69824745      -0.00387660       0.00267357       0.00319745
C        7.34900051       7.81613068       6.15433950      -0.00292021      -0.00280578      -0.00263250
C        8.16497176      10.13937320       5.64113465      -0.00005639      -0.00351226       0.00107571
C        5.11515161       8.15808289       4.54183983      -0.00518960       0.00317256       0.00352559
C        6.43110954       6.78538820       6.00713551      -0.00366903      -0.00207196      -0.00273120
C        5.31606047       6.94771919       5.19684923      -0.00591508       0.00241323      -0.00081309
H        5.86620289      10.13054330       4.19107478      -0.00320190       0.00322396       0.00632472
H        8.21928322       7.68542714       6.78519048      -0.00145496      -0.00583306      -0.00374374
H        8.99442685       9.83660423       6.27913159      -0.00564896      -0.00162774       0.00919098
H        8.56636970      10.43524572       4.66887998       0.00849444      -0.01192219       0.00235909
H        7.70494072      11.02736991       6.08097565      -0.00029312       0.00106086      -0.00889296
H        4.25086854       8.30191175       3.90481115      -0.00660859       0.00660175       0.00539147
H        6.59588674       5.84764609       6.52219810      -0.00465650      -0.00340287      -0.00622068
H        4.61289327       6.13407603       5.06877054      -0.00677763       0.00310519      -0.00083841
C       11.20656741       2.50493622       3.65818900       0.00604814      -0.00027116      -0.00735172
C       11.76028041       2.24856283       4.91388417       0.00722236      -0.00133793      -0.00516507
C       11.69127950       3.59146829       2.93189193       0.00786426       0.00130226      -0.00315067
C       10.08276978       1.66883285       3.12907743       0.00763062      -0.00029358      -0.00816710
C       12.76116662       3.05903008       5.43271905       0.00452743      -0.00331997      -0.00569274
C       12.69128475       4.40463441       3.44790650       0.00478609      -0.00061764      -0.00471821
C       13.23020258       4.14400881       4.70082366       0.00724512      -0.00107612      -0.00202543
H       11.39183051       1.40956342       5.49471539       0.00570105      -0.00275700      -0.00754987
H       11.25849059       3.81536011       1.96401875       0.00649657       0.00218182      -0.00477470
H        9.90338028       1.86677604       2.07394000       0.00368565       0.00675157      -0.00638846
H       10.27925277       0.60317070       3.25850833       0.01145331      -0.00051028      -0.01674145
H        9.15300274       1.89611521       3.65519957       0.00873467      -0.00705656      -0.00370280
H       13.17453126       2.84543850       6.41139473       0.00539810      -0.00357307      -0.00462410
H       13.03448295       5.25754498       2.87617070       0.00660788       0.00089988      -0.00176800
H       13.99691636       4.78905532       5.11137793       0.00565708      -0.00268229      -0.00259368
C        4.94547556       3.09712257       2.81962612       0.00207764       0.00313042      -0.00141523
C        4.56606321       2.51419704       4.03063880      -0.00407892      -0.00301433      -0.00936291
C        5.98155422       2.52681178       2.07445176       0.00652000       0.00357515      -0.00053242
C        4.27672067       4.34621264       2.32202907       0.01030456       0.00804478      -0.00001845
C        5.20415284       1.37374282       4.50546240      -0.00964169      -0.00605371      -0.00958689
C        6.59225101       1.37013927       2.54312596       0.00312129       0.00230968      -0.00035098
C        6.21609431       0.79005356       3.75295656      -0.00204915      -0.00321531      -0.00762279
H        3.76591221       2.96226818       4.61206242      -0.00813735      -0.00584671      -0.01053954
H        6.38420248       3.09047581       1.15722371       0.00303054      -0.00159299       0.00633520
H        4.28789961       4.37370907       1.23377031       0.01389126       0.01255773       0.00038537
H        3.24806474       4.41602021       2.68084582       0.00963883       0.01201459      -0.00258613
H        4.81205439       5.23690202       2.66150583       0.01398434       0.00391082       0.00483005
H        4.91455740       0.94538503       5.45800614      -0.01527873      -0.01163596      -0.01595014
H        7.39141743       0.92291263       1.96320707       0.00786975       0.00523899       0.00091481
H        6.71961566      -0.09920933       4.11653546      -0.00553720      -0.00414271      -0.00741544
C        8.57861476       6.32526790       2.93917975       0.00012492       0.00045063      -0.00397982
C        8.29625973       5.11813946       3.58113745      -0.00092879      -0.00490645      -0.00555803
C        9.56050221       7.15004592       3.49278077      -0.00336416      -0.00338528      -0.00462150
C        7.80826984       6.72040978       1.71706856      -0.00212660      -0.00296596      -0.00365320
C        8.94942559       4.76871843       4.75538436       0.00256439      -0.00121494      -0.00472192
C       10.22252272       6.79690789       4.66165269       0.00045186      -0.00045033      -0.00375648
C        9.91260838       5.60532798       5.30362605      -0.00237045      -0.00533435      -0.00537324
H        7.55868250       4.45371793       3.14521842       0.00281286      -0.00349298      -0.00667839
H        9.79584004       8.09011366       3.00422077      -0.00261263      -0.00117530      -0.00346071
H        8.39403752       7.39863969       1.09250576      -0.00491210       0.00254247      -0.00106815
H        7.50463623       5.83653547       1.13516291       0.00394161      -0.00448793      -0.00666338
H        6.90179748       7.25995841       2.01222389      -0.00566107      -0.00889789      -0.00354569
H        8.70687425       3.83266376       5.24479575       0.00153437      -0.00470923      -0.00611653
H       10.97100334       7.45540269       5.08589813      -0.00202025      -0.00255147      -0.00460190
H       10.42149320       5.33718457       6.21951468       0.00010090      -0.00275902      -0.00456864
C        9.42591283       4.43910451      11.99312712      -0.00175910      -0.00633843       0.00552272
C       10.52594893       3.73768049      11.50037356      -0.00396680      -0.00353892       0.00241481
C        9.65525882       5.43134823      12.95043183      -0.00368088      -0.00504342       0.00464217
C        8.02355504       4.13042884      11.58106817      -0.00338745      -0.00841684       0.01272251
C       11.81505245       4.02068858      11.94007447      -0.00067487      -0.00028867      -0.00031074
C       10.93819480       5.71915827      13.39043270      -0.00000256      -0.00099385      -0.00018910
C       12.02802250       5.01468872      12.88505852      -0.00280795       0.00088914      -0.00244077
H       10.36935131       2.95343521      10.76775287      -0.00251200      -0.00512286       0.00444008
H        8.80128290       5.94384288      13.37252181      -0.00327843      -0.01194014       0.00960028
H        7.50258081       5.04357476      11.28402141       0.00182660      -0.01519741      -0.01422428
H        7.99219046       3.42586586      10.74976300      -0.00842802      -0.03130508       0.03349635
H        7.47965579       3.75039365      12.45893136      -0.00400154       0.02137807       0.02470428
H       12.65472209       3.46324189      11.54265119      -0.00202532       0.00061532      -0.00135919
H       11.08958786       6.48453726      14.14310590      -0.00201430      -0.00100113      -0.00016035
H       13.03041508       5.23395089      13.23143111      -0.00083530       0.00294242      -0.00421500
C       12.22232008       8.55920096       9.35198490       0.01770499      -0.00738126      -0.00900556
C       11.02927490       7.72729798       9.39291924      -0.00464886      -0.00327124       0.00985759
C       13.34584518       8.09018312       8.71676937      -0.01834562       0.01044434       0.00776241
C       12.15530411       9.91958720       9.95011218      -0.00385673      -0.00013682       0.00149387
C       11.17650741       6.36039456       8.94914150       0.03409588      -0.01003581      -0.01295120
C       13.41929496       6.79441305       8.19860627       0.01332301      -0.00282700      -0.01084179
C       12.32287495       5.93624282       8.33836609      -0.02620651       0.01027864       0.01381864
H       10.43595645       7.83597935      10.30170301       0.00627124      -0.00595155       0.00365663
H       14.20680226       8.74612950       8.64107181       0.00037363       0.00467524      -0.00529325
H       13.06033175      10.49129344       9.74789852      -0.00015000      -0.00182885       0.00483199
H       11.29983618      10.47825750       9.56292028       0.00084102      -0.00030373      -0.00351097
H       12.02627672       9.87442104      11.03614543      -0.00771060      -0.00077062      -0.00039813
H       10.34184698       5.68695570       9.08566478       0.00034033      -0.00805291       0.00506285
H       14.32490660       6.44957812       7.71670273      -0.00389251       0.00653381      -0.00442249
H       12.38816194       4.91647292       7.97569270       0.00572934      -0.00351676      -0.00465579
C        4.37931037      10.70912354       1.90219550       0.00047769       0.00736637       0.00363901
C        3.71695461      11.53028890       2.81410934      -0.00246406       0.00567451       0.00042616
C        3.66700373       9.65449116       1.32513579       0.00529109       0.00324228       0.00307821
C        5.81796491      10.94635063       1.55064432       0.00027859       0.01064592       0.00422102
C        2.38497307      11.30714204       3.14476056      -0.00332089       0.00272875      -0.00018108
C        2.33365420       9.43450308       1.64470497       0.00433531       0.00076015       0.00265408
C        1.68695478      10.25954828       2.55918452       0.00185105      -0.00104666      -0.00082816
H        4.25442918      12.35518104       3.26911166      -0.00625262       0.00838019       0.00062677
H        4.16974966       8.99837889       0.62385906       0.00789077       0.00426096       0.00589839
H        5.92256749      11.25829013       0.51094591      -0.00083085       0.02041978       0.00715074
H        6.25164677      11.72318182       2.17996542       0.00036052       0.00540583       0.01073058
H        6.40639109      10.03424326       1.67060215       0.00088346       0.01030749      -0.00473124
H        1.89344755      11.95120387       3.86346699      -0.00566773       0.00166651      -0.00236461
H        1.79604840       8.61432093       1.18381133       0.00827387      -0.00223239       0.00243737
H        0.64701475      10.09094456       2.80838370       0.00122854      -0.00333746      -0.00124581
C        7.95014665      10.37670256      12.53983858      -0.00331630      -0.00413238       0.00591505
C        6.83419393       9.53843128      12.55442536      -0.00241381       0.00541705       0.00402429
C        7.76752012      11.72006750      12.21389327      -0.00152397       0.00498793       0.00567148
C        9.31851983       9.83795504      12.83552391      -0.00233141      -0.00043386       0.00346273
C        5.57266363      10.02495889      12.24377454      -0.00188044      -0.00223576       0.00682660
C        6.50341850      12.21172732      11.90778821      -0.00127808      -0.00114807       0.00826841
C        5.40208405      11.36550177      11.91980779      -0.00140008       0.00771010       0.00601166
H        6.96234060       8.48994193      12.80129140      -0.00319422      -0.00037739       0.00405401
H        8.62666592      12.38075388      12.20091316      -0.00134566      -0.00028764       0.00683409
H       10.03281845      10.64338898      12.98269157      -0.00042756      -0.00242600      -0.00208771
H        9.31516612       9.21121706      13.72840477      -0.00130828       0.00278769       0.00654624
H        9.67542234       9.21689017      12.01003539      -0.00638705      -0.00585668       0.00549081
H        4.72212568       9.35529836      12.23764316      -0.00237082       0.00389830       0.00528593
H        6.38137058      13.25813047      11.65511584      -0.00049714       0.00359358       0.00852914
H        4.41856879      11.74319586      11.67053367      -0.00096160       0.00343420       0.00792980
C        4.24868768       9.12121017       8.80978151      -0.00315118       0.00188601      -0.00115911
C        4.82224814       7.93519101       9.26898108       0.00181941      -0.00013784       0.00096384
C        5.08346707      10.21046267       8.56822782       0.00251097      -0.00054771       0.00050694
C        2.76573729       9.22655345       8.60649367      -0.00122544       0.00081218      -0.00130163
C        6.19045315       7.84218217       9.48083543      -0.00649659       0.00116614       0.00048107
C        6.45138510      10.12218844       8.78939992      -0.00574639       0.00223346      -0.00062393
C        7.01139919       8.93696480       9.24291795       0.00208139      -0.00085939       0.00232742
H        4.18829361       7.07353814       9.44869248      -0.00272056       0.00075472      -0.00011536
H        4.65368260      11.13601402       8.20078880      -0.00121818       0.00117330      -0.00143778
H        2.51990084       9.97316827       7.85015173      -0.00061044      -0.00265966      -0.00547081
H        2.34025220       8.27133890       8.29793040      -0.00231356      -0.00008422       0.00369303
H        2.26157874       9.51858704       9.53230174      -0.00125989       0.00642651      -0.00313798
H        6.61985738       6.90732993       9.82007190      -0.00218455       0.00031710       0.00232840
H        7.08586185      10.97893353       8.60081190      -0.00070255       0.00027183       0.00054137
H        8.08238832       8.85755750       9.37138888      -0.00348468       0.00027280       0.00221238
