142
Lattice="14.20339152373341 0.0 0.0 0.0 14.20339152373341 0.0 0.0 0.0 14.20339152373341" Properties=species:S:1:pos:R:3:forces:R:3 energy=-253285.703125 stress="-0.0003233510651625693 0.0003377014654688537 -5.6085260439431295e-05 0.0003377014654688537 -7.624403951922432e-05 -0.00025276401720475405 -5.6085260439431295e-05 -0.00025276401720475405 -0.0008309223339892924" pbc="T T T"
Mo      13.30673056      13.31883070      -0.31283425       0.01192315      -0.01333413      -0.00529706
Cl      -0.85393725      13.78207291       1.85606554       0.00437470      -0.01625872      -0.00427729
Cl      11.82964260      14.26475405      12.51773801       0.01767927      -0.01166204      -0.01016229
Cl       8.06407680       0.93588043      13.47302141       0.02390085       0.00159933       0.00800206
Cl      14.72348398      11.81654628      13.08426373       0.01643816      -0.01182395       0.00033513
Cl      10.43166581       9.41113076       7.29478256      -0.04101917      -0.00685340       0.02648874
Cl       8.70064169      13.61856475       0.44119163       0.01772201       0.00156064       0.01041087
C        7.02007922       9.20281943       5.30280862      -0.01082924      -0.00024236      -0.00836527
C        5.84992034       9.14200356       4.54716202      -0.01752597       0.00492623      -0.00780995
C        7.39111460       8.07569775       6.03703343      -0.00919437       0.00836550      -0.01363733
C        7.84497730      10.45483961       5.33865650      -0.01356012       0.00364476      -0.01645623
C        5.06922699       7.99426507       4.50776632      -0.01491831      -0.00405144       0.00249371
C        6.60302400       6.93291419       6.01747772      -0.00654860      -0.00034247      -0.00532348
C        5.44582219       6.88070932       5.25048584      -0.01236890       0.00572759      -0.00450440
H        5.54209733      10.01259285       3.98538578      -0.02012125      -0.00072765      -0.00349177
H        8.30758880       8.11483651       6.61761224      -0.00687084       0.00667781      -0.01386827
H        8.82703748      10.26489117       5.78487335      -0.01681113       0.00618772      -0.00711334
H        7.96487495      10.87548550       4.33736282      -0.00532034      -0.00594002      -0.01851229
H        7.35427631      11.21758594       5.95142651      -0.01726216       0.00899203      -0.02686895
H        4.17252059       7.97777168       3.89917503      -0.01932396      -0.00030590       0.00437193
H        6.90276842       6.06956908       6.59822222      -0.00433063       0.00557446      -0.00817548
H        4.84508977       5.97898930       5.23045265      -0.01095800       0.00070813       0.00350715
C       11.17530125       2.51789587       3.75425877       0.00953703       0.00227555      -0.00973390
C       11.72769072       2.29668900       5.01661645       0.00226502      -0.00770047      -0.00201601
C       11.64916787       3.59439117       3.00473616       0.00437307      -0.01060233      -0.00362805
C       10.06278758       1.65557950       3.24106582       0.00902459      -0.00476381      -0.00596901
C       12.72153330       3.12717923       5.51736965       0.00930227       0.00659488      -0.00617662
C       12.63520909       4.43268766       3.50658676       0.01187090       0.00270644      -0.00721684
C       13.17626051       4.20337078       4.76508613       0.00253238      -0.00883016       0.00001489
H       11.36932997       1.46438719       5.61327246       0.00517556       0.00099544      -0.00507868
H       11.21874963       3.79225154       2.02946063       0.01173439      -0.00546992      -0.00759141
H        9.99793739       1.69124903       2.15431706       0.01196020      -0.00532006      -0.00704235
H       10.18905594       0.61429317       3.54048405       0.00835517      -0.00311852      -0.00500815
H        9.10010399       1.99405433       3.63513350       0.00809792      -0.00366879      -0.00979242
H       13.13833380       2.93755992       6.49916450       0.00232661      -0.00001967      -0.00165761
H       12.96639202       5.28186210       2.92190008       0.00863399      -0.00644091      -0.00456069
H       13.92892921       4.86976506       5.16656749       0.00588323      -0.00003594      -0.00291538
C        4.75304101       3.12165798       3.01146062      -0.00043901       0.00176264       0.00356010
C        4.50790487       2.63912278       4.29762389      -0.00217804       0.00585243       0.00169846
C        5.69863573       2.45897816       2.22736983      -0.00253181      -0.00017128       0.00201976
C        4.04215999       4.33777405       2.49389729       0.00151493       0.00354749       0.00260969
C        5.19490050       1.53640689       4.79173965      -0.00250426       0.00031351       0.00588405
C        6.38743861       1.35635833       2.71636012      -0.00562042      -0.00211285       0.00555853
C        6.14029911       0.89147911       4.00335035      -0.00439958       0.00116974       0.00038686
H        3.76814851       3.13331093       4.91738140       0.00089983       0.00491657       0.00289976
H        5.89866063       2.81084676       1.22080487      -0.00263168      -0.00183704       0.00231993
H        3.90618849       4.28658525       1.41337186      -0.00032758       0.00268472       0.00280443
H        3.06210382       4.45150133       2.95767758       0.00266439       0.00586494       0.00393155
H        4.61491574       5.24396831       2.71080689       0.00334974       0.00285947       0.00046153
H        4.99003383       1.17882986       5.79375963      -0.00284372       0.00405370       0.00261004
H        7.11804698       0.85717965       2.09436514      -0.00568481      -0.00381200       0.00214347
H        6.68152208       0.03529364       4.38721024      -0.00612452      -0.00134274       0.00395998
C        8.64637632       6.42876354       3.03276378       0.00026196      -0.00464518       0.00323588
C        8.36485062       5.22319588       3.67244533       0.00383162       0.00107726      -0.00792751
C        9.61820005       7.26343338       3.58612928      -0.00580837       0.00687760      -0.00140538
C        7.85991486       6.85995663       1.82944575       0.00055394      -0.00183488      -0.00027385
C        9.02356812       4.87553635       4.84571505       0.00737077      -0.00560485       0.00354421
C       10.27239817       6.92496526       4.76259224      -0.00316602      -0.00163074       0.01055851
C        9.97112236       5.72575458       5.39718120      -0.00048047       0.00549112      -0.00437000
H        7.60380102       4.56537975       3.26502935       0.00961647      -0.00595093      -0.00436840
H        9.83461172       8.21661667       3.11502334      -0.00885750       0.00344881       0.00743675
H        8.46744166       7.45787820       1.14853361      -0.00191346       0.00206742       0.00247058
H        7.46466578       6.00333166       1.28213128       0.00628962      -0.00354901      -0.00222929
H        7.01107637       7.47713940       2.13856832      -0.00351971      -0.00773953      -0.00019787
H        8.77955590       3.94228174       5.33973168       0.00926057      -0.00304882      -0.00528988
H       10.96429947       7.61978699       5.22188842      -0.00899094       0.00611505       0.00623840
H       10.46687009       5.47501789       6.32550725       0.00109258       0.00073917       0.00312589
C        9.49307046       4.51279338      11.99749768      -0.00215285      -0.00140362       0.00698977
C       10.56750042       3.72799844      11.57815344      -0.00187925      -0.00782798       0.00824256
C        9.73367858       5.51984564      12.93080972      -0.00222206      -0.00215675      -0.00010969
C        8.11216347       4.27298492      11.46163972      -0.00133219      -0.00477600       0.00452541
C       11.84597456       3.94609473      12.07210318      -0.00266294      -0.00408750       0.01214682
C       11.01021690       5.73628261      13.43653381      -0.00251075       0.00192648       0.00429343
C       12.07188418       4.95126005      13.00509774      -0.00198880      -0.00548976       0.00518493
H       10.40088197       2.94859671      10.84267150      -0.00224170      -0.00852723       0.01295108
H        8.91157689       6.14434153      13.26030002      -0.00145281       0.00229273      -0.00173845
H        7.47467774       5.14544849      11.60606982      -0.00219966      -0.00519581       0.00519761
H        8.13280013       4.03612138      10.39668701      -0.00098082      -0.00384183       0.00490922
H        7.63096517       3.43027532      11.96807131      -0.00053941      -0.00518541       0.00418393
H       12.66931612       3.33779331      11.71954339      -0.00269380      -0.00878687       0.01359615
H       11.17505613       6.52161887      14.16446622      -0.00232828       0.00158083      -0.00068691
H       13.06976812       5.12546248      13.38761418      -0.00315440      -0.00306862       0.00822030
C       12.29156420       8.36169734       9.55289096       0.00757365      -0.00556389       0.00394373
C       11.21310588       7.48634755       9.69942142       0.00883871      -0.00302301       0.00420360
C       13.41966868       7.89990613       8.88116876       0.00814015      -0.00153320       0.00384330
C       12.22604305       9.75907725      10.08903758       0.00549755      -0.00415140       0.00275834
C       11.25871253       6.19943017       9.19192195       0.00977731      -0.00728478       0.00334247
C       13.47020612       6.61226300       8.36234551       0.00791660      -0.00502485       0.00238193
C       12.38857012       5.75487389       8.51732174       0.01065798      -0.00202376       0.00391802
H       10.31019937       7.83616396      10.18349142       0.00839143      -0.00582965       0.00308654
H       14.24931186       8.57766406       8.72233744       0.00722624      -0.00286518       0.00390027
H       12.87668134      10.42277091       9.52129807       0.00595665      -0.00397397       0.00379303
H       11.21167184      10.14462593      10.00573900       0.00504062      -0.00620533      -0.00064623
H       12.53556822       9.79390233      11.13850752       0.00298187      -0.00256389       0.00332448
H       10.39883984       5.55069891       9.29633323       0.01109755      -0.00588577       0.00489748
H       14.34825289       6.28267023       7.81897991       0.00874511      -0.00170220       0.00197306
H       12.41640867       4.75692738       8.09794146       0.01063171      -0.00449520       0.00308052
C        4.37471255      10.71606246       1.79374461      -0.00332581      -0.00491309      -0.01565480
C        3.76639823      11.51061821       2.76478184      -0.01318000       0.02862632       0.01093495
C        3.60663894       9.72189992       1.18146509      -0.00095854       0.02566735       0.01531021
C        5.82143764      10.89720171       1.44116266      -0.00343347       0.02151658       0.00550745
C        2.43614795      11.32037386       3.12112631      -0.00997737      -0.00042699      -0.01950833
C        2.27189231       9.54091446       1.51982226       0.00902493      -0.00967018      -0.01652676
C        1.68065452      10.33963276       2.49261375      -0.00832883       0.02325962       0.01393852
H        4.35071915      12.28097596       3.25663281      -0.01403837       0.01261126      -0.00613195
H        4.06509097       9.08607113       0.43322224       0.00655793       0.00658038      -0.00166782
H        5.95542782      11.07269133       0.37370614      -0.00885184       0.03603932       0.00437346
H        6.25495787      11.73758360       1.98284665      -0.00368240       0.00895368       0.01392113
H        6.39526386      10.00148602       1.69525514      -0.00152665       0.01453289      -0.01507332
H        1.99416660      11.93359669       3.89656634      -0.01494149       0.01305088      -0.00113857
H        1.68810949       8.77470352       1.02363095       0.00803647       0.00354166       0.00496366
H        0.64055114      10.19879065       2.75757825      -0.00006627      -0.00311648      -0.00417108
C        7.89867054      10.27745526      12.38381558      -0.00857414      -0.00421044       0.00598116
C        6.77788269       9.44998219      12.46428876       0.00657869       0.00267020       0.00543398
C        7.71409759      11.60004961      11.98448509       0.00370267       0.00525352       0.00678293
C        9.26724345       9.74989296      12.69756075      -0.00199690       0.00206390       0.00282129
C        5.51205886       9.92922286      12.16021941      -0.01143822      -0.00161748       0.00409967
C        6.44644122      12.09009595      11.69486380      -0.01464123      -0.00401543       0.00707728
C        5.33954914      11.25558647      11.78309591       0.00673586       0.00591950       0.00542670
H        6.90452344       8.41390069      12.76153053      -0.00276800       0.00053541       0.00328678
H        8.57548668      12.25247625      11.90447864      -0.00620420       0.00035258       0.00786814
H        9.98973586      10.55945959      12.78902564      -0.00147794       0.00019336      -0.00247902
H        9.26826802       9.18186440      13.62980655      -0.00046604       0.00460853       0.00528139
H        9.62547195       9.07994808      11.91300632      -0.00644639      -0.00245085       0.00415078
H        4.65728642       9.26646080      12.20634117      -0.00024304       0.00149534       0.00365472
H        6.32806313      13.12428338      11.39568936      -0.00361020       0.00282569       0.00749328
H        4.35075549      11.63054739      11.55118896      -0.00588714       0.00078158       0.00481955
C        4.35775321       9.11320849       8.80210825       0.00536023       0.00698793      -0.00583532
C        4.93558688       7.92776327       9.25830337       0.00179061      -0.00641784       0.00075752
C        5.19711222      10.19095719       8.52536049       0.00128390      -0.00800529      -0.00193486
C        2.87032545       9.22656308       8.63296425       0.00251886      -0.00109075      -0.00514399
C        6.30948989       7.82518407       9.42988126       0.00596905       0.00514302      -0.00354917
C        6.57111681      10.09105149       8.69877115       0.00867642       0.00439610      -0.00711637
C        7.13557581       8.90568373       9.14695429       0.00142822      -0.01350898      -0.00043425
H        4.29826217       7.07421481       9.46584828       0.00333770       0.00038484      -0.00147888
H        4.76539953      11.11688596       8.16028556       0.00570421      -0.00148267      -0.00626814
H        2.60861384       9.99769306       7.90719110       0.00442144      -0.00136514      -0.01430778
H        2.43693773       8.28342852       8.29939517       0.00499890      -0.00204405      -0.00162582
H        2.37942840       9.48474585       9.57587743       0.00400098       0.00629994      -0.00689971
H        6.74020546       6.88794772       9.76253406       0.00277647      -0.00518498      -0.00211443
H        7.21664657      10.92655029       8.46095815       0.00542220      -0.00792041      -0.00871907
H        8.21376475       8.82798022       9.21671653       0.00477332      -0.00476245      -0.00858153
