145
Lattice="13.620506995635122 0.0 0.0 0.0 13.620506995635122 0.0 0.0 0.0 13.620506995635122" Properties=species:S:1:pos:R:3:forces:R:3 energy=-286835.1875 stress="0.0003446039336267859 -0.0005297375028021634 -0.0002022376866079867 -0.0005297375028021634 -0.00015964824706315994 8.986526154330932e-05 -0.0002022376866079867 8.986526154330932e-05 0.00010367195500293747" pbc="T T T"
Mo      12.07985673      12.15690891      -0.62047082       0.00483489       0.00105596       0.00689805
Cl      10.60256691       8.96086275       8.40797911       0.00621355       0.00896835       0.00890946
O        9.65409834       9.42439852       9.47328235       0.00450301      -0.00264692       0.01182222
O       11.91662193       8.68475771       9.08811581       0.00624442       0.00635475       0.00754595
O       10.08018088       7.71246379       7.83336303       0.00966179       0.01144052      -0.00110281
Cl       5.83643851       9.74256475       3.99404012      -0.00694525      -0.00154448       0.00240493
O        5.88084660       9.73507916       2.51198503      -0.00308116       0.00439531       0.00252652
O        7.20926992      10.01619496       4.51046863      -0.00627708      -0.01400924       0.00654268
O        4.93257069      10.82803395       4.44800530       0.00013304       0.00331855       0.00435919
Cl       7.64601027       1.05986984      12.50666342      -0.01427868       0.00040579      -0.00043964
O        8.23484915      -0.31380234      12.56019616      -0.01025319       0.00200033       0.00154153
O        8.52979619       1.88678589      11.62550897      -0.01510453       0.00690269       0.00502777
O        6.32506496       0.95424833      11.83784958      -0.00890350      -0.00364566      -0.00997663
Cl      11.25551350       9.54192933       0.16064628       0.01684383      -0.00477937      -0.00117101
O       13.47754683      13.07953639      -0.76731471      -0.00023657       0.00871104       0.00701809
O       12.70156266      10.44277861       0.02843132       0.01454064       0.00007683      -0.00413868
O       11.12118296      12.82362463       0.58067877       0.00644726      -0.00837234       0.01381296
Cl      11.44185771       2.20799872       3.76376966      -0.00630623      -0.00738502       0.00893521
O       12.43960068       3.27166661       3.97217465      -0.00964546      -0.00987697       0.03367475
O       11.54544013       1.62586474       2.42189120       0.00522998       0.01610076       0.00032806
O       10.08270474       2.70350904       4.04614660      -0.00871658      -0.01253891       0.00548667
Cl       3.64672180       3.03414211       1.48208215       0.00933385       0.01022434       0.00863570
O        5.03363038       2.61323379       1.21855853       0.00720477       0.00506192       0.00745153
O        3.59202314       3.81496900       2.74558698       0.00759644      -0.01222003       0.02146435
O        3.20026632       3.92514612       0.36569517       0.02294099       0.03467369       0.02405262
C        7.38937996       5.64348823       1.56742308      -0.00142678       0.00987780      -0.00810476
C        7.39147543       4.31322430       1.96607578       0.00404832       0.00670245      -0.00694773
C        7.02278126       6.64726978       2.45726568      -0.00093129       0.00423017      -0.00212720
C        7.04198055       3.98295665       3.26947901       0.00988000       0.00550938      -0.00553993
C        6.66531689       6.31164873       3.75785231       0.00195652       0.00269751      -0.00169443
C        6.68012996       4.98121028       4.16268362       0.00689335       0.00067112      -0.00498602
H        7.65659005       5.89715307       0.54873759      -0.01225308       0.01570212      -0.01000983
H        7.64119618       3.53350416       1.26168146       0.00130269       0.00764889      -0.00859912
H        6.99210869       7.68478929       2.14907772      -0.00469511       0.00681135      -0.00017440
H        7.02556020       2.94451366       3.56582910       0.01725544       0.00454979      -0.00692262
H        6.37503847       7.09262505       4.44963396       0.00227222       0.00093724      -0.00095654
H        6.39619973       4.72063964       5.17495153       0.01026693       0.00072589      -0.00542231
C       10.17903585       6.88373449       4.42960630       0.00053450      -0.00288258      -0.00224901
C       10.02137040       8.25613635       4.58997030       0.00054687      -0.00516478      -0.00177708
C       11.44655389       6.32905878       4.30656439       0.00333047      -0.00296226      -0.00370812
C       11.14455761       9.07422441       4.63076795      -0.00237568      -0.00201482      -0.00136749
C       12.56752733       7.14919764       4.35384744       0.00034517       0.00055754      -0.00486224
C       12.41661271       8.52213151       4.51879913       0.00014949      -0.00179271      -0.00432781
H        9.31056590       6.23984112       4.39772211       0.00235559      -0.00498572      -0.00256797
H        9.03192359       8.69270434       4.66853095      -0.00116494      -0.00601947       0.00171748
H       11.56606552       5.26159182       4.16279706       0.00350741      -0.00185043      -0.00417172
H       11.02534381      10.14320139       4.75863976      -0.00269818      -0.00357525       0.00152865
H       13.55675544       6.72288020       4.24643499       0.00201087       0.00109451      -0.00611143
H       13.29305315       9.15828975       4.54328132      -0.00159456       0.00036636      -0.00247067
C        2.70369239       9.38223164       1.67314479       0.00933616      -0.00139105      -0.00168790
C        3.09914818       8.16708997       1.12731483       0.00321537      -0.00513031      -0.00329924
C        2.45700552       9.48163020       3.03460896       0.00920433      -0.00473005      -0.00103648
C        3.24870650       7.04770374       1.93684565      -0.00301906      -0.00434980      -0.00562316
C        2.61148069       8.36499429       3.84828926       0.00262327      -0.00441189      -0.00327805
C        3.00518859       7.14951973       3.30128030      -0.00202489      -0.00778660      -0.00513811
H        2.62664827      10.26254247       1.04966559       0.01528486      -0.00123727       0.00015156
H        3.31651832       8.09688362       0.06946545       0.00289151      -0.00320921      -0.00367005
H        2.19516548      10.43826915       3.46479806       0.01482757      -0.00270359       0.00047085
H        3.55787585       6.09411381       1.52594903      -0.00793799      -0.00647452      -0.00782127
H        2.44950388       8.45623830       4.91531881       0.00290891      -0.00734580      -0.00300054
H        3.14078744       6.27232901       3.92130865      -0.00667585      -0.00897136      -0.00833710
C        5.54304171       8.64960084      10.84489340       0.00183795      -0.00980270       0.00323049
C        4.51406406       9.55883439      11.06455310      -0.00116342      -0.01270539       0.00281283
C        6.85448300       9.09610022      10.72911936      -0.00022531      -0.00501139       0.00146065
C        4.80083334      10.91361886      11.18061382      -0.00449711      -0.01193215       0.00107514
C        7.13454472      10.45146995      10.85861961      -0.00315183      -0.00444762       0.00326402
C        6.11244653      11.36340384      11.09015815      -0.00611934      -0.00762448       0.00322440
H        5.31044080       7.59690950      10.73845146       0.01171202      -0.01294254       0.01443884
H        3.49156968       9.20718485      11.12818215       0.00023808      -0.01562888       0.00546672
H        7.66292588       8.41361661      10.49958670       0.00009832      -0.00509869       0.00022494
H        3.99885495      11.62553135      11.33324961      -0.00647664      -0.01477532       0.00391110
H        8.15395449      10.78911486      10.73805560      -0.00385836      -0.00207888       0.00684418
H        6.33623391      12.41782074      11.20049838      -0.00984234      -0.00710386       0.00462651
C        5.18826486      13.46364555       3.40993129       0.00122676       0.00119651      -0.00171301
C        6.10657823      13.08439088       2.43859204      -0.00244084      -0.00059049      -0.00221112
C        3.84369609      13.59578579       3.08670183      -0.00056976       0.00741567      -0.00201660
C        5.67843550      12.81977541       1.14591933      -0.00040840       0.00594819      -0.00334334
C        3.41271657      13.32601654       1.79405138       0.00115120       0.01278359      -0.00290649
C        4.33238312      12.93662187       0.82720927      -0.00222668       0.01336855      -0.00436291
H        5.51705232      13.64022464       4.42452755      -0.00002322      -0.00219486      -0.00123394
H        7.15172900      12.97223624       2.69416829      -0.00118420      -0.00499012      -0.00293585
H        3.13285790      13.90846547       3.84084653       0.00201454       0.00715740      -0.00025128
H        6.39404567      12.52742299       0.38973047      -0.00274146       0.00504069      -0.00368154
H        2.36522416      13.42684560       1.53618781       0.00020896       0.01710712      -0.00286771
H        4.00507472      12.73804419      -0.18375946      -0.00094674       0.01896504      -0.00557922
C        5.83781370       9.59002803       7.40433375      -0.03999227      -0.01465292      -0.00050386
C        4.51943144       9.15518108       7.35526271       0.04708739       0.00539102       0.00231667
C        6.11372990      10.94660512       7.50622279       0.03206116       0.00766742       0.00371704
C        3.47979541      10.07437256       7.41423789      -0.02704757      -0.01249278       0.00221095
C        5.07771396      11.86695165       7.56441748      -0.04554699      -0.01189834       0.00388527
C        3.75936559      11.42946390       7.51865014       0.03916664       0.01018073       0.00644400
H        6.65404316       8.88262746       7.34803990       0.01068710      -0.00193635      -0.00119881
H        4.30329575       8.09786413       7.26382895       0.00239889      -0.00783351      -0.00097796
H        7.14301390      11.27842237       7.52386431      -0.01229009      -0.00148734       0.00273612
H        2.45091565       9.73585128       7.37155299       0.01201263      -0.00453398       0.00387558
H        5.29517284      12.92495822       7.63840109      -0.00079224       0.00262474       0.00689862
H        2.95031009      12.14833279       7.55406479      -0.00837442      -0.00415330       0.00693231
C        5.30841957       2.30632632       8.78436772      -0.00221322      -0.00734481      -0.01078454
C        4.72275274       2.60877178       7.55927693      -0.00070050      -0.00654689      -0.00357733
C        6.57933120       1.74481798       8.82961979       0.00115840      -0.00471301      -0.00584939
C        5.40292520       2.35031819       6.37217119      -0.00035830      -0.00009313      -0.01041606
C        7.26136584       1.49644344       7.64479401       0.00113034       0.00158377      -0.01283843
C        6.67843258       1.79673327       6.41906189       0.00300004       0.00264401      -0.00545964
H        4.78633335       2.49901173       9.71374900      -0.00237121      -0.01253999      -0.00660107
H        3.73159918       3.04564400       7.52477981      -0.00288840      -0.00902646      -0.00669786
H        7.01753177       1.51005047       9.79166061       0.00046580      -0.00598279      -0.01032680
H        4.94592308       2.58201289       5.41708258       0.00021407       0.00087612      -0.00638953
H        8.25273984       1.06141491       7.67680802       0.00305857       0.00308663      -0.00898450
H        7.22064141       1.60154879       5.50271943       0.00318202       0.00799793      -0.00961633
C        9.45511561       4.01385708       9.60889096       0.00412193      -0.01132663       0.00699439
C        9.67894051       5.11214755      10.43116819       0.00665163      -0.00683331       0.00289993
C       10.39265231       3.67211187       8.64298453      -0.00118034      -0.00878620       0.00141318
C       10.83169117       5.86888938      10.28448768       0.00087924      -0.00318918      -0.00884986
C       11.56025950       4.41763976       8.51000729      -0.00623907      -0.00549726      -0.01047249
C       11.77751099       5.51549752       9.32936806      -0.00440463      -0.00044242      -0.01461884
H        8.55945312       3.42398716       9.73484149       0.00801626      -0.01383451       0.01598096
H        8.93849624       5.38451606      11.17275940       0.01055737      -0.00836731       0.00742902
H       10.20694643       2.83444813       7.98309934      -0.00274099      -0.01196960       0.00450991
H       10.98419370       6.76435747      10.87185410       0.00173427       0.00044499      -0.01288142
H       12.28029181       4.16436697       7.74148725      -0.01073498      -0.00439712      -0.01458718
H       12.64939063       6.13770890       9.19767192      -0.00900871       0.00253451      -0.02357331
C        2.77804508       5.23717133      11.35074009      -0.00187910       0.00580788      -0.00366309
C        2.86420117       5.64846821      10.02504877       0.00017795      -0.00104468       0.00036445
C        1.92545541       5.90180602      12.22505785      -0.00287427      -0.00116479      -0.00183937
C        2.09426120       6.71510169       9.57231791      -0.00689161       0.00012532      -0.00637037
C        1.16354074       6.97406641      11.77407689      -0.01018013      -0.00004067      -0.00895405
C        1.23983933       7.37958990      10.44549646      -0.00790466      -0.00655428      -0.00486486
H        3.36392662       4.41051397      11.72971170       0.00345698       0.00628173       0.00085576
H        3.53309105       5.13625865       9.34288758       0.00122409       0.00339058      -0.00081653
H        1.87803376       5.56701871      13.25228871      -0.00413509       0.00395754      -0.00367236
H        2.15315034       7.02913799       8.53752618      -0.00511715      -0.00406222      -0.00453660
H        0.50833690       7.49794500      12.46011562      -0.01142490      -0.00448903      -0.00786117
H        0.61641813       8.18876135      10.08518037      -0.01264197      -0.00687478      -0.00912855
C       12.88609515      12.81745111       9.52253316      -0.00497290       0.01312753       0.00664621
C       12.09937961      13.89378912       9.91924362      -0.00302115       0.01291908       0.01097533
C       12.59808241      11.52584067       9.95440673      -0.00429685       0.01248197       0.00459641
C       11.01757444      13.70237860      10.77077716      -0.00150304       0.01163337       0.01293796
C       11.48994024      11.29252412      10.77089095      -0.00274690       0.01133430       0.00683983
C       10.69953653      12.39566771      11.20619651      -0.00113803       0.01093518       0.01102073
H       13.72426723      12.97964356       8.85616564      -0.00547644       0.01442289       0.00610235
H       12.31831834      14.89097704       9.55919215      -0.00228039       0.01370296       0.01378838
H       13.16775618      10.67526026       9.60661666      -0.00510842       0.01286674       0.00231048
H       10.37489635      14.51940914      11.08848729      -0.00082758       0.01133296       0.01427647
H       11.17361931      10.27350715      10.95548763      -0.00405089       0.01101863       0.00337110
H        9.74336625      12.26856941      11.72005069      -0.00182933       0.00991582       0.00961682
