142
Lattice="12.053258287454366 0.0 0.0 0.0 12.053258287454366 0.0 0.0 0.0 12.053258287454366" Properties=species:S:1:pos:R:3:forces:R:3 energy=-281034.46875 stress="-0.0007353842374868691 0.0003754729696083814 -3.6301904401625507e-05 0.0003754729696083814 -0.0016964749665930867 -6.70087756589055e-05 -3.6301904401625507e-05 -6.70087756589055e-05 -0.0005990680074319243" pbc="T T T"
Mo      10.15917023      12.75497503      -0.54714822       0.00965354      -0.03265910      -0.00191207
O        9.77181088      12.19357638       5.87847483      -0.00837338      -0.00914037       0.00114644
O       10.56863841      10.59409716       7.81549001      -0.01254487      -0.00755835       0.00573111
O        8.66062276       9.77282243       6.17608189      -0.02999824      -0.00384080       0.02149379
O        8.12193613      11.95116861       7.93231742       0.00163195      -0.00207594       0.01471643
Cr       9.33716940      11.02312293       6.89083148      -0.00262165       0.01043773       0.01075161
O        4.22936150       9.97123282       3.76058020      -0.03278267       0.06914571      -0.02274847
O        5.86095840       8.80746035       5.54044551       0.01273769       0.03928369      -0.04664084
O        3.95710914      10.69444349       6.31614743      -0.01105881      -0.03934824       0.01127636
O        6.04339086      11.49712949       4.93179819      -0.05404854       0.04658329       0.00598647
Cr       4.97827125      10.31817229       5.14236964      -0.02457547       0.00085616      -0.07244045
O        7.15584375      11.37083798       8.74410190      -0.00388578       0.01262943       0.01994422
O        8.58311070       9.11896794       9.40782457       0.00560737       0.00049680       0.00786284
O        6.57903648       9.85120544      10.90205657      -0.00943682      -0.01018012      -0.02540648
O        9.42135239      11.29245460      11.52261333       0.03108063      -0.04379970      -0.00304016
Cr       7.15585831       9.75515717       9.43775223      -0.03976649       0.00506616       0.01331043
O        9.79342687       7.83096413       0.08201171      -0.00796157      -0.00205953       0.00655115
C       10.59907999       7.72138662       1.25023943      -0.00504735      -0.00145036       0.00528246
C       10.00381125       6.79142190       2.28698959      -0.00327268      -0.00409341       0.00419307
H       11.56120025       7.33865502       0.89780307      -0.00526816       0.00059915       0.00386815
H       10.79329694       8.70686589       1.68717582      -0.00577983      -0.00168973       0.00509125
H       10.69032992       6.67177472       3.12765882      -0.00527449      -0.00299954       0.00597779
H        9.06749492       7.20284316       2.66926534      -0.00560620      -0.00747328       0.00140952
H        9.81053167       5.81260733       1.84533211       0.00285385      -0.00417364       0.00228702
H        8.91635100       8.13039154       0.34183398       0.00542477       0.03644039       0.00201163
O        9.82992327       3.30741286       1.74922538       0.02781800       0.00541401      -0.01922929
C       10.05127184       1.93415046       1.52008918      -0.00329097      -0.00164026      -0.00050217
C       11.50319807       1.64471379       1.20238011      -0.01540847      -0.03996998      -0.01094255
H        9.65566588       1.29328844       2.31137953      -0.00636479       0.02173859       0.01582125
H        9.26043804       1.80697948       0.65386612      -0.00510463      -0.02872477       0.01125730
H       11.75448168       0.57299407       1.08428998      -0.05505875      -0.05077228      -0.03121817
H       11.84119341       2.24305737       0.34067667      -0.00199952      -0.04215705      -0.00648235
H       12.14924719       1.94599312       2.03027977       0.00828490      -0.08463573      -0.01599187
H        9.89059037       3.44958929       2.70249010      -0.05697833       0.00300770      -0.01751912
O        7.10488699       1.95456441       3.20309228       0.02805952       0.02203830      -0.03209746
C        7.36093737       2.22028216       4.58237473       0.01715729       0.01474839      -0.02916169
C        8.67671115       2.93704582       4.78851549       0.01388258       0.01597303      -0.01394827
H        6.53180324       2.80980418       5.00148071       0.01345691       0.01010343      -0.03108132
H        7.34003038       1.25011737       5.07697102       0.01479401       0.01200968      -0.03497908
H        8.78865996       3.28612611       5.81340624       0.01088069      -0.00331600      -0.00705507
H        9.50896291       2.26092836       4.58211429       0.01686038       0.02354009      -0.02457543
H        8.72454104       3.82405298       4.15018913       0.01263990       0.03016636       0.00505751
H        7.21140050       2.77910185       2.71755925      -0.01393471       0.03291824      -0.02122577
O        7.31827891       8.84688073       2.71942754      -0.00651699      -0.00006032       0.02189945
C        7.95281313      10.06528371       2.32750979      -0.01286905       0.00176728       0.02745920
C        6.96646351      11.11996199       1.87049491      -0.01063079      -0.00676531       0.00358713
H        8.57423420      10.44349757       3.14790085      -0.02723289       0.01281270       0.03325874
H        8.61587066       9.80729467       1.49658881       0.00362745       0.00511438       0.03774107
H        7.49463715      12.03020128       1.58218813      -0.00960603      -0.01002257      -0.00571605
H        6.39892709      10.75870273       1.01600685      -0.00276031      -0.01840226       0.00273837
H        6.29869706      11.37742011       2.69213219      -0.01948298       0.00057817      -0.00714391
H        6.92508967       8.98050926       3.59323528       0.02210517      -0.02029721       0.04527344
O        1.13058940       3.48262443      10.04471084       0.01292220      -0.02120320       0.00041807
C        2.28222384       2.90566023      10.67628608       0.01917855      -0.01545933      -0.00389166
C        2.28176754       1.39563617      10.63129165       0.03477979      -0.01420075      -0.02178561
H        3.20074812       3.29218618      10.23569069       0.01484895       0.00033963       0.00145963
H        2.24803180       3.25907608      11.70827137       0.01462556      -0.02838077       0.00003392
H        3.15568847       1.02124391      11.16258437       0.03359240      -0.01246563      -0.01883556
H        1.39375904       0.99266529      11.12248595       0.03346699      -0.02927101      -0.03712395
H        2.29872273       1.02411522       9.60384200       0.04708023       0.00033933      -0.02684754
H        1.24883492       3.40835705       9.09401315       0.01538077      -0.00661103       0.00094968
O        3.95879123       1.32370143       1.51961308       0.01132964      -0.00678027       0.01608312
C        3.85428558       2.47710652       2.33986230       0.00086138      -0.01130262       0.01752239
C        3.69838950       2.11587706       3.80297520      -0.00367656      -0.00822851       0.01843446
H        4.71932763       3.13324838       2.18703554      -0.00365067      -0.00401309       0.02277802
H        2.97688926       3.02062289       1.97547938      -0.00163537      -0.01664840       0.01446426
H        3.61935213       3.01617103       4.41786462      -0.01121228      -0.00534200       0.01306216
H        2.80650886       1.50762281       3.95709337      -0.00129196      -0.01192296       0.01682610
H        4.55726917       1.53585712       4.14451645      -0.00348169      -0.00391817       0.02574874
H        4.76093767       0.85902037       1.78473035       0.01731582      -0.00173678       0.01363675
O        5.52057079       5.22616833       6.19037983       0.01410230      -0.02179623       0.00706619
C        5.26813534       5.79431400       4.88751663       0.00463408      -0.01292540       0.01213911
C        6.50555820       5.81416102       4.02166185      -0.00272119      -0.00227430       0.00276497
H        4.45988882       5.24316474       4.39889063       0.00356889      -0.01392478       0.01506859
H        4.93004108       6.81187456       5.07256930       0.00316890      -0.01605505       0.02030264
H        6.25752597       6.15904663       3.01949594      -0.00864002       0.02384342       0.01344612
H        7.25628354       6.48354376       4.43885120       0.00376834      -0.01547444       0.01160787
H        6.93179912       4.81421378       3.94557811      -0.01017291      -0.00269142      -0.02445858
H        5.54811719       4.27000610       6.09052867       0.03119223      -0.01832468       0.00032242
O        9.36638924       2.55683085       7.78084874      -0.01327920       0.00163960       0.00126263
C       10.69262406       2.34554268       8.18993050      -0.01384923      -0.00415540      -0.00057077
C       10.76761781       1.36305972       9.38118084      -0.01201573       0.00879878       0.01059826
H       11.30727246       1.93614828       7.38143759      -0.02073088      -0.01509014       0.00004056
H       11.07693532       3.31953906       8.49102238      -0.00529352      -0.00459322      -0.01035433
H       11.67436550       1.58568316       9.97085843      -0.01780032       0.02514614       0.01333429
H        9.78112797       1.67690295       9.89734301      -0.00876117      -0.00206187       0.01803178
H       10.75756224       0.32170591       9.02026384       0.00040026       0.00550610       0.01895902
H        9.01272006       1.71871925       7.45178645      -0.01983136       0.00067937       0.01077650
O        8.16873270       3.65494009      10.14819413       0.00920773       0.00261790       0.00317800
C        8.67430971       4.73189167      10.94467847       0.01170582       0.01374181      -0.01244771
C       10.16845663       4.88436274      10.79632468       0.01125008       0.01256372      -0.01792799
H        8.17123776       5.66889457      10.68790001       0.01143566       0.01052880      -0.02364793
H        8.41565169       4.47410075      11.97278402       0.01506492       0.02786930      -0.00880808
H       10.54490837       5.61175796      11.51158416       0.00920421       0.02688845      -0.03164248
H       10.67767186       3.93403446      10.96377842       0.01347489       0.01728505      -0.00087280
H       10.42205279       5.23948109       9.79658954       0.00916449      -0.00455558      -0.02448048
H        8.36790269       3.82622513       9.21427919      -0.00040253      -0.00747062       0.00031419
O        8.10694395       5.58979760       7.60258064      -0.01390204      -0.01730961      -0.00818324
C        8.60286621       6.81298392       7.03730205      -0.00171900      -0.01543078       0.01066244
C        9.69398019       6.58921415       6.00825965       0.00633198      -0.01217388       0.01849276
H        7.78083230       7.36320278       6.57783717       0.00733143      -0.00257882       0.01270428
H        8.99044219       7.43123425       7.84580377      -0.00111684      -0.02811417       0.02264398
H        9.95846896       7.55237647       5.56831394       0.02315832      -0.01023570       0.03293727
H       10.58495267       6.15380664       6.46355142      -0.00471395      -0.02985594       0.02069286
H        9.35370249       5.92503449       5.21388467       0.00717738       0.00205455       0.00597781
H        7.25763462       5.41876467       7.17034013      -0.01770201      -0.00215605      -0.00850605
O        4.23357478       6.74866343       1.93705270      -0.00563991       0.00993755       0.00814430
C        2.81203230       6.73622158       1.93843027      -0.00375521       0.01623782       0.00334272
C        2.21792655       7.31581054       3.20363048      -0.01072755       0.00021285       0.00681496
H        2.42711438       7.27732150       1.06576975      -0.00128150       0.02592477       0.00828761
H        2.53312045       5.68529941       1.81881674      -0.00373954       0.01723814      -0.01068666
H        1.13127508       7.36172827       3.12519900      -0.01073322      -0.00997255       0.00540271
H        2.48866823       6.71443154       4.07195571      -0.00869159      -0.00538160       0.00229798
H        2.58235264       8.33242572       3.36526376      -0.01761769       0.00171629       0.01723353
H        4.52919047       7.62647864       2.20744928      -0.00090760       0.01642867       0.00402699
O        6.04286389       8.74439929       8.53661270      -0.00557977       0.01504517      -0.04525411
C        4.62875946       8.86501398       8.79039567      -0.00068930       0.01235223      -0.01670289
C        3.86142259       7.87363032       7.94541748      -0.00485721       0.00749242       0.00178725
H        4.47395801       8.69365365       9.85995480       0.03755787      -0.01523517      -0.02511543
H        4.32187626       9.88464368       8.54274090      -0.02116308       0.01514030       0.01297086
H        2.83662701       7.81702498       8.31606056      -0.00427385       0.00627362       0.01242107
H        3.82743299       8.19976854       6.90935811       0.03383453       0.00994152       0.00476477
H        4.30955268       6.88307521       7.99362425      -0.00144786       0.01095964       0.00955643
H        6.29268989       8.86295748       6.40376861       0.04713879       0.05579367      -0.05830595
O        1.10408093       9.72110684       1.22966803      -0.01008558       0.01903260      -0.00009090
C        2.15222972      10.69273445       1.17810608       0.00074619       0.01094553       0.00170752
C        3.46320451      10.14098903       0.66043173      -0.01305282       0.00190553      -0.02190053
H        1.83932224      11.54138811       0.56378132       0.00253087       0.02252460       0.01642779
H        2.27863605      11.04546610       2.20077414       0.01731301      -0.00430521       0.00337124
H        4.14434614      10.95704283       0.42148015      -0.00340761      -0.00489783      -0.01717733
H        3.94766545       9.52577743       1.41541468      -0.01384440      -0.01264635      -0.03395692
H        3.31787301       9.55629057      -0.25097912      -0.02927034       0.01526824      -0.02824837
H        0.94857470       9.40508401       0.33464778      -0.01746031       0.02647545       0.00280778
O        5.61270714       3.26353497      11.14429832       0.01229878       0.00902426       0.00629842
C        5.23916860       4.59039763      11.46861664       0.00802553       0.00833344       0.01112254
C        5.06073478       5.46952961      10.24533445       0.00234623       0.01057076       0.01379812
H        4.30151862       4.52065128      12.02364848       0.00750113       0.00464615       0.01451114
H        5.96407623       5.05331946      12.15056401       0.00657380       0.00955883       0.01108852
H        4.72034625       6.46248904      10.54205196       0.00371062       0.01014979       0.01599321
H        5.99644420       5.58435979       9.69458107       0.00078434       0.00912902       0.01107126
H        4.32335701       5.04171059       9.56398130       0.00014558       0.01133746       0.01610295
H        6.47238346       3.31047033      10.68746713       0.01058084      -0.01442998      -0.00019546
