139
Lattice="12.919712460701556 0.0 0.0 0.0 12.919712460701556 0.0 0.0 0.0 12.919712460701556" Properties=species:S:1:pos:R:3:forces:R:3 energy=-202595.96875 stress="0.0002904903085436672 0.00024855887750163674 -3.054482294828631e-05 0.00024855887750163674 0.00024771265452727675 -0.00020101516565773636 -3.054482294828631e-05 -0.00020101516565773636 -0.0006753195775672793" pbc="T T T"
Mo      10.29129566      12.33824903       2.01672458      -0.01685799       0.02107935       0.02909678
P        6.83464838      11.93261991       1.83349540      -0.01517478       0.00758664       0.01919794
O        6.30163580      12.23237532       3.33224260      -0.01073451       0.01863425       0.01848888
O        6.79148684      10.47804925       1.56517876      -0.00228670       0.00524604       0.03153658
O        8.47718770      12.28087511       2.09275280      -0.01698184       0.02192105       0.00861057
O        6.33948259      12.99158366       0.93586436      -0.02974570      -0.00495684       0.01266372
H        6.45965194      11.45186132       3.87324928      -0.00038892       0.02725816       0.02771871
P       11.55391642      11.95651552       4.32853432      -0.00423798       0.01511756       0.02573848
O       13.14146323      11.94091648       4.47336056      -0.00228411       0.01642319       0.00434464
O       11.19492641      10.96691303       3.12636679      -0.02248917       0.01830703       0.02843958
O       11.12703889      13.27235641       3.53272201      -0.01472215       0.01636311       0.03435177
O       10.91317477      11.74105728       5.62082046       0.01930550       0.00588445       0.03613979
H       13.59742739      11.91721396       3.62465730      -0.01172882       0.03622676      -0.00089329
P        1.19826524      12.19945976       8.88430300       0.02013260      -0.01066151       0.00426383
O        2.63476335      12.62397969       8.38650213      -0.00053668      -0.00017071      -0.00123513
O       -1.81305738      12.72615177      13.52286490      -0.01047192       0.00678544       0.02870877
O        1.13735258      10.82542836       9.37485459       0.00966503       0.02311885      -0.00632237
O        0.22513105      13.26854893       8.76124469       0.01361549       0.00767246       0.00694859
H        3.26226741      11.89343088       8.49216935       0.00708359       0.00132215      -0.00787553
C        6.49616251       5.28000681       8.15563839       0.00146991       0.00269973       0.00096110
C        5.84911146       6.30623801       9.07547414       0.00169134       0.00251447       0.00133608
C        5.55252689       4.74478353       7.08499108       0.00028837       0.00031586       0.00325236
C        6.78250507       6.83623968      10.15759377       0.00159669       0.00139473       0.00197442
C        6.18383120       3.65265599       6.23308715      -0.00018516      -0.00024641       0.00356692
C        6.07817040       7.75932070      11.14107053       0.00053266      -0.00263652       0.00493622
H        7.37853881       5.72124544       7.67778991       0.00022843       0.00319126      -0.00078943
H        6.86594103       4.44041161       8.75575072       0.00356226       0.00376701       0.00110082
H        4.96452846       5.86171810       9.54707086       0.00167948       0.00229961       0.00110275
H        5.47488045       7.14425817       8.47867232       0.00177307       0.00284442       0.00172117
H        4.64956624       4.35694527       7.56862944       0.00160071       0.00000274       0.00535774
H        5.22092986       5.57112888       6.44630150      -0.00169665      -0.00085676       0.00284176
H        7.21900842       5.99154675      10.69994993       0.00330269       0.00077006      -0.00044164
H        7.61960462       7.35868339       9.68327921       0.00045863       0.00422192       0.00301358
H        7.06752742       4.02225346       5.70889968      -0.00127214      -0.00024331       0.00174470
H        5.49158811       3.27055898       5.48266021      -0.00116715      -0.00150935       0.00506352
H        6.50042567       2.81098899       6.85297146       0.00139484       0.00074475       0.00409250
H        5.64874781       8.62718317      10.63647213       0.00114593      -0.00078548       0.00763918
H        5.26080140       7.23265254      11.63768584      -0.00024128      -0.00464056       0.00153267
H        6.74694346       8.13337927      11.91594915      -0.00023769      -0.00653193       0.00753282
C        7.72444736       9.27353213       5.51507955       0.00237671       0.00665653      -0.00445375
C        7.11980478       9.49974064       6.89471559      -0.00163613       0.00324097      -0.00569719
C        8.32497804       7.88246698       5.34303603      -0.00146553       0.00548115      -0.00798595
C        6.55289091      10.90132500       7.08720156      -0.00043451       0.00332239      -0.00274029
C        8.93066882       7.67078544       3.96229611       0.00110291       0.00862984      -0.00735351
C        5.96410716      11.11793596       8.47601602      -0.00384608       0.00030149      -0.00379574
H        6.95506897       9.41646568       4.74405166       0.00611338       0.01238217      -0.00697592
H        8.49841753      10.02813826       5.32989236       0.00574240       0.00460404       0.00123942
H        7.88531839       9.31668206       7.65749167      -0.00440916      -0.00021893      -0.00365180
H        6.33198887       8.75799759       7.07414725      -0.00339821       0.00390469      -0.01080053
H        9.08947674       7.73027255       6.11182817      -0.00414771      -0.00005380      -0.00634369
H        7.54953365       7.13018918       5.53111935      -0.00427911       0.00725186      -0.01266342
H        7.34494267      11.63296163       6.90297003       0.00096256       0.00297317       0.00148674
H        5.78292136      11.08641960       6.32886210       0.00153652       0.00642712      -0.00393982
H        8.17628658       7.79619482       3.18330594       0.00283754       0.01213621      -0.00850020
H        9.36057730       6.67267414       3.86161434      -0.00004859       0.00836472      -0.00934017
H        9.72027921       8.40022281       3.77022762       0.00260215       0.00801441      -0.00366183
H        5.12928734      10.43284774       8.66027213      -0.00646982       0.00229636      -0.00864559
H        6.70551898      10.92734995       9.25452004      -0.00678970      -0.00496706      -0.00242181
H        5.61685964      12.14520200       8.61175915      -0.00089195       0.00088936      -0.00118349
C        3.09283386       9.18618028       3.38155937       0.00654098       0.00643009      -0.00073493
C        3.35155792       8.50322673       4.71887503       0.00439462       0.00303507      -0.00207491
C        3.76196409       8.49642201       2.19848747       0.00590885       0.00782669      -0.00182702
C        2.67346134       9.20068149       5.89195858       0.00430396       0.00191465      -0.00162053
C        3.46184462       9.18666839       0.87581466       0.00611764       0.01033217      -0.00056964
C        2.89596357       8.49003864       7.21950089      -0.00076547      -0.00174934      -0.00275323
H        2.00949311       9.22896248       3.21079908       0.00671020       0.00896536      -0.00113988
H        3.43885338      10.22585571       3.43010105       0.00835314       0.00561878       0.00171587
H        4.43257546       8.44764005       4.89873879       0.00416017       0.00081181      -0.00124573
H        3.00130355       7.46529045       4.66826772       0.00263424       0.00376835      -0.00456376
H        4.84488317       8.48449195       2.35141657       0.00589362       0.00712644      -0.00188720
H        3.43236949       7.45182122       2.16407355       0.00520886       0.00806382      -0.00364151
H        3.04220717      10.23162420       5.95309548       0.00657503       0.00068757       0.00158098
H        1.60240114       9.28259143       5.69178601       0.00494808       0.00484419      -0.00383316
H        2.38425776       9.26687076       0.71127765       0.00615913       0.00956442      -0.00128022
H        3.88873578       8.64121739       0.03508818       0.00726482       0.01264270      -0.00148863
H        3.89103167      10.18902399       0.86087420       0.00482795       0.01091611       0.00202478
H        2.53859214       7.45891470       7.17735120      -0.00272139      -0.00088958      -0.00604241
H        3.95951288       8.45201787       7.46577617      -0.00156082      -0.00446354       0.00012700
H        2.37406319       8.98480199       8.04023140      -0.00183508      -0.00250165      -0.00301443
C        3.45226817       3.08228403       2.68533748       0.00041930      -0.00419140      -0.00147081
C        4.69732635       3.95803359       2.61435631       0.00040669      -0.00358051      -0.00074584
C        2.16958660       3.86854497       2.93367721       0.00009505      -0.00454026      -0.00304440
C        5.98445762       3.16260573       2.43704251       0.00064267      -0.00343233       0.00146465
C        0.92253477       2.99398516       2.95086758       0.00028357      -0.00477386      -0.00093940
C        7.21616283       4.05244990       2.35093038       0.00037077      -0.00315028       0.00071563
H        3.35950989       2.51674326       1.75269679       0.00226342      -0.00652744      -0.00028637
H        3.57998507       2.33137725       3.47378113      -0.00205393      -0.00319885      -0.00023764
H        4.76476849       4.57011123       3.52323463      -0.00045858      -0.00201923      -0.00163826
H        4.58912197       4.67027068       1.78654889       0.00247756      -0.00357346      -0.00093976
H        2.25680026       4.40438767       3.88515629      -0.00006876      -0.00271244      -0.00396156
H        2.06824157       4.64087374       2.16354540      -0.00030873      -0.00597382      -0.00426826
H        6.09592757       2.45995164       3.26805297      -0.00104897      -0.00107542       0.00349855
H        5.91473114       2.53014304       1.54828027       0.00167224      -0.00539139       0.00277707
H        0.78581948       2.48742132       1.99303666       0.00101262      -0.00784498       0.00054614
H        0.02148985       3.57613025       3.14840821       0.00051749      -0.00351606      -0.00378529
H        0.98982926       2.22519732       3.72302416      -0.00068819      -0.00188611       0.00205551
H        7.15020969       4.74099979       1.50550699       0.00050969      -0.00418784      -0.00022091
H        7.33203165       4.66107377       3.25097790      -0.00042801      -0.00190537      -0.00007080
H        8.12521219       3.46195553       2.22529361       0.00096256      -0.00262995       0.00208796
C        6.65132025       2.32864176      11.42934618       0.00060289      -0.00332469      -0.00364732
C        8.02799385       2.97989807      11.46827788       0.00092187      -0.00430954      -0.00073065
C        5.50314361       3.32363191      11.54504874       0.00041793      -0.00360262       0.00014732
C        9.16363829       1.96424724      11.45824087       0.00091188      -0.00403208       0.00050800
C        4.14115492       2.64348665      11.54711775       0.00060216      -0.00427413      -0.00062624
C       10.54360772       2.60418795      11.48191092       0.00099993      -0.00537711       0.00574035
H        6.54662206       1.76646316      10.49258410       0.00098643       0.00076203      -0.00592628
H        6.57443919       1.59029506      12.23400039      -0.00066536      -0.00583699      -0.00598288
H        8.10857488       3.59963450      12.36921907       0.00002125      -0.00694498       0.00058845
H        8.14616210       3.66425810      10.61910583       0.00182336      -0.00177008       0.00153074
H        5.62342151       3.90264012      12.46702171       0.00072757      -0.00634572       0.00180110
H        5.55442177       4.04708461      10.72519457      -0.00042138      -0.00106046       0.00223553
H        9.04907207       1.29891232      12.31926089      -0.00213140      -0.00613232      -0.00157830
H        9.06865933       1.32602280      10.57410549       0.00517568      -0.00192118      -0.00107124
H        3.96850970       2.12067289      10.60369668      -0.00114373      -0.00053243      -0.00226858
H        3.32764166       3.35834513      11.68472097       0.00051138      -0.00513506       0.00401564
H        4.08598061       1.90377189      12.34747222       0.00254102      -0.00736544      -0.00329344
H       10.69140897       3.24866913      10.61247851       0.00494072      -0.00590748       0.00620221
H       10.67367870       3.22055896      12.37484733      -0.00273104      -0.00571853       0.00606841
H       11.33256978       1.85169160      11.47862174      -0.00012779      -0.00653678       0.00896855
C       10.30541706       9.81476873      10.19244100      -0.00449745      -0.00520760      -0.01300886
C       10.72387776      10.03349816       8.74795723       0.00805098      -0.01007849      -0.01047730
C        9.68694685      11.04854722      10.83237951      -0.00574915      -0.00369692      -0.01596837
C       11.37816352       8.80443745       8.13381533       0.00703222      -0.01580894      -0.00110419
C        9.05048260      10.76212582      12.17668688      -0.01973325      -0.00556929      -0.02231887
C       11.77790687       9.01223486       6.68213512       0.01234833      -0.02983440      -0.00167602
H        9.59022082       8.98398776      10.24616562      -0.00727105      -0.00312680      -0.01848830
H       11.17524186       9.49946734      10.78094191      -0.00999379      -0.00772250      -0.00647609
H       11.40972578      10.88344570       8.68831294       0.01232490      -0.01331720      -0.00795617
H        9.85513389      10.32933895       8.15024707       0.01539168      -0.00834575      -0.01998860
H       10.44956134      11.82615556      10.93731160      -0.00433502      -0.00615016      -0.00681642
H        8.92864978      11.46143651      10.15821754       0.00294486       0.00056756      -0.02267820
H       12.26031755       8.54445349       8.72775253       0.00434470      -0.01681309       0.00241484
H       10.69208922       7.95329053       8.21724609       0.00369394      -0.01230934       0.00252806
H        8.24696350      10.02892715      12.12056708      -0.01735450      -0.00725587      -0.03618670
H        8.61394183      11.66279867      12.60175072      -0.02647981      -0.00818554      -0.02300444
H        9.78920579      10.36162306      12.88045737      -0.02843232      -0.00662202      -0.01488564
H       10.91737057       9.28399693       6.07208958       0.01486677      -0.03575963      -0.00792799
H       12.47263694       9.84836501       6.59402950       0.01508734      -0.03303412      -0.00687822
H       12.24497264       8.12332444       6.25427305       0.01155610      -0.03530936       0.00891639
