139
Lattice="12.788187321317844 0.0 0.0 0.0 12.788187321317844 0.0 0.0 0.0 12.788187321317844" Properties=species:S:1:pos:R:3:forces:R:3 energy=-227094.875 stress="-0.0004268124175723642 -0.00016246424638666213 0.0002962888538604602 -0.00016246424638666213 -0.00016345529002137482 0.0005293854337651283 0.0002962888538604602 0.0005293854337651283 -0.0013857722515240312" pbc="T T T"
Mo      12.42773242      10.95745145       0.89952228      -0.00785410       0.01059726      -0.01176202
P        6.99467470      11.23690716      10.54290127       0.02845547      -0.00571889      -0.00611891
O        8.28254701      11.71733188      11.42911991       0.02514589       0.00116748      -0.00083238
O        7.25395257      12.22526051       9.25465274       0.03719813      -0.00242078      -0.00263943
O        5.75557031      11.73202920      11.21651187       0.02433193      -0.00307196      -0.01105136
O        7.19921694       9.82073324      10.15952219       0.03218693       0.00228572      -0.00144789
H        8.05519972      12.53784858      11.87903038       0.02072804      -0.00191959       0.00144279
P        5.56908651      11.40440092       4.01811707      -0.00286266       0.00127044      -0.00564180
O        5.61614084      12.63576187       5.01052235      -0.00533253       0.00541925      -0.01033789
O        6.06375487      12.07461015       2.68259465      -0.01232763      -0.00245455      -0.01099420
O        4.21831914      10.79765692       4.00246763       0.00376898      -0.00702397       0.00482552
O        6.67428550      10.35547444       4.36507524       0.00709969       0.01009604      -0.00623048
H        6.20679403      13.33918918       4.71339951       0.00540048      -0.00105292      -0.00165021
P        1.00098167      11.28084584       2.76210880       0.00228122      -0.00630333      -0.01715589
O        1.86806961      11.52008140       3.99808511       0.00100379      -0.01367813      -0.01708037
O        0.30990851       9.88606163       2.56004568      -0.01144829       0.00032747      -0.01919776
O        1.62905011      11.45017412       1.33597433      -0.00049673      -0.00969050      -0.01873589
O       -0.25414102      12.20036618       2.61242915       0.00883347       0.00491178      -0.01444230
H        2.88327773      11.24934392       3.98086972       0.00252044      -0.01275371      -0.00927354
C        5.94927460      10.76227901       7.74849609       0.01166448       0.01419479      -0.00352313
C        6.02170102       9.91357242       6.72525201       0.00206947       0.01960982      -0.00044897
C        6.89305554      11.90684760       7.92041156       0.02201948       0.00843485      -0.00148600
C        7.13466920       9.95557208       5.74456006       0.00232393       0.00903369      -0.00502177
C        8.12952204      11.75955769       7.09478167       0.01930374      -0.00493959      -0.02467769
C        8.24446889      10.87657051       6.11048391       0.00818455       0.01645625       0.00261783
H        5.14540636      10.68022244       8.46573268       0.01429383       0.02275778      -0.00087182
H        5.27154490       9.13953682       6.60049815      -0.00185724       0.02509599      -0.00281461
H        6.34919182      12.79305791       7.55096962       0.02599195       0.01599604       0.00822259
H        7.51481559       8.95150098       5.54678336      -0.00451691       0.00528157      -0.00186272
H        8.94384055      12.42738260       7.35306893       0.01713511       0.00473294      -0.01818251
H        9.14956444      10.80953748       5.51666525       0.00290906       0.00083091      -0.01551997
C       11.59870580       8.32395638      10.60995148       0.00789045       0.00314900       0.02532189
C       12.30615389       9.30495633       9.89867996       0.01202179      -0.00317167       0.02232639
C       11.02420711       8.60695789      11.83157494      -0.01631105       0.01723856       0.01011975
C       12.46196494      10.57804123      10.40401442      -0.00489816       0.00552540       0.00398713
C       11.12018021       9.90983632      12.35193937      -0.03111109       0.02405595      -0.00854319
C       11.85907650      10.90557977      11.63067256      -0.02200931       0.01712264      -0.00803262
H       11.48591873       7.34063468      10.17054272       0.02136768      -0.00381613       0.03928200
H       12.73333221       9.05130516       8.93816001       0.02803599      -0.01291723       0.03264001
H       10.48138207       7.84364256      12.37560159      -0.02360763       0.02303828       0.01014591
H       13.03328876      11.32428907       9.86634402      -0.00252805       0.00126549       0.00166072
H       10.41411464      10.22073663      13.14804036      -0.02879331       0.03154097      -0.01255084
H       11.74673468      11.97477046      11.90220566      -0.02225102       0.01810306      -0.01702125
C       10.03500641       5.46170964       8.31513849       0.00512476       0.01606649       0.00391542
C       11.06837749       5.69346848       7.41504924       0.00442547       0.01349306       0.00288544
C        9.17387628       6.49543415       8.66346216       0.00907040       0.01858175       0.00627613
C       11.22975825       6.95799693       6.85928964       0.00809586       0.01356903       0.00404131
C        9.33416627       7.76471545       8.11907960       0.01238456       0.01834516       0.00703103
C       10.36157042       7.98895535       7.20828314       0.01180176       0.01585522       0.00649798
H        9.87693803       4.46852514       8.71700010       0.00240603       0.01626524       0.00301714
H       11.73305458       4.88613101       7.13189541       0.00138532       0.01174147       0.00105391
H        8.35255391       6.30654727       9.34024250       0.00990812       0.02091158       0.00796098
H       12.02788521       7.13777589       6.14961711       0.00792003       0.01192506       0.00385456
H        8.66289665       8.56333569       8.41973722       0.01528659       0.02008894       0.00945149
H       10.48971469       8.97224750       6.77312780       0.01529686       0.01606151       0.00772415
C        3.37716647       6.68636205       1.53596113      -0.01680402       0.00126669      -0.00173686
C        3.48913191       7.64570616       2.53661727      -0.01631728      -0.00183591       0.00088831
C        2.22459468       5.92054991       1.43429583      -0.01376254      -0.00316218       0.00064052
C        2.44877684       7.84210305       3.43153905      -0.01307779      -0.00987323       0.00633706
C        1.17964154       6.11942706       2.33201732      -0.00994854      -0.01224028       0.00628754
C        1.29115052       7.08001727       3.32790386      -0.00952704      -0.01533901       0.00931098
H        4.20583019       6.51155247       0.86020623      -0.01974173       0.00797253      -0.00669642
H        4.38773199       8.24122405       2.62365590      -0.01889792       0.00235112      -0.00150771
H        2.14315465       5.16338644       0.66424105      -0.01483571      -0.00039519      -0.00146767
H        2.54267613       8.60314982       4.19585747      -0.01297485      -0.01191512       0.00832626
H        0.27455435       5.53168137       2.24807442      -0.00700678      -0.01676613       0.00920196
H        0.46208775       7.26272038       3.99912357      -0.00663383      -0.02357683       0.01468746
C        9.87435849       2.59299688       1.63466031      -0.00368503      -0.00487973       0.00040321
C        9.33485280       1.55165710       2.38173187       0.00088531      -0.00696375       0.00079078
C       11.01921841       3.24356771       2.07951541      -0.00446958      -0.00247781      -0.00187688
C        9.94365687       1.16063635       3.56753832       0.00438980      -0.00579289      -0.00078370
C       11.61971998       2.86148910       3.27455247      -0.00000885      -0.00218046      -0.00397173
C       11.08114098       1.81947447       4.01798336       0.00413676      -0.00391175      -0.00347532
H        9.39924273       2.89688083       0.71039230      -0.00643475      -0.00529857       0.00169575
H        8.43245531       1.05456225       2.04469975       0.00212485      -0.00983769       0.00195558
H       11.44256944       4.04948554       1.49206951      -0.00787851      -0.00105456      -0.00217156
H        9.53364459       0.33823552       4.14267097       0.00788240      -0.00709788      -0.00041416
H       12.51109015       3.37063794       3.61976898      -0.00016572      -0.00095261      -0.00625668
H       11.55708953       1.50726039       4.93846406       0.00784637      -0.00383361      -0.00536758
C        6.41999949      11.31778331       1.43734426      -0.01013847      -0.00592387      -0.00891167
C        5.27430765      10.57534555       0.90142560      -0.00681233      -0.01088279      -0.00857005
C        7.67128278      10.55996371       1.59692789      -0.00903052      -0.00234407      -0.00359622
C        5.42771444       9.29941746       0.44579258      -0.00141054      -0.01071841      -0.00632544
C        7.76756031       9.28281425       1.13729296      -0.00423402      -0.00340316       0.00111967
C        6.65959054       8.65208198       0.54822254      -0.00003272      -0.00779307      -0.00102626
H        6.58541083      12.15123694       0.73504332      -0.01140188      -0.00804305      -0.01199782
H        4.32523908      11.09179120       0.83390462      -0.00822891      -0.01395208      -0.01308295
H        8.52018085      11.06552662       2.04395329      -0.01280228       0.00038944       0.00007831
H        4.58426468       8.79435877      -0.00448530       0.00151879      -0.01409866      -0.00809138
H        8.70613649       8.74576516       1.22024634      -0.00328261      -0.00075294       0.00705901
H        6.76448441       7.64600613       0.16210250       0.00371371      -0.00826144       0.00188902
C        6.77108583       4.58761801       1.85216575      -0.00181592      -0.00709529       0.00457384
C        6.10734087       3.36497825       1.87698319       0.00136679      -0.00858571       0.00150350
C        6.41598199       5.58956513       2.74256270      -0.00696880      -0.00864038       0.00441742
C        5.09606730       3.14530987       2.80379097      -0.00117522      -0.01198937      -0.00209089
C        5.40492093       5.36849632       3.66929047      -0.00948597      -0.01217318       0.00098661
C        4.74921296       4.14781776       3.70420613      -0.00662547      -0.01367636      -0.00259541
H        7.56291350       4.75265791       1.13433021      -0.00030455      -0.00425453       0.00692924
H        6.37178092       2.59358588       1.16421913       0.00535364      -0.00737911       0.00176430
H        6.92684862       6.54531430       2.71811065      -0.00943559      -0.00752266       0.00663443
H        4.57245165       2.19701008       2.81971074       0.00109975      -0.01309010      -0.00453545
H        5.12708671       6.14986605       4.36211489      -0.01389598      -0.01388644       0.00105357
H        3.96230143       3.98212744       4.42863218      -0.00842507      -0.01691533      -0.00550117
C        6.41535200       2.21272123      10.81034847      -0.00212638       0.00011678      -0.01053135
C        7.80306716       2.32554846      10.78593331      -0.00259339       0.00340660      -0.01020936
C        5.64049595       3.34583526      11.03761930      -0.00476842      -0.00271330      -0.00672813
C        8.40897414       3.55612457      11.01789268      -0.00537132       0.00403973      -0.00631301
C        6.24259257       4.58124604      11.24492437      -0.00770298      -0.00211501      -0.00207198
C        7.62895864       4.68357693      11.24889956      -0.00801864       0.00119200      -0.00164560
H        5.95197797       1.24204197      10.66958036       0.00057939      -0.00045982      -0.01409910
H        8.40594557       1.45272835      10.56660712      -0.00119993       0.00514580      -0.01204919
H        4.56141651       3.25687593      11.06421616      -0.00437808      -0.00608005      -0.00592028
H        9.48957320       3.63875472      11.01421784      -0.00571457       0.00596802      -0.00499747
H        5.63616368       5.46139131      11.42315410      -0.00947329      -0.00456782       0.00277779
H        8.10219200       5.63984091      11.43504573      -0.01051679       0.00186749       0.00116182
C        6.97680136       5.60600045       6.58043883      -0.00323008      -0.00463431       0.00983438
C        6.37746875       4.43136928       7.01725363      -0.00491112      -0.00242032       0.01322471
C        7.98796988       5.56037260       5.62921724      -0.00173544      -0.00911167       0.01181574
C        6.78665930       3.21104450       6.49288381      -0.00427938      -0.00473405       0.01952405
C        8.39479692       4.34308836       5.10039168      -0.00074072      -0.01160032       0.01861702
C        7.78969508       3.16884346       5.53186235      -0.00150958      -0.00952521       0.02296395
H        6.66434811       6.55679823       6.99488610      -0.00386204      -0.00283329       0.00492662
H        5.60150424       4.46496577       7.77133443      -0.00717133       0.00158129       0.01063103
H        8.46701114       6.47593221       5.30489054      -0.00039477      -0.01098110       0.00894456
H        6.32019685       2.29572609       6.83712919      -0.00525592      -0.00270309       0.02313983
H        9.17592837       4.30316666       4.35080849       0.00036678      -0.01545928       0.02047815
H        8.11738018       2.22529367       5.11313939       0.00011718      -0.01152290       0.02872462
C        2.53565644       9.69251904       8.27776008       0.00950740       0.00157177      -0.00319581
C        3.21359110       9.41659118       9.46126123       0.00750781      -0.00142020      -0.00294878
C        2.14883997       8.65770268       7.43230962       0.00789142       0.00340641      -0.00483303
C        3.51480445       8.09926218       9.78797970       0.00238134      -0.00251393      -0.00344364
C        2.43820678       7.34002283       7.77030563       0.00416403       0.00233567      -0.00577271
C        3.12471021       7.06238143       8.94806376       0.00037729      -0.00050208      -0.00487946
H        2.31151903      10.71754816       8.00736906       0.01201997       0.00224377      -0.00231115
H        3.53483307      10.21897791      10.11638716       0.00934689      -0.00279421      -0.00206137
H        1.61888447       8.87901520       6.51349281       0.00960338       0.00580287      -0.00476252
H        4.07075753       7.88761662      10.69186032      -0.00051984      -0.00539018      -0.00245793
H        2.13477977       6.53335326       7.11415434       0.00346490       0.00400889      -0.00759272
H        3.36274353       6.03771200       9.20780720      -0.00356138      -0.00132899      -0.00557568
