145
Lattice="11.880658395861197 0.0 0.0 0.0 11.880658395861197 0.0 0.0 0.0 11.880658395861197" Properties=species:S:1:pos:R:3:forces:R:3 energy=-318768.9375 stress="-0.0006851727957837284 -0.0002509784244466573 0.0005669511156156659 -0.0002509784244466573 -0.00047715575783513486 -0.0004915878234896809 0.0005669511156156659 -0.0004915878234896809 -0.0012617859756574035" pbc="T T T"
Mo      12.80851071      11.91318327       0.44196538       0.00013125       0.00561583       0.00111218
P        8.94615719       3.66129150      11.13583728       0.00487414       0.00380839      -0.00365898
F       10.10182856       4.83289714      10.81869376       0.01040775      -0.00056201      -0.00024082
F        8.27200344       4.01204409       9.70280871       0.01088148       0.00836900      -0.00592685
F        7.81639571       2.58145680      11.44342028      -0.00106740       0.01039433      -0.00754081
F        9.64691738       3.42479267      12.56041839      -0.00002730       0.00107351      -0.00241482
F        8.02139758       4.83962891      11.80109237       0.00835854       0.00862867      -0.00613904
F        9.89240635       2.57733145      10.45167359       0.00127208       0.00052536      -0.00191337
P        8.50694767       4.02730073       4.82388467       0.00219367      -0.00350919       0.00386238
F        8.64371097       4.56845898       3.34490327      -0.02014324      -0.00324392       0.00242323
F        7.77497665       8.16535597       6.69269145       0.00028265      -0.00296813      -0.00555703
F        8.80708820       5.47805880       5.44960630       0.00204876       0.00079924      -0.00291002
F        8.21305721       2.53324019       4.35175660       0.00274958      -0.00345963       0.00573483
F       10.08376007       3.68168480       4.90757654       0.00273800       0.00524965      -0.01432864
F        6.92869196       4.33073271       4.87021499       0.00006962      -0.01031271       0.02297373
P        1.94886512       5.07239857       4.88726494      -0.00991774      -0.00118014       0.00553574
F        2.60362184       6.02069688       3.68247830      -0.01839781       0.01114041       0.00864652
F        2.48609371       6.14539510       5.96490731      -0.00399509      -0.00763121       0.00978461
F        0.58496120       5.92572108       4.72064435      -0.01132584      -0.00355434       0.02197986
F        1.43590899       4.04899313       3.75639672      -0.01381350       0.00793147       0.00051218
F        3.33857081       4.27980346       4.98914630      -0.00692266       0.00196305      -0.00945216
F        1.29427666       4.19109299       6.05440069       0.00176272      -0.01180270       0.00194752
P        5.01335471      10.25915534       7.92606609       0.00678076       0.00469148      -0.00785124
F        3.76161409      10.51770821       6.94572203       0.00365794       0.00232911      -0.00381464
F        2.62823306       9.23103598      11.13144028      -0.00228238       0.00628436      -0.00726685
F        4.16987830       9.13844760       8.72498361       0.00780642       0.00658524      -0.00175464
F        5.87752998      11.37830581       7.13146574       0.00597394      -0.00201452      -0.01497549
F        4.48169852      11.39630379       8.93805377       0.01403975       0.00572044      -0.00998938
F        6.28634275       9.97024805       8.87384711       0.01019365       0.00216006      -0.01268160
P        3.26930143       9.80526573       0.55830384      -0.00376114       0.00119293      -0.00509911
F        3.63570639      10.50596272       1.92037476      -0.00736115      -0.00274859      -0.00241736
F        3.00659361      11.35193579      -0.06223654      -0.00054818       0.00262342      -0.00082048
F        4.74021612       9.71265483       0.06359779      -0.00385043       0.00100238      -0.00219295
F        1.45491422      10.08805064       1.08811550      -0.02039432      -0.00464797      -0.00839618
F        1.66344634      12.71054130       1.89041796       0.00110996      -0.00303447       0.00484955
F        3.17858761       8.40765222       1.27337295      -0.00605340      -0.00073197      -0.00851955
P        1.72644665       3.78305809      11.01529468      -0.00552302      -0.01573554      -0.00595802
F        3.05750917       3.13123434      10.60871452      -0.00130011       0.00045307      -0.01286409
F       -0.81889199       0.54946197      12.71815115      -0.00185621      -0.00559582       0.00891885
F        0.80206097       2.87170222      11.88383204       0.00764908      -0.02680553      -0.00293458
F        1.05897182       3.23858852       9.69173127      -0.00729680      -0.02143664      -0.00211284
F        0.66155594      -0.25518775      10.57372876       0.00236628       0.02155839      -0.00115383
F        1.19936085       5.19860378      10.66285806      -0.01636356      -0.01903316      -0.00553748
O        5.60968639       9.06989471       6.83679341       0.00029135      -0.00198328      -0.00742996
C        4.73218400       8.13197411       6.20894250      -0.00405046      -0.00019637      -0.00212321
H        3.85784340       7.96670551       6.82744062      -0.00140476       0.00173850       0.00197262
H        5.27975092       7.19610704       6.10288584      -0.00597471      -0.00127834      -0.00388397
H        4.43401997       8.48844552       5.22418636      -0.00788884      -0.00060400      -0.00094634
H        6.86317540       8.63023385       6.80512400       0.00070506      -0.00328627      -0.00695664
O        9.27311495       7.42534423      10.51420542       0.00437385       0.00099985       0.00122804
C        8.02479185       7.40399919       9.81599745       0.00528604       0.00781047      -0.00011006
H        7.45653260       6.51271316      10.07310853       0.00369823       0.00703567      -0.00714876
H        8.17767885       7.43724455       8.73769369       0.00634187       0.01256412      -0.00006557
H        7.46177932       8.29013758      10.09926734       0.00595258       0.00563371       0.00646549
H        9.57586034       6.50807527      10.58641304       0.00185528       0.00078550       0.00026832
O        9.13246855       8.50031670       1.08523725       0.03016979       0.01247483      -0.00028905
C        8.43842714       9.72725606       0.98867545       0.00721624       0.00143027       0.00061105
H        7.64109152       9.76250534       1.73768915       0.01157054      -0.00015091       0.00569651
H        7.98128469       9.86677489       0.00602229      -0.00168164      -0.00676808       0.00342125
H        9.10316417      10.57784043       1.17194811       0.00199080       0.00598508      -0.00858273
H        9.18769686       8.10057137       0.18914970       0.01200301       0.00386901       0.00274657
O       10.83637735      11.20118848       6.00988141      -0.00366265       0.00135744      -0.00931826
C       10.12290672      12.02653529       5.09561686      -0.00567633       0.00230387      -0.00689900
H       10.28995632      13.06449497       5.36816667       0.00415449       0.00190961      -0.01361023
H        9.05189856      11.82121971       5.13197431      -0.00658113       0.01049586       0.00303623
H       10.48204318      11.88711877       4.07238058      -0.01567660      -0.00456273      -0.00904357
H       10.55123582      10.26120068       5.86040436      -0.00381181       0.00149755      -0.00654726
O        5.19506374       5.10425493      10.94529016       0.00402017      -0.00090051       0.00059149
C        5.05625032       6.47435676      11.27514547      -0.00249554      -0.00028020      -0.00234294
H        4.04820873       6.62183118      11.66015116      -0.00617439      -0.00282808      -0.01215969
H        5.17870218       7.12475999      10.40313648       0.00379904      -0.00076917      -0.00147557
H        5.76729750       6.77480438      12.04898659      -0.01101494       0.00203736       0.00379685
H        6.11896711       4.84493213      11.04113493       0.00380883       0.00409079      -0.00017593
O        8.37265069       3.51087346       6.56349046       0.02470812      -0.00027728       0.00215265
C        7.85019515       2.24420155       7.05750807       0.00713895       0.00791527       0.00365779
H        7.27595132       2.45552892       7.95483704       0.02178633       0.01290426       0.01017374
H        8.68436382       1.58668644       7.29754511      -0.00432289      -0.00834066      -0.00830646
H        7.21769418       1.81573296       6.28860172      -0.00747797       0.02344514       0.00941041
H        9.25139609       3.78181993       7.07415835       0.03275034      -0.00955492      -0.00586230
O        5.01547759       2.42580916       8.74419561       0.00187397      -0.00744951      -0.01164097
C        4.55324286       3.52043755       7.98123000       0.00423941      -0.02363271      -0.00163022
H        4.68660080       4.40332756       8.60683092       0.00166587       0.00035211      -0.00964946
H        3.49543955       3.43286030       7.71291020       0.00235242      -0.01477903       0.00132249
H        5.13005284       3.66345728       7.05907011      -0.00215289      -0.01431084      -0.00795066
H        4.77264018       1.59135069       8.33019028       0.01720844       0.00929779       0.01408058
O       10.21368895      11.68639894       8.67090920       0.00649667       0.01286840      -0.00837520
C        9.03566920      10.91187944       8.74336978       0.00473350       0.01792371       0.00384226
H        9.24930474       9.83584056       8.76502818       0.00191039       0.01769471       0.01359219
H        8.35547579      11.10400826       7.90820912       0.00176886       0.01121753       0.00535131
H        8.51619145      11.18037366       9.66165062       0.00955291       0.02803065       0.00327635
H       10.58693480      11.54211133       7.78732209       0.00077459       0.00601495      -0.00978038
O        5.56398661       7.57495027       2.80691841      -0.00253022      -0.00808770       0.01109499
C        6.83532210       7.49612710       3.44013415      -0.00232702      -0.00271215      -0.00429490
H        7.12603364       8.45853980       3.87778494      -0.00221489      -0.00807375       0.00608180
H        7.61801555       7.16535714       2.75498347      -0.00222379       0.00295360      -0.00589085
H        6.74912972       6.77167598       4.24375253       0.00172368      -0.01191577      -0.00711682
H        5.65045013       8.12418071       2.02490528      -0.00665697       0.01320346       0.00234754
O        2.41598830       4.48756725       0.46481174      -0.00981465      -0.01127326      -0.00669134
C        3.38270911       3.77916878       1.30686127      -0.00690462      -0.00656721      -0.00617956
H        3.70868511       4.51004456       2.04108791      -0.01132096      -0.00520980      -0.00547498
H        4.22101887       3.46143084       0.70184252      -0.00427547      -0.00175150      -0.00500137
H        2.90025535       2.94113728       1.80078287      -0.00272414      -0.00893164      -0.00671086
H        1.63847980       5.52150109       1.13230143      -0.00708091      -0.00762451      -0.00531819
O        1.53154637      11.70973596       5.30621135      -0.00266970      -0.00579357      -0.01005381
C        1.83499723      10.54872711       4.57739960      -0.00170216      -0.01098698      -0.00051260
H        1.12100094      10.37511973       3.76033469       0.00352323      -0.01427632      -0.00428009
H        1.86262738       9.65376309       5.20914233      -0.00942638      -0.00668424       0.00574160
H        2.81901732      10.67759910       4.13472088       0.00157636      -0.01763512       0.00563335
H        0.65905053      11.56739781       5.71129038      -0.00450259      -0.00131641      -0.01312172
O       10.03077874       8.77733329       5.58623622       0.00425108      -0.00352955       0.00171065
C       10.29493444       8.12148298       4.35521404      -0.00078985       0.00558005      -0.00401729
H        9.56504725       8.37494539       3.58433054       0.00523418       0.02215688      -0.00297049
H       10.31495691       7.04059799       4.48792373      -0.01567301       0.00465852      -0.01430103
H       11.27957158       8.45084080       4.02316346       0.00390846      -0.00507876       0.00151696
H        9.15286353       8.52572454       5.94008864       0.00344983      -0.00146280      -0.00067382
O       10.49236768       4.11590513       7.68095870       0.01569515       0.00514987      -0.00339353
C       10.72906560       5.52994476       7.81830792       0.00205309      -0.00456777      -0.00535118
H       11.25632850       5.91042595       6.94690053      -0.03695664       0.01812935      -0.00948516
H       11.31282563       5.71723301       8.71409573       0.01265809       0.00877161      -0.01687860
H        9.75885183       6.01236865       7.89044224      -0.01173249      -0.02312911       0.02584358
H       11.21540849       3.73884362       7.17015056       0.03815141       0.01330616      -0.01791923
O        5.27242118       2.05474055       4.57799206      -0.00643831      -0.00065082       0.00757980
C        4.13012289       1.30631169       4.99447107      -0.01462147       0.00230715       0.00116695
H        3.25712701       1.51069765       4.37533997      -0.00817209       0.00841685      -0.00533277
H        3.87512961       1.50041655       6.03619169      -0.01927681       0.00639728      -0.00160825
H        4.40125792       0.25873056       4.90944505      -0.02113937       0.00187874       0.00424154
H        5.11498103       2.99090821       4.73033332      -0.00032116      -0.00781026       0.00463630
O       12.96891501       6.25179456       1.63758690      -0.00032959      -0.00673908      -0.00248092
C       11.52574839       5.94601679       1.61348506       0.00177282      -0.01150981       0.02045150
H       11.32134326       5.06003841       2.20473656       0.01486970       0.00250009       0.04236414
H       11.27065553       5.78934429       0.57212378      -0.01083495      -0.03642645       0.02859077
H       11.01122004       6.82029183       1.99488328       0.00298464      -0.00641027       0.00753318
H       13.35638876       6.28556591       2.55131416       0.00767387      -0.00458543      -0.00569570
O        1.51989803       7.19759807       8.47340597       0.00515509      -0.00083601       0.00977397
C        0.98892503       8.33232987       7.80298979       0.00247598       0.00495535       0.02044606
H        1.76457635       9.06541770       7.56398306       0.00164711       0.00654942       0.02415054
H        0.27015997       8.79650797       8.47706877       0.00429672      -0.00020775       0.02542865
H        0.46271939       8.05322000       6.88479266       0.00007439       0.01140624       0.02025717
H        2.01414112       6.69154289       7.82308232      -0.00107393       0.00361276       0.00453041
O        5.37789155       1.54348984       1.87499682      -0.00406027      -0.00286263       0.00777894
C        6.45739044       0.66661921       1.63251922      -0.00114393       0.00117904       0.00460936
H        6.37792234      -0.24040232       2.24657216       0.00407192       0.00122297       0.00527322
H        7.42566818       1.14002294       1.82260375      -0.00270754       0.00509542       0.00246190
H        6.42616021       0.37521986       0.58404461      -0.00271025       0.00066061       0.00545239
H        5.41320855       1.78935525       2.81825615      -0.00418843      -0.00526819       0.00780815
