147
Lattice="12.41103163679433 0.0 0.0 0.0 12.41103163679433 0.0 0.0 0.0 12.41103163679433" Properties=species:S:1:pos:R:3:forces:R:3 energy=-229706.953125 stress="9.26376596908085e-05 -0.00020189341739751399 7.563534745713696e-05 -0.00020189341739751399 -0.0009067560313269496 -0.0008327204559464008 7.563534745713696e-05 -0.0008327204559464008 0.0004114100302103907" pbc="T T T"
Mo      13.90463307      13.83706310       0.26895681      -0.00336304      -0.00785618      -0.00093162
O        7.16093041      10.56237850      -0.24625555       0.00338197       0.00849485      -0.01248623
O        6.88407728       8.39112379      -0.71617052      -0.01299298       0.01025152      -0.00457442
C        8.94385784       9.04257232       0.25630312      -0.00662875      -0.00041625      -0.00612193
C        7.54895638       9.37104960      -0.27676263      -0.00518107       0.00691968      -0.00751340
H        8.86771542       8.29926058       1.05291235      -0.01011852      -0.00752099      -0.01273856
H        9.46139221       9.92157188       0.63125776      -0.00440815      -0.00943628      -0.00269978
H        9.53085391       8.58678144      -0.54353848      -0.00541841       0.00576997      -0.00891669
O        8.75497354       1.76794389       1.88311312       0.01067668       0.03823590       0.02057500
O       12.45399749       1.26000636       1.08222239       0.00701302      -0.01159428       0.01535761
C       10.25378667       3.59562491       2.38063255       0.00065607       0.00517070      -0.00673503
C        9.05645040       2.73464170       2.49231282      -0.01376869      -0.04028314      -0.02262671
H       10.70827365       3.70382189       3.36419851      -0.00061817       0.00671116      -0.00799611
H        9.96171432       4.59834319       2.06195841      -0.00651203       0.00064921      -0.00926596
H       10.94946130       3.16261991       1.66960852      -0.00139791       0.00414285      -0.00703637
O        7.99248061       1.35669358       4.60717748       0.00063136       0.00360119      -0.00057836
O        8.13121037       3.29205937       3.46079251       0.00388238      -0.00002423      -0.00304189
C        6.48048848       3.13749440       5.15310991      -0.00017452      -0.00354701      -0.00301743
C        7.58175989       2.47003731       4.39703858       0.00418672      -0.01140368       0.00123210
H        6.88618856       3.44324901       6.11858862      -0.00281839      -0.00509863      -0.00115564
H        5.69392980       2.41303741       5.35174552       0.00014649      -0.00495201      -0.00569880
H        6.09195234       4.01485787       4.64139557       0.00072093      -0.00350967      -0.00244522
O        3.09234029       2.00414666      11.55999211      -0.01204002       0.00348264      -0.00513279
O        3.26774023       4.19863571      11.20398618       0.00888765       0.00627279       0.01213430
C        5.20495529       2.86374960      10.86376929      -0.00404251      -0.00880634       0.00308475
C        3.75797337       3.08645370      11.22448966      -0.00224215       0.00098413       0.00393741
H        5.31465994       2.99979861       9.78615707      -0.00453958      -0.01630563       0.00182588
H        5.55480147       1.87162879      11.13141075      -0.00106706      -0.00982536       0.01440204
H        5.80958246       3.62727559      11.35068456       0.00141143      -0.00889508      -0.00260465
O        1.96460727       3.20193895       1.30953798      -0.00761692      -0.01119931      -0.00005968
O        2.80246069       1.30423529       1.94940692       0.00381614      -0.00784880      -0.00621704
C        3.63757493       3.27538566       3.03697493      -0.01229790      -0.00578693       0.00219810
C        2.75280687       2.57326493       2.07899878      -0.00364047      -0.00897026      -0.00194041
H        3.49821214       2.87568584       4.03984507      -0.02388183      -0.00289850       0.00182101
H        3.46482008       4.34509668       3.04555913      -0.01543166      -0.00629455      -0.00466885
H        4.66853260       3.07802923       2.73695512      -0.00949699      -0.00665744       0.01299856
O        9.91536555       5.77508227       4.81219854      -0.00516367       0.00536060      -0.00448468
O        8.62969324       7.31048711       3.90234394      -0.00671037       0.01065749       0.00731289
C        7.78301046       6.25364537       5.86000047      -0.00370550       0.00081402       0.00229818
C        8.78904580       6.48336006       4.78101858      -0.00527325       0.00693619       0.00195605
H        7.79161169       7.13071567       6.50977661      -0.00328718      -0.00346857       0.00809431
H        7.99903460       5.37718207       6.46738495      -0.00492637      -0.00337328      -0.00339602
H        6.78874429       6.19535630       5.42243982      -0.00373858       0.00460939       0.00193091
O       12.82394589       2.28069562      11.08230772      -0.01247907       0.01275033       0.01776698
O       12.02145684       0.24665110      10.71109490       0.00355677       0.00379729       0.03729607
C       10.71483541       2.12523387       9.99166215      -0.00182962      -0.01598319       0.00396025
C       11.91177600       1.45272859      10.59754462      -0.00252855       0.00318688       0.02195069
H       10.12215521       2.51968627      10.82212830      -0.02041259      -0.01699754      -0.00923111
H       10.98909254       2.97883166       9.37424754      -0.00656485      -0.01873632      -0.00144029
H       10.11429790       1.41657360       9.42811595       0.01926449      -0.03298718       0.00464507
H       12.88331891       3.74484162      10.45010197      -0.00074518       0.03825542       0.00528037
O       10.03274497       3.41589448       6.01823710       0.00840801       0.00030495      -0.00775062
O       11.78606399       4.06999366       7.15927404      -0.00294781      -0.00181311       0.01244834
C       11.66322106       1.73928260       6.50598019       0.00542995       0.00068069       0.00071763
C       11.09749034       3.12401621       6.53506570       0.00525072      -0.00036691       0.00134382
H       11.34307162       1.20672836       7.40328575       0.00539291       0.00181358       0.00140020
H       11.25982876       1.20425617       5.65185845       0.00407112       0.00288713       0.00019196
H       12.75217408       1.74612519       6.47874231       0.00556290      -0.00089152       0.00111402
H        9.87627773       5.03351611       5.46290829      -0.00193743       0.00469360      -0.00575426
O        6.70804252       5.08705915       1.55683706      -0.00334769      -0.00728786       0.00239384
O        5.44692790       5.96546648       3.17894911      -0.00502343      -0.01169825       0.00365961
C        4.96569832       6.53082215       0.88196614      -0.00192660      -0.00407109       0.00482261
C        5.69273567       5.86870779       1.99604134      -0.00343584      -0.00768670       0.00334740
H        5.65036484       7.20411522       0.34531257      -0.00092018      -0.00685716       0.00318825
H        4.60956895       5.78879723       0.16345544      -0.00695784      -0.00283957       0.00593188
H        4.12324770       7.09372179       1.27192186       0.00125146      -0.00043184       0.00643614
H        7.14804233       4.72782618       2.34523971      -0.00487314      -0.01059442       0.00092801
O        6.62498926       9.82598634       8.26807420       0.00587285      -0.00672895       0.00444305
O        6.00951673       7.66388328       8.27366315       0.00455919      -0.00642943       0.00231183
C        4.76703077       9.25139600       9.58365010      -0.00337040      -0.00396433      -0.00808144
C        5.83362400       8.80511600       8.63628262       0.00294465      -0.00554836       0.00005150
H        5.24398775       9.25529675      10.57323759      -0.00893302       0.00001784      -0.00549969
H        4.41327041      10.25257755       9.34341578      -0.00315579      -0.00538536      -0.01408725
H        3.94820221       8.53748621       9.58891978      -0.00227906      -0.00503460      -0.01029024
H        7.37376567       9.48768097       7.73362218       0.00816412      -0.00685656       0.00772857
O        2.95132880       9.89237666       0.36503314       0.00112695      -0.00321410       0.00133289
O        2.06270860      11.88259330       0.01683369       0.00248474      -0.00489260      -0.00268949
C        4.43660092      11.71574487       0.43088813       0.00308484      -0.00375709      -0.00342296
C        3.07979572      11.17183587       0.26465106       0.00303431      -0.00383192      -0.00148318
H        4.61644933      11.83035501       1.50384189       0.00838324      -0.01200454      -0.00352111
H        5.21686252      11.04882170       0.03934738       0.00276047       0.00002316      -0.01101325
H        4.49144728      12.70133631      -0.02053294       0.00162738      -0.00056636       0.00344944
H        1.99970892       9.53014557       0.23861915      -0.00087970       0.00138161       0.00114740
O       -0.58370993       7.66804865      10.91697129      -0.00064369       0.00893956      -0.00523281
O        0.79577774       8.60261440      12.40128843      -0.00799467       0.01406207      -0.00181955
C        0.38653741       9.70194342      10.29727381       0.00748187       0.00325418      -0.01069689
C        0.23370966       8.62449759      11.31462185      -0.00122897       0.00961741      -0.00547659
H        0.87067543       9.29449255       9.40893212       0.01331509      -0.00390038      -0.00414611
H       -0.59366171      10.06810005       9.99641076       0.01012614       0.00221740      -0.02066291
H        0.95671527      10.53471996      10.68988819       0.00627662       0.00423467      -0.01111910
H       -0.75541197       6.98040459      11.59995604      -0.00662543       0.01362759      -0.00202090
O       10.20101567       5.48001765       9.64505329      -0.00433987       0.00372081       0.00553581
O       10.27554681       5.68767233      11.87238330       0.00175273       0.01284852       0.00444150
C        8.13736637       5.66345086      10.77633842      -0.00186020       0.00452556       0.01091987
C        9.61853125       5.60586134      10.84805922      -0.00196475       0.00845295       0.00609612
H        7.82392772       6.71930960      10.81702978      -0.00940055       0.00187132       0.03377388
H        7.75574251       5.21654212       9.86195573      -0.00155035       0.02057632       0.00326318
H        7.71261985       5.20507987      11.66536762       0.00327159      -0.01735498       0.00209296
H       11.16581092       5.44127994       9.78270260      -0.00391448       0.01279334       0.00307819
O        9.82274250       9.67920717       3.61512583      -0.00662220       0.01072809      -0.00880858
O       11.91206810       8.85269632       3.56234587      -0.00842011       0.00408649       0.01340022
C       11.56919528      11.23041750       3.43448248       0.00025550       0.00433588      -0.00607788
C       11.14851953       9.79449189       3.54060133      -0.00614430       0.00761008       0.00059591
H       11.25567710      11.63655182       2.47157307       0.00507315       0.00104161      -0.00895613
H       11.06609931      11.81426303       4.20428183       0.00078941       0.01096465      -0.01079694
H       12.64738067      11.31297686       3.53118296       0.00029531       0.00043627      -0.00302799
H        9.55853810       8.72861383       3.65117103      -0.00830725       0.01178005      -0.00181241
O        6.89279044       0.54785681       6.96331643       0.00258428      -0.00500432       0.00046778
O        8.92199344       0.04355736       7.73971861       0.00499868       0.00119489      -0.00167462
C        7.11269240       0.23730758       9.29740565       0.00596079      -0.00380705       0.00022995
C        7.73343855       0.23866163       7.94233258       0.00430113      -0.00185384      -0.00045186
H        7.37784008       1.18197726       9.77916784       0.00846140      -0.00601687       0.00312327
H        6.03135702       0.16553453       9.23382987       0.00582901      -0.00188440       0.00123876
H        7.50048634      -0.57118385       9.91321060       0.00464733      -0.00627571      -0.00219360
H        7.38999213       0.65278364       6.11316191       0.00173694      -0.00475301      -0.00058314
O        1.75607807       4.06460792       8.42426705      -0.00043869      -0.00722224       0.01566413
O        0.58935111       4.72210154      10.21580657       0.01824772       0.03241780       0.01156110
C        2.21430406       6.21703849       9.36722486       0.00930473       0.01508135      -0.01850949
C        1.53029755       4.89927374       9.29945068       0.01050756       0.01283807      -0.00138617
H        3.25436285       6.09760687       9.07377570       0.00864622       0.02797322      -0.02874888
H        1.73803858       6.87358083       8.63583761      -0.00388934       0.01686701      -0.00889365
H        2.15082331       6.63139071      10.36847051       0.00908690       0.00622770      -0.01471484
H        0.24139687       3.77238476       7.52240822      -0.00434530      -0.00242674       0.01400497
O        2.13425034       4.61897078       5.71363157      -0.03044611      -0.02235037       0.00534374
O        1.32157896       6.63781999       6.25027608      -0.00455807      -0.01429927       0.01183438
C        0.87447412       5.74675343       4.05914697       0.00810578       0.01256682      -0.00039595
C        1.44387759       5.75174067       5.44076627      -0.00868471      -0.00896716       0.00608772
H        1.67977998       5.84748495       3.32911975       0.01607454       0.02771300       0.01048437
H        0.38555274       4.79268219       3.86237876       0.01327003       0.01480806      -0.02173384
H        0.17916103       6.57024593       3.93299005       0.00835310       0.01344344       0.00595217
H        2.36106790       4.63722102       6.66528198      -0.03463197      -0.02918044       0.00690734
O       10.66138247      10.53378097       7.10242096       0.00566055      -0.00012058       0.00591276
O        8.92815864       9.11857191       7.00723211       0.00721025      -0.00189727       0.00430929
C       11.15394519       8.24000154       6.90780811       0.00781482       0.00090653      -0.00189832
C       10.12886772       9.31744663       7.01164501       0.00721323      -0.00040005       0.00347744
H       11.63116116       8.27417925       5.92625096      -0.00238980      -0.00070999      -0.00693983
H       11.94025191       8.39328231       7.64317913       0.01487051       0.00392661      -0.01033760
H       10.69618608       7.26659295       7.04885202       0.01025781       0.00068846       0.00443302
H        9.94117881      11.19509200       7.23012519       0.00463650      -0.00087768       0.00534166
O        4.90311116      11.58624152       3.89850161       0.00139615      -0.00352347       0.00090212
O        4.81429172       9.85821042       5.32221217       0.00833678      -0.00671905      -0.00206065
C        5.93220847       9.56953686       3.20127500       0.01019436       0.00250149      -0.00264537
C        5.18339517      10.29740416       4.26609339       0.00679076      -0.00288360      -0.00173414
H        5.22468130       9.28283072       2.41906856       0.01305875       0.00550950      -0.00629519
H        6.68337588      10.20395887       2.73356469       0.01096205       0.00586793       0.00302014
H        6.38264761       8.67162323       3.61195438       0.01062617       0.00154209      -0.00531083
H        4.38187328      11.95288005       4.62589752       0.00002635      -0.00679669       0.00157088
