139
Lattice="14.12110490518646 0.0 0.0 0.0 14.12110490518646 0.0 0.0 0.0 14.12110490518646" Properties=species:S:1:pos:R:3:forces:R:3 energy=-250045.3125 stress="0.0008047445444390178 0.00038277110434137285 0.00015543922927463427 0.00038277110434137285 0.00033896087552420795 0.00029341278423089534 0.00015543922927463427 0.00029341278423089534 0.00047705124597996473" pbc="T T T"
Mo      13.31024582      14.68592975      -0.94607504      -0.00261453      -0.00002456      -0.01264292
Cl      13.05303025      12.35736275      13.35491541      -0.00076539       0.00319612       0.00563198
O       14.26297463      15.02091541      11.78410230      -0.00802839       0.01026827      -0.01756787
O       11.74980650      15.41412637      12.99845777      -0.00845885      -0.00097442       0.00831831
Cl       5.78926667       5.42115503       9.62533325       0.01265681       0.01489598       0.00107279
O        7.04272685       4.95125877       8.96067774       0.00280762       0.00039697      -0.00788283
O        5.95918996       6.42923489      10.71356656       0.03254334       0.00859416       0.00340378
Cl       6.11794921      11.23804412       7.68271367       0.01000023      -0.02062893       0.00893342
O        4.90103005      11.16885526       8.55330733       0.01459360       0.00530871       0.01764101
O        5.93281012      10.75692386       6.27305308      -0.00853480      -0.02746099       0.01332104
Cl       2.77172597      10.09066998       6.40062673      -0.00826091       0.02016684       0.01342273
O        2.78028655      11.48085785       5.87356437       0.01019934       0.00835788      -0.02018756
O        2.13820652       9.07294390       5.51296908      -0.00706291       0.00570309       0.02937871
Cl       3.35670744       2.12662643       1.73950673      -0.00583714      -0.01806891       0.02047229
O       -0.02547969       1.19970335       0.45738398       0.00961649      -0.00837350      -0.01621675
O        3.74624498       1.20686744       2.95483072      -0.00287712       0.00258106       0.03707635
Cl       1.02964448      12.71348511       3.67263258      -0.00759542       0.02972034      -0.01100257
O        0.10038725      11.69490112       4.21559772       0.00395375      -0.00986934      -0.03290868
O        0.40694746      13.91238831       3.07850056      -0.02467507       0.02239478       0.03669959
C        9.40314630      11.03470069      11.05835865      -0.00008172       0.00299444       0.00089821
C        9.34442845      11.89303435       9.80208915       0.00384611       0.00632299       0.00284570
C        8.19532166      10.11916318      11.22552551      -0.00110656       0.00354028      -0.00420398
C       10.58569756      12.75440881       9.60164865       0.00663620       0.00474124       0.00593379
C        8.23933698       9.31506790      12.51846414      -0.00445881       0.00231740      -0.00527638
C       10.52704371      13.57756977       8.32214176       0.00907975       0.00712365       0.00754586
H       10.31865081      10.43302395      11.04487496       0.00005338       0.00314048       0.00090155
H        9.49473007      11.68695071      11.93160544      -0.00089922       0.00103644       0.00258619
H        8.45771037      12.53662732       9.84502139       0.00464377       0.00719965       0.00267772
H        9.19962172      11.24751344       8.92653095       0.00358209       0.00944251       0.00013095
H        7.27813324      10.71606841      11.19180741      -0.00027239       0.00464037      -0.00524885
H        8.13885248       9.43318931      10.37397636       0.00004941       0.00634837      -0.00649643
H       10.71973167      13.41686790      10.46179901       0.00886651       0.00513342       0.00635657
H       11.47122580      12.11307353       9.58971764       0.00417307       0.00135350      -0.00292786
H        9.14955135       8.71534548      12.57454921      -0.00538909       0.00123003      -0.00309086
H        7.39047145       8.63437580      12.59514357      -0.00543010       0.00374757      -0.00693479
H        8.22979362       9.97344605      13.39015517      -0.00548758       0.00245968      -0.00541790
H       10.48617554      12.93318650       7.44113210       0.00712992       0.00962912       0.00582719
H        9.63830021      14.21255093       8.30522497       0.01223689       0.01044650       0.01044863
H       11.39954587      14.22379906       8.22522591       0.00969741       0.00595903       0.00657025
C        7.06614009       2.74815873      12.15299802      -0.00504886      -0.00236170      -0.00019842
C        7.63375720       3.88428296      12.99723410      -0.00073501      -0.00372167      -0.00069094
C        5.90923352       2.01793665      12.82901720      -0.00808147       0.00273199       0.00083303
C        8.81687319       4.59453042      12.34926776       0.00053981      -0.00622550      -0.00080341
C        5.30118499       0.92449914      11.96161237      -0.01190943       0.00252092       0.00288227
C        9.41168246       5.67362993      13.24448406       0.00009227      -0.00633216       0.00030342
H        6.73586585       3.14394998      11.18689928       0.00169857      -0.00505105      -0.00412497
H        7.86797599       2.03642748      11.92508987      -0.00631702      -0.00417206       0.00470513
H        7.94170801       3.48521125      13.97117266       0.00170624      -0.00247599       0.00096047
H        6.84068384       4.61350484      13.20075412       0.00241953      -0.00055513      -0.00162375
H        6.25784343       1.58767519      13.77231540      -0.01215878       0.00380406       0.00372142
H        5.13202041       2.73682934      13.10201516      -0.00665969       0.00549975      -0.00280985
H        9.58941300       3.85623975      12.11437424      -0.00203356      -0.01093510       0.00470526
H        8.49881902       5.03278891      11.39926156       0.00074315      -0.00697213      -0.00141454
H        4.94592681       1.33014496      11.01279613      -0.00672220      -0.00147276      -0.00138171
H        4.45045164       0.44776771      12.44889337      -0.01659435       0.00913957       0.00164434
H        6.03711935       0.15138643      11.72989687      -0.01495147      -0.00294991       0.01138024
H        8.65762085       6.41102070      13.52707454       0.00134796      -0.00360367      -0.00237090
H        9.81427262       5.23824640      14.16158140      -0.00245252      -0.00612411       0.00175743
H       10.22539502       6.20337574      12.74653447       0.00191991      -0.00802208       0.00175765
C       12.00099497       7.78831349       7.31323873       0.00358415       0.00222602      -0.00017476
C       10.75683613       8.34636111       6.63547900       0.00188801       0.00088009       0.00171892
C       12.01148694       6.26493907       7.37017561       0.00401601       0.00213721       0.00257000
C       10.72775830       9.86775850       6.55411456       0.00093964       0.00090101      -0.00034219
C       13.26976866       5.70488907       8.01853866       0.00502267       0.00338742       0.00222671
C        9.43509558      10.37997678       5.93623009      -0.00129992      -0.00008191       0.00295946
H       12.89481963       8.13823788       6.78467325       0.00177664       0.00062643      -0.00396998
H       12.07240733       8.19214211       8.32951778       0.00657285       0.00468636      -0.00113073
H        9.86522143       7.99810162       7.17071364       0.00324786       0.00176532       0.00453655
H       10.67890319       7.93238774       5.62303466      -0.00052144      -0.00074649       0.00244370
H       11.12490671       5.91565679       7.91052544       0.00500274       0.00384311       0.00509495
H       11.91773815       5.87178095       6.35301716       0.00160516      -0.00031337       0.00347885
H       10.85144276      10.28446215       7.55919962       0.00426539       0.00221878      -0.00110626
H       11.58764707      10.21805134       5.97535820      -0.00120115       0.00022975      -0.00420052
H       14.16151970       6.02923588       7.47894921       0.00398074       0.00124550      -0.00085451
H       13.26758722       4.61387361       8.03198494       0.00478729       0.00330669       0.00447958
H       13.36499876       6.05141236       9.04964143       0.00671816       0.00721490       0.00103165
H        9.29596111       9.97487158       4.93235743      -0.00480468      -0.00042506       0.00337638
H        8.56735956      10.07842513       6.52518033       0.00121704      -0.00106200       0.00627849
H        9.41739851      11.46805513       5.85597740      -0.00255425       0.00009263       0.00365204
C        5.94834568       7.31827160       3.69512256      -0.01033300      -0.00093918      -0.00311628
C        5.20296121       8.63120136       3.48774663      -0.01016289      -0.00024650      -0.00024001
C        4.99804716       6.15560946       3.96574770      -0.00911015      -0.00227048      -0.00389579
C        6.08768236       9.83464003       3.18681746      -0.00846815      -0.00129648      -0.00049713
C        5.69992217       4.82886269       4.21378969      -0.00675857      -0.00163651      -0.00529273
C        5.26908203      11.11095975       3.04547306      -0.00613818       0.00014579      -0.00058900
H        6.56265525       7.09204361       2.81512567      -0.01122631       0.00087565      -0.00430238
H        6.64585565       7.42490667       4.53451982      -0.00938763      -0.00199812      -0.00373065
H        4.61403082       8.84375616       4.38415425      -0.00887753      -0.00025645       0.00086963
H        4.47564397       8.50725144       2.67716732      -0.01135615       0.00151379       0.00043118
H        4.36939411       6.41026121       4.82466537      -0.00953439      -0.00291736      -0.00368381
H        4.31492529       6.05162257       3.11754484      -0.00830019      -0.00325361      -0.00460947
H        6.81407171       9.95696449       3.99499310      -0.00804931      -0.00244477      -0.00057518
H        6.66579121       9.64922799       2.27457953      -0.00880909      -0.00247594      -0.00059524
H        6.33168395       4.55772378       3.36504900      -0.00631618       0.00042845      -0.00586596
H        4.98814748       4.01442446       4.36027875      -0.00531013      -0.00324596      -0.00629030
H        6.33745544       4.88127385       5.09928018      -0.00660378      -0.00153852      -0.00538884
H        4.57582123      11.04403588       2.20414493      -0.00916447      -0.00056164       0.00183699
H        4.67990269      11.28684513       3.94636906      -0.00301293       0.00337919       0.00089726
H        5.89362620      11.98957684       2.88980872      -0.00466676      -0.00150996      -0.00502489
C       11.43484173      10.36651953       1.63231114       0.00281236       0.00297773       0.00151584
C       10.03741830      10.89018814       1.93117843       0.00192249       0.00196448       0.00023958
C       11.83204113       9.12738187       2.42257470       0.00226876       0.00315982       0.00222185
C        9.68818721      12.12180360       1.10440471       0.00430572       0.00299162       0.00055552
C       13.24392344       8.66908395       2.08062133       0.00248879       0.00222408       0.00408935
C        8.28437402      12.64091573       1.37107267       0.00452417       0.00565270      -0.00219516
H       11.51290806      10.15157296       0.56235121       0.00456095       0.00334727       0.00121447
H       12.16395170      11.15987450       1.81815102       0.00135651       0.00418478       0.00360832
H        9.95169329      11.13630079       2.99553896       0.00029174      -0.00198783       0.00150183
H        9.29766138      10.10134548       1.74397467       0.00258517       0.00259453      -0.00458090
H       11.76912090       9.34142578       3.49478719       0.00147453       0.00412375       0.00203541
H       11.11859974       8.31899987       2.22496365       0.00214651       0.00308445       0.00251776
H       10.42043191      12.90843343       1.30161549       0.00575092       0.00158069       0.00031030
H        9.80370445      11.88279624       0.04464024       0.00626507       0.00361142       0.00018108
H       13.33149403       8.44901079       1.01487528       0.00326918       0.00076991       0.00428739
H       13.53152956       7.77485861       2.63566983       0.00151878       0.00291342       0.00594723
H       13.96461534       9.45427220       2.31263512       0.00279190       0.00231454       0.00346501
H        7.52951701      11.88866316       1.13147436       0.00503185       0.00616145      -0.00555725
H        8.15556236      12.90212471       2.42394158       0.00059397       0.00563015      -0.00221357
H        8.06588991      13.53169164       0.78078206       0.00781765       0.00550300      -0.00408621
C       10.83632995       3.11698271       4.56288349       0.00449343      -0.01059991      -0.00599694
C        9.76645690       2.36498858       5.34560684       0.00393721      -0.00823331      -0.00441098
C       12.21561253       3.07145348       5.20849185       0.00503814      -0.00986329      -0.00713295
C        8.41962892       2.33801159       4.63252236       0.00300802      -0.00712508      -0.00330901
C       13.26478872       3.84015165       4.41630238       0.00347489      -0.00978804      -0.00881180
C        7.32516639       1.62807808       5.41726911       0.00182065      -0.00296816      -0.00096169
H       10.90173513       2.70601982       3.54982193       0.00356922      -0.01212464      -0.00556156
H       10.52646806       4.16261459       4.44511135       0.00606380      -0.01045188      -0.00769242
H        9.64448669       2.82465120       6.33341316       0.00552308      -0.00699310      -0.00478733
H       10.10473130       1.33880510       5.52916888       0.00250891      -0.00860178      -0.00320921
H       12.14512502       3.47069275       6.22535167       0.00659142      -0.01091334      -0.00636619
H       12.53053773       2.02861984       5.30941617       0.00523806      -0.00948712      -0.00788469
H        8.10884293       3.36484915       4.42395260       0.00483389      -0.00683370      -0.00534977
H        8.54209234       1.85804054       3.65673025       0.00145768      -0.00968611      -0.00229564
H       13.41694098       3.39119263       3.43372449       0.00172607      -0.01143669      -0.00725409
H       14.22754076       3.84938973       4.92983256       0.00731318      -0.02421153      -0.01708323
H       12.96105348       4.87882491       4.26628705       0.00655109      -0.00735755      -0.00834108
H        7.60581243       0.59401267       5.63039915       0.00047700      -0.00270940       0.00239029
H        7.14524606       2.12423367       6.37348227       0.00317352       0.00030898      -0.00227402
H        6.38366613       1.60924794       4.86504625       0.00143349      -0.00332111      -0.00045177
