145
Lattice="12.937938907179548 0.0 0.0 0.0 12.937938907179548 0.0 0.0 0.0 12.937938907179548" Properties=species:S:1:pos:R:3:forces:R:3 energy=-209990.875 stress="-1.3196285181038547e-05 2.9105037356202956e-05 -0.0005448007141239941 2.9105037356202956e-05 0.0002666091895662248 0.00011462808834039606 -0.0005448007141239941 0.00011462808834039606 -0.00022352777887135744" pbc="T T T"
Mo      11.81127366      11.26693295      -0.67922242      -0.00833690      -0.00472307       0.01162964
O       11.58689561       9.85884864      10.20797079       0.00722849      -0.00804508       0.01188123
O       13.28294689      11.79320705      11.63548849      -0.01059765       0.00224018       0.01296237
O        9.72973265      10.97735657       9.96816746      -0.00089824      -0.02425987       0.00101638
N       10.76136957      10.72835355      10.51391926      -0.00013137      -0.01566386       0.00784135
O       10.34638784       9.22181292       7.20588079      -0.02844074      -0.02056360      -0.03535938
O       10.03686742      11.29727621       6.65163374       0.01727253       0.00076747       0.00823331
O       10.39365483       9.79353666       5.12378918       0.02388540       0.03009170      -0.02117181
N       10.25682336      10.10217710       6.32192167       0.00419912       0.00433705      -0.01607273
O        4.92195591       8.90082357       3.13378661      -0.01156211      -0.00273490      -0.00104976
O        2.98258899       9.09258392       4.07778054      -0.00810671      -0.01518372       0.00891107
O        4.79059375       9.35736042       5.24539569      -0.00376511       0.00150198      -0.00137615
N        4.22730842       9.12234957       4.16389839      -0.00759211      -0.00550754       0.00209846
O        8.12180463       1.10687706      11.83351978       0.00600362      -0.00435793       0.00422037
O        6.46657607       2.04735022      12.88160333       0.00448728      -0.00109887      -0.00090492
O        6.32105410      -0.02479112      12.24763356       0.00420654      -0.00209689       0.00253236
N        6.98334634       1.05554952      12.32024469       0.00471166      -0.00227456       0.00207876
O       10.55363939       9.45662699      -0.11160512      -0.00191879      -0.00782362       0.01331407
O       11.36208744       8.17199441       1.45761621       0.00376543      -0.01783276       0.04164153
O       12.47303576       9.90229927       0.71513049      -0.00442535       0.00962663       0.01812388
N       11.42466270       9.10752150       0.74126948       0.00780644       0.02848187       0.00307125
O       11.09577863      -0.35926176       0.06645741      -0.01876886      -0.00434542       0.00054699
O       10.76756439       3.46133600       1.59098408       0.00996900       0.03424382       0.00273442
O       12.41998730       3.94747442       0.29282090       0.00964725       0.00365460      -0.00850272
N       11.66487606       3.16035212       0.84442934       0.00561899       0.01478195       0.00395155
O       11.43216091       0.46936078       5.59140256       0.00526524       0.00783014       0.00178689
C       10.57827575       1.35317849       4.88663020       0.00700444       0.00603414      -0.00215584
C        9.15558718       1.32216007       5.42800724       0.00656652       0.00999439      -0.00264049
C       11.19939322       2.73373183       4.99465714       0.00961351       0.00533652      -0.00798446
H       10.55176023       1.07330869       3.82180437       0.00643189       0.00164041      -0.00109386
H        8.51611649       2.00043265       4.86251219       0.00751383       0.00891580      -0.00502200
H        8.74090423       0.31481937       5.35850114       0.00481004       0.01035991      -0.00004010
H        9.14786906       1.61547413       6.47879856       0.00606419       0.01242130      -0.00328296
H       10.64954805       3.45683365       4.39336600       0.01007286       0.00349052      -0.01035808
H       12.23233797       2.70698171       4.64546508       0.01024868       0.00094990      -0.00754708
H       11.19596726       3.05681254       6.03828414       0.00935582       0.00954982      -0.00940895
H       10.94078610      -0.34569500       5.80043310       0.00642186       0.00700980       0.00133411
O       10.15238555      10.80000839       2.41524657      -0.00263667       0.00506150       0.00784948
C        8.75632782      10.96574568       2.13094143      -0.00175583       0.00244802       0.00524624
C        7.91255464      10.18666337       3.12086336      -0.00538057       0.00094914       0.00179803
C        8.37939028      12.43968542       2.05989425      -0.00342381       0.00195396       0.00588773
H        8.61202996      10.54503789       1.12796908       0.00193301       0.00247613       0.00537306
H        6.85330900      10.21585876       2.86890862      -0.00352943      -0.00394992      -0.00746264
H        8.22489137       9.14263520       3.14773373      -0.00166686       0.00230405       0.00719105
H        8.03042700      10.59107164       4.12854886      -0.01699641       0.00453961       0.00171366
H        7.32917363      12.54071116       1.77829696      -0.00093454       0.00155742      -0.00357274
H        8.97567606      12.96122531       1.31273718       0.00326760       0.00386278       0.01255614
H        8.52862338      12.91878022       3.02812685      -0.01279219      -0.00042126       0.00832845
H       10.25671025      10.63923422       3.36799356      -0.00159472       0.01300612       0.00980204
O        2.77944295       3.98643748       9.70185926      -0.00279862       0.00342512       0.00480676
C        3.88590884       3.40168610      10.40375298      -0.00163066       0.00153467       0.00132269
C        4.55133730       4.42099277      11.31391698       0.00030690      -0.00107265       0.00294018
C        3.46708621       2.14773027      11.14637320      -0.00044227      -0.00058997      -0.00143784
H        4.58798324       3.12873137       9.61066200      -0.00308293       0.00390370      -0.00090408
H        5.43870512       3.98584891      11.77782523       0.00062671      -0.00279793       0.00079322
H        4.82832894       5.31265550      10.75208153       0.00007095       0.00000674       0.00496902
H        3.86097553       4.71801644      12.10799275       0.00140843      -0.00288169       0.00462803
H        4.32316781       1.70464026      11.65494525       0.00061369      -0.00292695      -0.00515424
H        3.03587992       1.41273321      10.46811952      -0.00279843       0.00220086      -0.00283423
H        2.72374104       2.38507430      11.91079722       0.00177044      -0.00267963       0.00136900
H        2.10596907       4.18907019      10.35805378      -0.00091827       0.00341089       0.00672726
O        3.36032774       0.88310757       4.04915869      -0.00151527       0.00689518       0.00502813
C        4.35559834       1.55345577       3.26780977       0.00216210      -0.00114375       0.00237489
C        3.72367108       2.58128229       2.35013480       0.00573200      -0.00280654      -0.00163066
C        5.43541598       2.14141362       4.15696845       0.00493997      -0.00081831      -0.00080174
H        4.78479497       0.76986239       2.64377984      -0.00036979      -0.00526655       0.00585157
H        4.48463965       3.04493950       1.72109672       0.00670348      -0.00883433      -0.00485632
H        3.00295141       2.09208501       1.69828877       0.00257526      -0.00269185       0.00171018
H        3.22521555       3.36379200       2.93170006       0.00985491       0.00171600      -0.00418288
H        6.24444379       2.54970482       3.55006850       0.00509326      -0.00430437      -0.00318184
H        5.85051204       1.37683192       4.81322104       0.00471881       0.00076871       0.00123368
H        5.04467361       2.95065860       4.77886349       0.00763335       0.00213386      -0.00298141
H        2.82302762       1.55896494       4.47248473       0.00165081       0.01071152       0.00212213
O        7.19967852       4.58519795       5.52523714       0.00636335       0.00282717      -0.00250924
C        7.08230981       5.50918416       4.43543716      -0.00007990       0.00395900      -0.00077432
C        6.73108077       6.89783313       4.92289626      -0.00139260       0.00254172       0.00283048
C        8.34396833       5.48308805       3.58442280      -0.00346029       0.00826842      -0.00589168
H        6.25382762       5.11678979       3.83849020      -0.00159740       0.00270298       0.00224352
H        6.48226745       7.56486225       4.09771802      -0.00649832       0.00303391       0.00475484
H        5.86402506       6.87945137       5.58183179       0.00188518      -0.00063372       0.00705948
H        7.57065843       7.34044397       5.46634194       0.00013812       0.00390593      -0.00060479
H        8.22842803       6.12145163       2.70742937      -0.00857386       0.00849134      -0.00497384
H        8.56765174       4.47103126       3.24763834      -0.00183098       0.00914079      -0.00758809
H        9.19656352       5.85385193       4.15720025      -0.00200659       0.01009086      -0.00911750
H        7.63859635       5.04377280       6.24771893       0.01331684       0.00129553      -0.00583312
O        9.69822523       0.85335071       8.64187905      -0.00187194      -0.01485541      -0.00454390
C       10.69420968       1.16169988       9.60452666      -0.00519747      -0.01255488      -0.00169563
C       12.09088700       0.92040582       9.04771394      -0.00258958      -0.00928210       0.00295261
C       10.46937438       2.59789205      10.03079170      -0.00858259      -0.01297677      -0.00206104
H       10.54239714       0.53870697      10.49871202      -0.00658241      -0.01303071      -0.00216848
H       12.85395124       1.12953220       9.79936670      -0.00636394      -0.01228468       0.00761224
H       12.20981479      -0.11553505       8.72177622      -0.00018412      -0.00763680      -0.00097025
H       12.25907180       1.55077831       8.17381930       0.00124115      -0.00499398       0.00682792
H       11.22501397       2.90131685      10.75589766      -0.01381515      -0.01430392       0.00387461
H        9.48766410       2.69919948      10.49028509      -0.01162922      -0.01343402      -0.00866838
H       10.53715898       3.25562340       9.16134418      -0.00197224      -0.01174731      -0.00074622
H        9.86070005      -0.02923166       8.28653173       0.00235932      -0.01303527      -0.00588146
O        9.04893606       7.74691216       9.08577030       0.00195813       0.00536495       0.00306779
C        8.77611870       6.51836512       8.41963237       0.00346249       0.00506949       0.00202948
C        9.98981983       6.03281994       7.64017596       0.00393426       0.00263259       0.00386307
C        8.31918935       5.53289004       9.47823903       0.00210351       0.00485587       0.00105602
H        7.94219298       6.68021936       7.71873611       0.00500703       0.00604019       0.00046563
H        9.76860741       5.09428048       7.12586263       0.00102411       0.00579657      -0.00072083
H       10.29734402       6.77638852       6.90477543       0.00836963       0.00412044       0.00763290
H       10.82269496       5.85413718       8.32157382       0.00187998      -0.00475226       0.00457461
H        8.05643753       4.57307048       9.03133687       0.00333708       0.00485520       0.00063832
H        7.44821476       5.92320223      10.00333236       0.00116719       0.00458017      -0.00011728
H        9.11953797       5.36459253      10.19940033       0.00145894       0.00510027       0.00196212
H        9.46152598       8.37184390       8.45826595      -0.00552242       0.00878835       0.00218974
O        1.19777949       6.48354940       0.52066353      -0.01440692      -0.01988977      -0.00217962
C        1.77572969       5.82611152       1.65199279      -0.00829205      -0.00740471       0.00125587
C        3.09924049       6.49755985       1.94859872      -0.01221138       0.00339228      -0.01025075
C        0.82837068       5.88466901       2.84273871      -0.00506192      -0.00267492       0.00393182
H        1.95044016       4.77315360       1.38819140      -0.00351720      -0.00905240       0.01027611
H        3.61871118       5.96593866       2.74783622      -0.00624690       0.01557652      -0.00647557
H        3.74171282       6.50495592       1.06839322      -0.01659198      -0.00161102      -0.01341450
H        2.95492468       7.52283579       2.28668720      -0.01879223       0.00558627      -0.02039152
H        1.22997853       5.31735373       3.68516941       0.00099448       0.00636247       0.00732960
H       -0.14494574       5.46197314       2.58228488      -0.00465825      -0.00915336       0.01205613
H        0.69689181       6.92036859       3.15811648      -0.00865911      -0.00101593      -0.00364007
H        0.35658103       6.04377248       0.35278987      -0.00517121      -0.03734440      -0.00256175
O        6.37265820       8.18753453       9.65426229      -0.00496528       0.00081134      -0.00760230
C        5.81737925       9.47793674       9.88669096      -0.00315130       0.00168931      -0.00685215
C        6.41227307      10.52276122       8.95574297      -0.00529233      -0.00010830      -0.01032460
C        4.31805673       9.34060668       9.70977249      -0.00387859       0.00318229      -0.00140539
H        6.02217039       9.78474523      10.92176036       0.00091946       0.00254726      -0.00797343
H        6.04225494      11.51374275       9.22123155      -0.00301276       0.00070022      -0.01004693
H        7.49736919      10.55184911       9.04519040      -0.00500166      -0.00138765      -0.01421261
H        6.15037455      10.30076778       7.92005039      -0.00954239      -0.00107341      -0.00902316
H        3.81519100      10.27432088       9.96288274      -0.00156180       0.00439440      -0.00167557
H        3.93175580       8.54781456      10.35109576      -0.00289846       0.00514317       0.00162874
H        4.09677268       9.09053827       8.67042780      -0.00779572       0.00133667      -0.00020424
H        7.33927211       8.26080816       9.55962722      -0.00457579      -0.00016505      -0.00361481
O        3.89599853      12.78074942       0.55194422       0.00616711      -0.00238383       0.00125164
C        3.82813440      11.53817070       1.22994784       0.00991768      -0.00379467      -0.00073430
C        2.36511241      11.23223616       1.48061102       0.01119173      -0.00329554       0.00647758
C        4.52345307      10.44215203       0.43819590       0.00470835      -0.00379747      -0.00604349
H        4.32325804      11.61147666       2.21329335       0.01587301      -0.00501406      -0.00360477
H        2.26141624      10.35750813       2.12307339       0.01440620      -0.00712368       0.00165129
H        1.88237954      12.08000014       1.96940546       0.01521649      -0.00594506       0.01507330
H        1.87183240      11.05111758       0.52480576       0.00495431       0.00358874       0.00826758
H        4.48735117       9.50715698       0.99592211       0.00387783      -0.00639294      -0.01007631
H        5.56834773      10.70287052       0.25956930       0.00291179      -0.00052731      -0.01354913
H        4.03148330      10.31992054      -0.52834030      -0.00114888      -0.00229350      -0.00294750
H        4.78755512      12.88055502       0.14717256       0.00561875       0.00077139       0.00027278
