147
Lattice="11.95041776039698 0.0 0.0 0.0 11.95041776039698 0.0 0.0 0.0 11.95041776039698" Properties=species:S:1:pos:R:3:forces:R:3 energy=-95041.9453125 stress="0.0004290384822525084 0.0005530270282179117 -0.00027158264128956944 0.0005530270282179117 0.000534467922989279 9.102924741455354e-05 -0.00027158264128956944 9.102924741455354e-05 -0.001754949102178216" pbc="T T T"
Na      14.11482874      11.65046315       0.76515263       0.02381856      -0.01885953      -0.00877434
S       11.63772620      10.98583030       1.89167919       0.00450590       0.00410539      -0.00871909
O       12.55156106      12.03495751       2.41753986       0.02324694       0.00188237      -0.00967100
O       12.35643386      10.22981025       0.84484044       0.01829755      -0.01100755      -0.00299710
O       10.34874970      11.50242080       1.49217883       0.02806449       0.00542364      -0.01515090
C       11.32991246       9.85435387       3.21872590       0.00568298       0.01260096      -0.00361735
H       10.74740009      10.37932807       3.97176691       0.00467950       0.01980516      -0.00690013
H       10.78667998       8.99921890       2.81734333       0.00037415       0.01240559      -0.00063483
H       12.27310609       9.52906531       3.64650041       0.00125228       0.00797120       0.00260521
O        5.29129994       9.91386886      10.55878521      -0.02420048      -0.00507259       0.00671637
C        5.28632593       8.67019060       9.86898161      -0.01048891       0.00065023      -0.00422251
H        4.26597523       8.47022304       9.53284200      -0.00886157      -0.01072801      -0.00156584
H        5.62524176       7.85059590      10.51131202       0.00366254       0.00006345      -0.01284391
H        5.93587654       8.68190462       8.99214970      -0.01381224       0.01715150      -0.00610179
H        6.21432648      10.23720473      10.56445367      -0.02816398       0.00709576       0.00150232
O        4.09487844       7.83921789       0.79940382       0.00873657       0.00122388       0.00353509
C        4.09179778       9.10259059       1.47782249       0.00371399      -0.00602250       0.01576335
H        3.06096942       9.41970175       1.67662216       0.00205541      -0.00807277       0.01160683
H        4.61992352       9.84508843       0.87967987       0.00711133       0.00027007       0.02706419
H        4.60608582       8.96678756       2.42726875      -0.00314322      -0.01441519       0.01813331
H        4.04647726       8.01065808      -0.14666991       0.02438625       0.01149541       0.00474149
O        4.95356487       3.03863731      10.71568408       0.00996956      -0.00558987      -0.00021312
C        4.52661082       1.68953230      10.67183111       0.00305253      -0.00328273      -0.00347919
H        3.62005841       1.54923024      11.27506668      -0.00058134       0.00122734      -0.00810923
H        5.30103561       1.00580509      11.03238552      -0.00223675      -0.00715192       0.00033557
H        4.30509563       1.42262682       9.63811543       0.00684767      -0.00184603      -0.00478107
H        4.67452535       3.46938016      11.55314320       0.00138711      -0.00365610      -0.00405245
O        6.05795518       8.65312386       6.45326575       0.00203070      -0.00367790      -0.00679798
C        4.96941918       9.56051866       6.38154688       0.00690258       0.00218946      -0.00117474
H        4.18452118       9.30828899       7.10121790       0.00549597       0.00164486      -0.00284627
H        4.53141623       9.57234736       5.37826669       0.00724363       0.01079494      -0.00116560
H        5.34394668      10.55627245       6.61706239       0.01192407      -0.00135343       0.00530326
H        5.72639539       7.78347037       6.14474275      -0.00115414      -0.00055404      -0.01342429
O        8.10924999       7.17479328      10.89666985       0.00758564       0.00925007      -0.00314204
C        7.54151984       5.93087332      10.51586366       0.00547011       0.00803885       0.00364057
H        8.28128098       5.12486424      10.54261696       0.00541580       0.00813597       0.00201271
H        7.08893041       5.98042851       9.52285041       0.00020622       0.00499510       0.00591484
H        6.75610292       5.69002237      11.23318252       0.00928541       0.01022606       0.00859568
H        8.91932578       7.32200753      10.37429866       0.00857097       0.00517537      -0.00267288
O        7.81804584       7.65595731       1.55279565       0.01063056       0.01136160      -0.00317040
C        7.79510358       9.07298465       1.69588006       0.00502025       0.01126879      -0.00272673
H        6.97206233       9.51107489       1.12478632       0.00408703       0.00792260      -0.00417979
H        8.72787349       9.53907196       1.36949311       0.00363666       0.01486610      -0.00087288
H        7.64817554       9.30001678       2.75303552       0.00172275       0.01036412      -0.00294229
H        7.93605799       7.47413422       0.59322331       0.01037815       0.01183028      -0.00305561
O        8.37116801       4.29277621       6.00936477      -0.00028586      -0.00219905       0.02060661
C        7.34676481       4.80919059       6.85509742      -0.01462719       0.00022498       0.00135631
H        7.31124483       5.89912614       6.82865212      -0.01747282      -0.00008282      -0.00641056
H        7.49150401       4.48888861       7.88910648      -0.02995013       0.00764370       0.00549299
H        6.38790639       4.43797576       6.50122018      -0.00799128      -0.00521536      -0.01071607
H        9.13694649       4.87203204       6.11781977      -0.00724949       0.00715955       0.02155919
O        4.64757290       5.02171438       8.83613995       0.00808018      -0.00507751       0.00150388
C        3.60637565       4.58118779       7.98810764       0.01008478      -0.00096333      -0.00283012
H        2.62267183       4.64703756       8.47280607       0.00978366      -0.00994412      -0.00229841
H        3.75542180       3.54649824       7.65649734       0.01421182       0.00304204      -0.01334257
H        3.59102175       5.21818386       7.10475999       0.00756973       0.00747353       0.00343785
H        4.77866237       4.32147515       9.50185133       0.00738689      -0.00802340      -0.00124153
O        8.51009503       8.96177421       7.70003523      -0.00734150      -0.02108744      -0.00476572
C        9.25917460      10.07033898       7.21826471      -0.01586857      -0.01168993       0.00268148
H        8.71702249      11.01138560       7.34775511      -0.01605330      -0.01577473       0.02648518
H        9.53391770       9.96026753       6.16458524      -0.03166564       0.00617108      -0.00278491
H       10.17843852      10.12078885       7.80065447      -0.00759788      -0.01962227      -0.00990169
H        7.63258967       8.95332710       7.27031203      -0.00953978      -0.02066234      -0.00149015
O        5.08278808       6.54772037       5.08988799      -0.00021946       0.00622258      -0.01077318
C        5.94118037       6.51429317       3.95067067      -0.00020686      -0.00497226      -0.01042911
H        5.37390318       6.43854491       3.02142493      -0.00080106      -0.01157547      -0.00952059
H        6.65180032       5.68559018       4.00167876      -0.00233507      -0.00635120      -0.00379092
H        6.49433865       7.45023986       3.93127097       0.00204442      -0.00657219      -0.01824849
H        4.54126877       5.73753203       5.06666543      -0.00252707       0.00739154      -0.00372402
O        3.65728786       4.32205088       4.20316445      -0.02408046       0.02574804       0.01026100
C        2.45981416       3.58664517       4.42798904      -0.00676508       0.00012404       0.01173403
H        2.18894939       2.98612100       3.55298490      -0.00571096       0.00858606       0.00542954
H        1.61263089       4.24357289       4.64352382      -0.01664332      -0.01994944       0.03147302
H        2.61720814       2.92702477       5.28110962       0.01456391      -0.00941704      -0.00015576
H        3.43281866       4.97502910       3.51473720      -0.03848055       0.02737509       0.01527980
O        0.60084192      11.62559058       5.96209462      -0.00494105      -0.00978776       0.01641929
C        1.80138641      11.01357262       5.51882791      -0.00143231       0.00205357       0.01057340
H        1.80599349       9.93657616       5.71768153       0.00345359      -0.00052628      -0.00407892
H        2.68701562      11.46253099       5.98508770      -0.00430796      -0.00039588       0.01816772
H        1.85007654      11.17620042       4.44260051      -0.00004274       0.01640829       0.01291940
H        0.47755492      11.39230065       6.88523869      -0.00537752      -0.02217576       0.01311260
O        9.74930535       6.84927525       6.53136330      -0.00751698      -0.00569490      -0.00223780
C        9.31697056       7.31027664       5.24314079       0.01411158      -0.00964038      -0.01100609
H        9.98518118       8.08532937       4.86281112       0.01802680      -0.00747585      -0.00003088
H        8.30423344       7.71165671       5.30549598       0.01183525      -0.01337927      -0.02977104
H        9.33603633       6.47758631       4.54591329       0.02989375      -0.01070648      -0.00887015
H        9.32859998       7.45444963       7.18395662      -0.01594886       0.00158724      -0.01249290
O       10.46021982       7.09918738       9.43050538       0.02960569      -0.00218290       0.02099060
C       10.96225042       5.76705553       9.33366150       0.00629111      -0.00901131       0.00671261
H       11.21933547       5.38360268      10.32439307       0.00862582      -0.01698215       0.00274277
H       11.84484778       5.73703698       8.69592677       0.00221956      -0.01786205       0.00157651
H       10.19540004       5.13154583       8.88838876      -0.00364465       0.00089017       0.00861308
H       11.13488207       7.69192411       9.07815449       0.00693119      -0.01942067      -0.04317994
O        7.00228296       2.41837051       4.40457880      -0.00487477       0.01309216       0.01107067
C        6.45076181       1.67527056       5.46261747       0.00551143      -0.00148329       0.00609195
H        6.07538770       2.31344496       6.27343968      -0.00225975      -0.01230797       0.01104349
H        7.16148464       0.94402133       5.87595673       0.01469713       0.00472343       0.00040102
H        5.59490905       1.11760432       5.08045258       0.01251480      -0.00937697       0.00224008
H        7.64279717       3.04239064       4.78296980      -0.00202502       0.00892916       0.01330200
O        0.29383699       7.80935034       7.15441631      -0.02312994      -0.00084713       0.00779250
C        1.21979648       6.99514682       6.44903415      -0.00572747       0.00726180       0.02132832
H        0.97518335       6.94748647       5.38628071       0.00950418       0.00529882       0.01797360
H        1.24698509       5.96986908       6.83437538      -0.00188216       0.00763646       0.02193977
H        2.21693973       7.42330956       6.55272450      -0.01140186       0.01612690       0.03530756
H       -0.59492123       7.48623560       6.89490012      -0.01747949      -0.00884463      -0.00375504
O        3.57130758       0.72426209       2.14300158       0.00545597       0.01220357      -0.01304924
C        4.92792368       1.15792848       2.34705842       0.00261072       0.01537581      -0.00047980
H        5.48956396       0.41969306       2.92256689      -0.00144225       0.01691002       0.00515886
H        4.96533936       2.12373075       2.84855346      -0.00433792       0.01565766      -0.00070725
H        5.38518325       1.24798337       1.36542627       0.01187542       0.01610097       0.00406639
H        3.06250485       0.88963248       2.94399204      -0.00423053       0.01702061      -0.02069288
O        7.71326241      11.12371699      10.26130022      -0.02567941      -0.00720838      -0.01876783
C        9.12689666      11.17820418      10.46408699      -0.02766374      -0.01707130      -0.00052537
H        9.52826658      10.16371755      10.48083890      -0.03564625      -0.01999563       0.00051362
H        9.37121595      11.65753078      11.41143151      -0.03467706      -0.02114888       0.00351834
H        9.60707280      11.72673168       9.64929810      -0.01394410      -0.01812208       0.00709113
H        7.48590786      11.77692123       9.58090261      -0.01526921       0.00833301      -0.00638483
O       10.16829373       6.51314716       2.33346378       0.00971520       0.00475568      -0.00883800
C       10.72129399       6.07662312       1.10648116       0.00506806       0.00373414      -0.01050824
H       11.12605614       6.91154965       0.51959543       0.00117587       0.00309089      -0.01394707
H        9.97974058       5.55437496       0.49227328       0.00318649       0.00149748      -0.00632000
H       11.52455165       5.37368190       1.33340678       0.00701535       0.00501463      -0.01280867
H        9.30476208       6.93098941       2.12821740       0.01089178       0.00799241      -0.00633409
O        3.93300716       4.53652369       0.71959433      -0.00625667      -0.01013243      -0.00782330
C        2.55994052       4.57851191       0.29349809      -0.00500537      -0.01297410      -0.01197809
H        2.46040729       4.08594038      -0.67778242      -0.00022872      -0.00710659      -0.01544005
H        2.20591252       5.60423145       0.20816966      -0.00892822      -0.01396808      -0.00605472
H        1.95215500       4.06565804       1.03746159      -0.00487912      -0.02052853      -0.01715258
H        4.31530770       5.41503034       0.61690524      -0.00774075      -0.00954193      -0.00746091
O       11.49767444       2.75806143       2.33644154       0.01719064      -0.00268312      -0.02205649
C       10.16106465       2.79452163       1.85660357       0.00663418       0.00328094       0.00738655
H        9.71753451       3.73912663       2.16952399       0.02047814       0.00842252       0.01130515
H        9.56221745       1.97128125       2.25019438       0.01021864       0.01014498       0.02566290
H       10.13041686       2.73854175       0.75942964      -0.01821831      -0.00333355       0.00905299
H       11.76161972       1.82782493       2.40547527       0.01470011      -0.00255124      -0.02652859
O        2.69755837       6.38308440       2.65272669      -0.01306081      -0.00450046      -0.01617250
C        1.57303750       7.23623416       2.81175075      -0.00673895       0.00032412       0.00208043
H        1.27360261       7.68307105       1.85935218      -0.01384436       0.00858198       0.00846121
H        1.79649985       8.03935472       3.52206220       0.00405090      -0.00664252       0.00624701
H        0.73424617       6.65213624       3.18619910      -0.00535497       0.00047328       0.00520842
H        3.26615339       6.79050293       1.98139005      -0.01189656      -0.00144171      -0.01374230
O        7.30655929       1.37847229       8.73670503       0.00811921       0.01214996       0.00062418
C        7.87123457       2.33095918       9.64174715       0.01193256       0.00844944       0.00201733
H        7.23729425       3.21216775       9.72067827       0.01292890       0.00867662       0.00683413
H        8.88493212       2.60976186       9.34172224       0.01101699       0.00838483      -0.00030605
H        7.90984709       1.84944407      10.61713137       0.01425906       0.00551206       0.00054869
H        7.32397994       1.74015291       7.84577469       0.01116797       0.01282838       0.00106189
