146
Lattice="12.686238890194884 0.0 0.0 0.0 12.686238890194884 0.0 0.0 0.0 12.686238890194884" Properties=species:S:1:pos:R:3:forces:R:3 energy=-208597.96875 stress="0.0015916615957394242 -2.373395545873791e-05 -0.0008104265725705773 -2.373395545873791e-05 0.00016903073992580175 0.0008184090838767588 -0.0008104265725705773 0.0008184090838767588 0.0005408816505223513" pbc="T T T"
Nb      11.79521449      11.23219323      -1.35902737      -0.00082663      -0.03784689      -0.00114485
O        2.51182668      12.02274245       4.95186570      -0.04565513      -0.01213127      -0.00036043
O        0.40164778      12.48486733       4.50206278      -0.04364610       0.04427865       0.02647066
O        1.27763242      13.16274181       6.46997561       0.01429423       0.03701437       0.00476503
C        1.30426601      12.61129636       5.35001017      -0.02556199       0.02550614       0.00879556
H        3.19416114      12.25729643       5.59030003      -0.04367766      -0.02182200       0.00126329
O        9.39314231      10.73463411       8.37055549      -0.01240653      -0.01490194      -0.04123203
O       10.95144110      10.43716850       9.84691834      -0.01968027       0.03102693      -0.02308029
O        9.19930674       9.02220888       9.84501098      -0.00734748       0.02817051      -0.00507303
C        9.76971788       9.96606053       9.37175239      -0.01786405       0.00701576      -0.01754159
H        8.54806102      10.43177773       8.01296830      -0.01296419      -0.02448586      -0.03016481
O       12.17700193       8.91976436      -0.56307017      -0.03267122       0.04678154      -0.03045794
O       10.80125114      10.42078606       0.15218912      -0.01436359       0.01194930       0.01800323
O       10.53372956       8.28574380       0.88495723       0.05450552       0.04395063       0.03018809
C       11.07843943       9.13578233       0.25100378      -0.01281714       0.00506407       0.03358805
H       12.48524353       8.00647236      -0.51832637       0.05249813       0.07625854      -0.03662398
O        5.90742460       9.84128359       2.01505533      -0.00753433      -0.03886938      -0.01666284
O        5.49530121      10.61188834       4.08729658      -0.01601362      -0.03020865      -0.02336526
O        6.84294854      11.78051508       2.68836528      -0.03353691      -0.01807594      -0.03285360
C        6.09279822      10.85824790       3.03532257      -0.01873615      -0.02603728      -0.02495116
H        6.48768347      10.15431789       1.31304872      -0.01474866      -0.04000538      -0.02323487
O        3.06129638      12.23230427      11.39951002      -0.01254767       0.00436294      -0.00564981
O        1.03915093      11.42720401      11.53676230       0.00049949      -0.02747058       0.03182977
O        1.56420396      12.68969470       9.76282913      -0.05850803       0.00443579       0.03850827
C        1.86208936      12.15722125      10.80977441      -0.02755979      -0.00788835       0.02595568
H        3.66813599      12.69968846      10.80931313      -0.05067754       0.04345405      -0.01320171
O        5.19095307       1.91744810       3.69822312      -0.00700265       0.00900197       0.01520252
N        3.89667545       2.11323953       1.82546894       0.00542527      -0.00216454       0.00661805
C        2.98201075       1.05518304       2.20633340       0.00538800      -0.00142631       0.00843379
C        3.52620973       2.95606050       0.71731744       0.01561404      -0.01528174      -0.00650919
C        4.95011104       2.42184449       2.62063129       0.00038442       0.00325459       0.01024246
H        2.72463237       0.47686095       1.31838529       0.00764679      -0.00429757       0.00967520
H        2.06297355       1.44883778       2.65023401       0.00424874      -0.00085348       0.00595854
H        3.46150228       0.41072189       2.93878302       0.00602557       0.00103043       0.01018608
H        3.40164382       2.37525297      -0.19961974       0.02313031      -0.02770871       0.00021532
H        4.30019280       3.70213643       0.54177832       0.01725425      -0.01725623      -0.00862471
H        2.58146985       3.47494242       0.92189257       0.01355833      -0.01321767      -0.02182469
H        5.58256500       3.21658105       2.18426781       0.00293314       0.00117570       0.01046285
O        6.87300349       4.70550334       4.22522851       0.00521708      -0.01210010       0.00592220
N        6.18172967       3.71616674       6.16686877       0.00929198      -0.01519593       0.00582230
C        5.30410716       4.79830309       6.56098567       0.01408931      -0.01306100       0.01117061
C        6.10579403       2.49286720       6.93879219       0.00072323      -0.02043483      -0.00288163
C        6.84870292       3.75132366       4.99633909       0.00452391      -0.01384670       0.00242531
H        5.47326518       5.06864948       7.60323099       0.01573413      -0.02016634       0.01279855
H        4.25689103       4.49449311       6.45299566       0.01251310      -0.00726385       0.00993159
H        5.48026740       5.66459554       5.93170940       0.01764908      -0.01069504       0.01535031
H        6.22017180       2.72991259       7.99849806       0.00102820      -0.03055619      -0.00044039
H        6.88686090       1.80439419       6.61785131      -0.00217876      -0.02230994      -0.00603560
H        5.13333693       2.01322010       6.79483947      -0.00218844      -0.01316138      -0.00880721
H        7.41362975       2.82575299       4.81332964       0.00069422      -0.01570952      -0.00191489
O       11.55443780       0.51667353      11.34382504       0.00491975      -0.03642863      -0.04376215
N       11.51012639       1.61855456       9.34784623       0.01028945      -0.01531387      -0.03099471
C       10.63121395       0.63130003       8.74258994       0.00248533       0.00129586      -0.04859909
C       12.18828454       2.52422078       8.43378280       0.01314262      -0.00092193      -0.01327014
C       11.86911971       1.51441417      10.59664861       0.01692042      -0.03606334      -0.03589609
H       11.22907307      -0.18555808       8.33899553      -0.00325581       0.00509498      -0.06478116
H       10.08919627       1.08403879       7.91696416       0.00558588       0.02374177      -0.03770751
H        9.91776378       0.27713975       9.48224469       0.00128239      -0.01033165      -0.05603728
H       12.86433084       1.92856949       7.80483748       0.00638378       0.00759786      -0.02939662
H       12.73571917       3.27706216       8.99681443       0.02157725      -0.02009203       0.00411776
H       11.44147904       2.99781968       7.79831270       0.01248258       0.02140457       0.00418921
H       12.46482492       2.31140254      11.03721930       0.03438880      -0.05125172      -0.03186869
O       10.83496166       8.38323306       7.33412865       0.02526140      -0.01715767       0.02148440
N       10.45548674       6.23999528       6.65843145       0.00657531      -0.00474426      -0.00852039
C       11.85050380       5.98249168       6.38426046       0.00438683      -0.01397027      -0.01153602
C        9.50869807       5.16638481       6.45150743      -0.00274473       0.00520088      -0.01845836
C       10.07827834       7.44938377       7.12365554       0.01682720      -0.00776851       0.00718176
H       11.96759165       5.57645689       5.37876833      -0.00097776      -0.01327628      -0.01239228
H       12.26225322       5.26453411       7.09794632       0.00110298      -0.01790293      -0.01348466
H       12.39112738       6.92035105       6.47188121       0.01165468      -0.01817909      -0.01114606
H        9.58403355       4.77802210       5.43539992      -0.00610300       0.01450708      -0.02225369
H        8.49577013       5.53379691       6.59747933       0.00036943       0.01247412      -0.01492576
H        9.68839830       4.34744887       7.15456137      -0.00962275      -0.00309923      -0.02620718
H        8.98966232       7.50911075       7.29665267       0.01707995      -0.00024768       0.00606234
O        4.31289755       7.64284619       5.16087513      -0.02666593      -0.00951926       0.02662873
N        4.66470903       6.60534769       3.17019575      -0.00722110       0.00929630       0.02000231
C        3.73915282       5.53876833       3.46405267       0.00203973      -0.00210026       0.00821128
C        5.45840068       6.48246179       1.97110997       0.00147638       0.02366231       0.02385892
C        4.89457441       7.58244469       4.08670619      -0.01953351       0.00388320       0.02845907
H        4.26861054       4.59916946       3.63138130       0.01145160       0.00409538       0.01349351
H        3.03752637       5.40592586       2.63505691       0.01348044      -0.00922603      -0.00035906
H        3.19430846       5.80073082       4.36747879      -0.01133609      -0.01001324       0.00246629
H        6.09092775       5.59169034       2.03059581       0.01187599       0.03103161       0.02398511
H        6.07521364       7.37315532       1.86055246      -0.01092425       0.03303590       0.03085583
H        4.80779480       6.40962916       1.09196266       0.00703761       0.01920099       0.01996952
H        5.62174829       8.33463370       3.75886685      -0.02587706       0.01508951       0.04096234
O        7.89299403      12.32315243      10.80009447       0.03784394      -0.02583754      -0.01278597
N        5.98539001      11.12561084      10.37017279       0.02723800      -0.01330471       0.00180712
C        6.02832833      11.36295160       8.93990903       0.01457608      -0.01204653       0.00156726
C        5.14553674      10.02655924      10.82822862       0.01568352       0.00070843       0.01191240
C        6.95403512      11.63126613      11.17064439       0.03438938      -0.01892513      -0.00468807
H        5.03078426      11.62102572       8.57696398       0.01326841      -0.00215217       0.01113564
H        6.34228067      10.46011063       8.40492809       0.00035374      -0.01428548      -0.00359780
H        6.71579157      12.17835982       8.72996665       0.02020735      -0.01795551      -0.00393340
H        4.14549468      10.11396785      10.40516874       0.01685181       0.00962917       0.01142947
H        5.04483367      10.04549825      11.91098342       0.01824328       0.01346228       0.01217148
H        5.56509217       9.07039027      10.50457109       0.00426151      -0.00766131       0.02119891
H        6.80427271      11.37519771      12.23245948       0.04168495      -0.01486585      -0.00256521
O        2.69536405       8.80649991       0.10617120      -0.06937811      -0.01315266      -0.00078487
N        1.87835146       9.27830610       2.19771018      -0.00916955       0.00735572       0.01738229
C        1.32481302      10.56626243       1.85762867      -0.00003251       0.01335713       0.02457506
C        1.67578751       8.83200745       3.55992013       0.00451758       0.00884815       0.01985031
C        2.53996602       8.53881906       1.29396941      -0.03772283      -0.00376274       0.00755501
H        1.59059011      11.29535718       2.62281401      -0.00914527       0.00143141       0.03868237
H        0.22955156      10.52116733       1.83468789      -0.00014046       0.01994213       0.00319174
H        1.70054064      10.84735280       0.88113126       0.01884440       0.02598715       0.03566593
H        1.98811260       9.61921785       4.24624995       0.02681006       0.00312760       0.01588306
H        2.26924765       7.94278698       3.75074997      -0.00770609      -0.00155556       0.00911757
H        0.61680239       8.60854822       3.72613193       0.00328037       0.02555567       0.03311256
H        2.94020763       7.61692690       1.74331650      -0.02947092      -0.00189942       0.00334480
O        5.16755721       7.50103362       8.38995294       0.01706481       0.02178419      -0.01042956
N        2.96188039       8.08682234       8.24990511       0.00960964       0.00616324      -0.00508604
C        2.46859494       6.87248950       8.85371880       0.01470477       0.01052644       0.00742300
C        1.98999244       9.09993536       7.90429631       0.00280348      -0.00327540      -0.01447122
C        4.28456606       8.25948822       8.02204776       0.00895119       0.00977433      -0.01245496
H        1.78484726       6.36555319       8.16617955       0.00827175       0.00649925       0.01645580
H        1.93125171       7.09603721       9.77965901       0.02320974       0.01728638       0.01108262
H        3.30986203       6.21963227       9.07342122       0.01637450       0.01187298       0.00434323
H        1.27484727       8.73765856       7.16187218       0.00113314      -0.01645643      -0.00658557
H        2.48816357       9.97885120       7.49868999      -0.00354722      -0.00631142      -0.02865674
H        1.42508277       9.39537465       8.79536064       0.00380346       0.00644790      -0.01662162
H        4.48717019       9.18712936       7.46670217       0.00096975       0.00600243      -0.02122831
O        5.85337454       4.07157932      10.19706563      -0.00512344       0.00172234       0.00442076
N        7.66015812       5.30766997      10.86659331      -0.00552586       0.00541779       0.00089015
C        8.44583078       5.01928432       9.69194666      -0.00537937       0.00475439       0.00065164
C        8.24524157       6.18838835      11.85408303      -0.00477776       0.00548614       0.00081467
C        6.41129962       4.80899544      10.99151171      -0.00349671       0.00533313       0.00458997
H        9.35393041       4.46844609       9.96023650      -0.00706843       0.00192608       0.00014088
H        8.73657457       5.95272721       9.20572751      -0.00335209       0.00439537       0.00122332
H        7.84803058       4.41766098       9.01268666      -0.00727195       0.00700814      -0.00000584
H        9.15634456       5.75141828      12.27234782      -0.00488496       0.00506406       0.00095683
H        7.54022744       6.34464496      12.66704009      -0.00537068       0.00572354       0.00075987
H        8.49641747       7.15241906      11.40855938      -0.00498556       0.00508720      -0.00056630
H        5.93288364       5.14851557      11.92643977      -0.00339219       0.00506692       0.00377381
O        8.84908851      12.71590751       6.16937852       0.00469804       0.01555085       0.00463116
N        9.65825651      10.97917657       4.92132710      -0.00246724       0.00771767       0.01210731
C        8.47866277      10.15911320       5.05082481      -0.01221777       0.01929724       0.00468812
C       10.81078272      10.38538575       4.27717603      -0.00918733       0.00124069       0.00458674
C        9.72974450      12.20181318       5.47935386       0.00800967       0.00561738       0.01383185
H        8.62576217       9.39295670       5.82245107      -0.02450309       0.01547712       0.00394151
H        8.29179787       9.65005340       4.10526371      -0.01382051       0.02377050       0.00294930
H        7.60871207      10.77048215       5.27409655      -0.00888640       0.02512455       0.00238805
H       11.15920436       9.52419756       4.85787328      -0.01634488      -0.00797334      -0.00473341
H       11.62232539      11.11378513       4.21646930      -0.00277126      -0.00547647       0.00655434
H       10.53804715      10.03568639       3.27755228      -0.01645187       0.01463541       0.00208083
H       10.68957625      12.70073662       5.26603468       0.01596153      -0.00456595       0.02684794
