150
Lattice="11.745419705749768 0.0 0.0 0.0 11.745419705749768 0.0 0.0 0.0 11.745419705749768" Properties=species:S:1:pos:R:3:forces:R:3 energy=-550681.625 stress="0.0004592632467392832 0.00033026128949131817 0.00026235329278279096 0.00033026128949131817 0.0016786133637651801 0.00020928482263116166 0.00026235329278279096 0.00020928482263116166 -0.0005541933351196349" pbc="T T T"
Nb      11.67975895      11.11302760       0.15979635      -0.00157505       0.00044474      -0.00144273
Br       9.02037151      10.32698572       9.78487538       0.00281491       0.00116267       0.00478875
O       10.18504041       9.67991921      10.78893900      -0.00154325      -0.00070214       0.00355729
O        7.75045292      10.83315093      10.63972269      -0.00041515       0.00072342       0.00181776
O        9.75529968      11.54461211       9.02185135      -0.00250351      -0.00772613      -0.00062662
O        8.56807715       9.14638640       8.80190869      -0.00206745      -0.01167208       0.00892162
Br       9.75137809      10.05935009       5.30815183       0.00204185      -0.00244778       0.00118619
O        8.60184952       9.12066125       4.64741355       0.00895917      -0.01240629       0.00371820
O       10.47715213       9.20249196       6.48917903       0.00257456       0.00882596       0.00867224
O       10.88148117      10.49246515       4.23607980       0.00247443      -0.00285861       0.00175548
O        9.05898892      11.39273228       5.92110134      -0.00576627      -0.00236905      -0.00745028
Br       3.51440975      11.11715996       0.81280016      -0.00188942      -0.03653127      -0.02509800
O        3.56046089      11.42112484       2.38553358      -0.01159785      -0.00178161       0.01804805
O        2.15468477      11.83350567       0.17345550       0.00235754      -0.00113952      -0.00025685
O        4.75758124      11.81165310       0.05900033      -0.00268513      -0.00304011       0.01608515
O        3.42633678       9.55372207       0.44970893       0.00063456       0.02471817       0.00787884
Br       8.51195613      11.68512161       1.59254967      -0.00232160       0.00319868       0.00092983
O        9.16177647      12.67342008       2.72368778      -0.00065780       0.00071770       0.00274193
O       10.01894949      12.00826317       0.30581895      -0.00199717       0.00202176       0.00035194
O       11.89861256       9.77635668       1.21094439       0.00044583       0.00347215       0.00251776
O        8.88318060      10.13722758       1.86052343      -0.00568998       0.00331140       0.00163245
Br       2.85661180       8.58796544       4.93381166       0.00736063      -0.00744835       0.00732602
O        4.35107439       7.97877015       4.71681614       0.00879121      -0.00243014       0.01385409
O        1.96469034       7.50446881       5.75241569       0.00504494      -0.00231761       0.00308156
O        2.98844368       9.95085130       5.81206748       0.00047863      -0.00113893      -0.00041676
O        2.17299475       8.89964160       3.50975337       0.01326776      -0.01255822      -0.00197148
N        7.56228803       2.66231464       5.30910812       0.00676779      -0.00090198       0.00205478
H        6.74167180       2.06355897       5.30842934       0.00692338       0.00059709       0.00703642
H        8.27117643       2.15221716       4.79123348       0.00549823      -0.00393307       0.00226548
H        7.32659191       3.48416399       4.75806644       0.00658889      -0.00271758      -0.00109985
N        3.76469940       0.45295081       8.55943441      -0.00015905       0.01064567       0.00886112
H        3.64046173       1.44700118       8.75360026      -0.00076264       0.00895676      -0.00015352
H        4.04457402       0.02157961       9.43248256      -0.00363778       0.01407793       0.00799572
H        2.87714668       0.04946319       8.28163240      -0.00607109       0.00728399       0.00854535
N        2.34031062       6.68479863       1.23698828      -0.01296258      -0.00800703       0.00024355
H        1.71656486       6.80079016       0.44432482      -0.00759318       0.00632720      -0.00256878
H        2.57150951       7.61967450       1.55547666       0.00706372      -0.00943375      -0.00136045
H        1.80006919       6.26822233       1.98901859      -0.02252719       0.00906143      -0.00265360
N        1.81651895       4.03162871       3.03584908      -0.00602181      -0.01195106       0.00624955
H        2.66508640       4.01332104       2.47377451      -0.00865775      -0.00071641       0.00310248
H        1.02472464       4.02967985       2.40171351      -0.00901037      -0.00152861       0.00986326
H        1.78956450       3.16626843       3.56599548      -0.00284709      -0.02064818      -0.00812241
N       10.37198292       6.66329535       0.33796137      -0.01296520       0.00155595      -0.00095900
H       10.02159685       7.61537471       0.39147492      -0.01524934       0.00232857       0.00274364
H       11.19000565       6.71422109      -0.26723732      -0.01387665       0.00759901      -0.00102484
H       10.70664289       6.44252444       1.27290177      -0.01048844       0.00133288      -0.00220501
N        0.99346931       6.35832014       9.87146146      -0.00208699       0.01097167      -0.00181158
H        1.05286627       5.42719360      10.27212403      -0.00467193       0.01336271       0.00421137
H        1.89276344       6.52900044       9.42110440      -0.00136793       0.00686255      -0.00196964
H        0.27778445       6.31773752       9.14380118      -0.00201625       0.00828360      -0.00133502
N        5.85968493      11.25938072       5.70329555       0.00992868      -0.00893989      -0.00641711
H        5.11508234      11.51058301       6.34633115       0.00358242      -0.00541329      -0.01606125
H        6.70155000      11.17348215       6.26661445       0.00801975       0.00555668       0.00182498
H        5.61999767      10.33721541       5.35673228       0.02129508      -0.01337659       0.00251791
N       10.45666284       6.39459335       7.53183278      -0.00329056       0.00066885      -0.00791271
H       10.04221861       7.31856164       7.44432820      -0.00039600      -0.00084004      -0.00710534
H        9.71393348       5.70783399       7.47664098      -0.00545198       0.00015008      -0.01461770
H       11.02134975       6.27238548       6.69893154       0.00046581       0.00000858      -0.00560319
N        6.87257300       0.94846906       8.15887822      -0.00320858      -0.00070098       0.00203653
H        7.21109415       1.17684073       9.08138548      -0.00551432      -0.01697393       0.00528461
H        5.86132601       0.85802883       8.20654374      -0.00550383       0.00173201      -0.00106417
H        7.10814991       1.70681968       7.52878229      -0.00022148       0.00790450       0.01497188
N        0.75612263      11.13919526       7.51470103       0.00432487       0.00992049      -0.00134563
H        1.44911255      10.88443254       6.81333208       0.00010914      -0.00472546       0.00171949
H        0.39769242      12.05336789       7.25484436       0.02050284       0.01548022      -0.00752092
H       -0.01802070      10.49699831       7.33896265      -0.00611149       0.02323425       0.00206946
N        6.50920727       5.28087420       3.41998202       0.00393006      -0.00372209      -0.01295967
H        6.29447846       6.05123733       4.04315899      -0.00060432      -0.01179022      -0.00442401
H        5.68815283       4.68265579       3.43513976       0.00593820      -0.00743148      -0.02216518
H        6.55107665       5.68460281       2.49099290       0.01527198       0.00618884      -0.00820410
N        0.31209327       0.66061266       2.01495956       0.00098576       0.00506854      -0.00528783
H        0.67933734       1.59147164       1.83992531      -0.02105658       0.01196684      -0.01173521
H        0.94239246       0.19632413       2.66318043       0.01697200       0.02006479      -0.01291221
H       -0.58993931       0.77902403       2.48313281       0.00508092      -0.00986932       0.00594101
N        9.77598654       2.59053931       7.69348145      -0.00475053       0.00349521      -0.00291954
H        9.67260745       3.12590392       8.54788648      -0.00914495       0.00557083      -0.00121319
H        9.50872055       1.63076876       7.89630670       0.00247476       0.00291789       0.00155530
H        9.07595748       2.92220368       7.02827207      -0.00541799      -0.00267354      -0.00191444
N        6.12876796       8.81910300       2.25202452      -0.00941421      -0.00131133       0.00144509
H        5.37886086       8.40483900       2.79505294       0.00746596       0.00035004       0.00856070
H        6.04306974       8.52387638       1.26922681       0.00076650      -0.00286461       0.01246133
H        7.01233872       8.47527291       2.61177264       0.00762853       0.00692885       0.00871654
N        4.32081139       3.51400571       8.89871966       0.00778717       0.00667005       0.00067428
H        3.81784210       4.39047283       8.80523972       0.00938961       0.00995746       0.00899147
H        4.78443439       3.34591035       8.01281485       0.00416400       0.01259905      -0.00066373
H        5.05728164       3.66500369       9.58180005       0.01041129       0.00009498      -0.00044957
N        5.86412891       8.04073218      11.05995922       0.00458970      -0.00645281       0.00478204
H        6.57044290       7.41786161      10.65672988       0.00148442       0.00000200      -0.00045018
H        5.90741722       8.92905305      10.57779236       0.00710120       0.00345016       0.01252794
H        4.94724031       7.64037298      10.90481442       0.00316995       0.00179574      -0.00249774
N        6.92403785       6.91584593       6.75756117      -0.01155293      -0.00157985       0.00438835
H        7.28738261       7.47486361       7.52324452      -0.02013129       0.00857757      -0.00122008
H        6.40277799       7.56667420       6.17752147      -0.03862181      -0.01864676       0.01082069
H        7.73333915       6.64678415       6.20814103      -0.01049900       0.02565829      -0.00874174
N       10.66505887       3.35702176       0.29017789       0.00159955       0.00116187      -0.00471234
H       10.35065093       4.13982285      -0.27693289      -0.00037114      -0.00189209      -0.00669491
H       10.48304519       3.66055940       1.26339314       0.00392060       0.00209350      -0.00508666
H       10.03249409       2.57867787       0.13017305       0.00243959      -0.00126320      -0.00278938
N        7.00008901       3.06438141      11.18149756      -0.00111563      -0.00397615       0.00938794
H        7.47213690       3.36653511      12.02683370      -0.01479541       0.00436884       0.01278239
H        7.72032963       2.73984965      10.54865576       0.00674300      -0.02252383       0.02906135
H        6.42344245       2.26470621      11.41704490      -0.01522709       0.00557443       0.01055183
N        8.09545070       6.15721930      10.11082946      -0.00756215      -0.01045381      -0.00739959
H        7.78137205       5.27119634       9.73817227      -0.00720361      -0.00934356       0.00058484
H        8.72255469       6.00332246      10.90296939      -0.00664434      -0.00335604      -0.00560117
H        8.65431118       6.62638372       9.41054635      -0.00450921      -0.01466003      -0.01222035
N       11.21229823       1.99421329       4.96675291       0.00280686      -0.00305510       0.00111054
H       11.01838690       2.25402474       5.93210095      -0.00217059       0.00641836      -0.00127894
H       12.19730668       1.74327788       4.90505376       0.00282711       0.00205028       0.00659851
H       10.68029066       1.14668743       4.79634208       0.00652915      -0.00708529       0.00877459
N       10.03262717       4.31386634       3.07808111       0.01684031      -0.00508884      -0.00219066
H       10.36159339       3.61739943       3.74881219       0.01409802      -0.00482574      -0.00202009
H        9.04070761       4.46508904       3.23466825       0.01538610      -0.00758499      -0.01033698
H       10.50021159       5.20109711       3.26390065       0.01382890      -0.00313252       0.00065304
N        0.97957946      10.00378386      10.20773234      -0.00657660       0.00257215      -0.00405577
H        0.54746730       9.08817464      10.10897858      -0.00194857       0.00356816      -0.00324760
H        1.94406134       9.83326973      10.47446217      -0.00021099       0.00299348      -0.00349838
H        0.96457024      10.47491927       9.27860987      -0.00400912       0.00428322      -0.00076972
N        3.78599560       7.11903878       8.31321458       0.00524259      -0.00380024      -0.00056955
H        3.74134800       8.12777299       8.40496084       0.01793060      -0.00312775      -0.00100797
H        3.45820419       6.92346800       7.37225994      -0.00484537      -0.00124557       0.00315318
H        4.77177838       6.87789931       8.32896609       0.00284389      -0.01523179      -0.00797880
N       12.95928409       4.33866993       6.44423433       0.00861026       0.00086759       0.00267605
H       12.20180906       4.19340292       7.10116665      -0.00820288      -0.01145721      -0.01703101
H       12.60838468       4.11395332       5.51813331       0.03287028       0.01472723      -0.00693753
H       13.16598468       5.33148928       6.43222825       0.00238514       0.00196829       0.02433909
N        0.35427744       1.24572316      10.43315258       0.00057641      -0.00135207      -0.00124294
H       -0.31101166       1.17360192       9.66931988       0.00349227      -0.00311543      -0.00388025
H        1.27984573       1.34890469      10.03373630       0.00245937      -0.00255941       0.00074333
H        0.11693681       2.09601927      10.96473116      -0.00055032      -0.00078051      -0.00436182
N        2.67004489       1.50880154       5.04275532       0.00576996      -0.00006624       0.00174142
H        2.52675735       1.79870966       6.00466563       0.00453287       0.00198439       0.00443164
H        3.47948299       2.03835808       4.73263622       0.00552854       0.00140430       0.00456336
H        2.93537976       0.52937224       5.05638347       0.00301324       0.00238758       0.00334042
N        6.69473069      11.44475762       2.76725225      -0.01103377       0.01022059      -0.00613832
H        6.37493562      10.43765232       2.55267863      -0.00441532       0.00580260      -0.00193055
H        6.90372383      11.54810675       3.76206705      -0.02235619       0.01328907      -0.00138041
H        5.97943499      12.11831508       2.52051843      -0.00381684       0.00264663      -0.01933089
N       11.11675864       7.31561473       3.42367072       0.00566599       0.00103853      -0.00331725
H       11.44837480       8.07745126       2.83698757       0.01096265      -0.00050297      -0.00235289
H       11.76014921       7.28403118       4.20771046      -0.00452629       0.00494923       0.00343996
H       10.22386091       7.62476836       3.79387027       0.00033170       0.00227472      -0.01412642
N        4.14493882       4.50423810       5.38088419       0.00425923      -0.00980890       0.00121377
H        3.37097746       4.26468906       5.99847384       0.00626624      -0.00268057       0.00653952
H        3.74514830       5.15837217       4.71510962       0.00185984      -0.01900610      -0.00539598
H        4.82520535       5.02675002       5.92408715       0.00509438      -0.00242436      -0.00616962
N        4.21396093       4.26818080       0.77400308       0.00007617       0.00174043      -0.00420025
H        3.74651649       5.17767091       0.86490660      -0.01299195      -0.00361204      -0.00317446
H        3.70788837       3.74992095       0.06399100       0.00476286      -0.00651285       0.00093418
H        5.13575129       4.43072551       0.38323238      -0.00482345       0.01699997      -0.00958633
