146
Lattice="12.676734658306158 0.0 0.0 0.0 12.676734658306158 0.0 0.0 0.0 12.676734658306158" Properties=species:S:1:pos:R:3:forces:R:3 energy=-193852.171875 stress="0.0015108169754967093 0.000445006211521104 -0.00020694209524663165 0.000445006211521104 0.00014912190090399235 0.00044048609561286867 -0.00020694209524663165 0.00044048609561286867 0.00038692596717737615" pbc="T T T"
Nb      12.34615645      12.18148910      -2.06922205       0.01087256       0.00279361      -0.00387869
O        3.20723647      11.42582166       5.53699869      -0.03233969       0.00999415       0.03607535
O        1.49636304      11.54814359       4.15114977      -0.00970864       0.00232458       0.00682211
O        2.32870792       9.52601415       4.68331527       0.00926420       0.00751829      -0.00104535
C        2.28498558      10.78793468       4.74004749      -0.00977880       0.00602765       0.01161015
H        3.83228929      10.79578551       5.94113276      -0.02446535       0.01442300       0.03063912
O        9.38675876      10.11760656       9.44436543       0.00206374       0.00843883       0.00554919
O       11.56074306      10.53661024       9.61242502       0.00309368       0.00614095      -0.00285485
O       10.18206765      11.99815237      10.43985216       0.00817856       0.01010627      -0.00139516
C       10.32647532      10.87598086       9.82273025       0.00434110       0.00899905       0.00067919
H        8.40870966      10.39224067       9.77089209       0.00284660       0.00644776       0.00861216
O       12.18266622      12.17430905      -0.25537302       0.00940821      -0.00552268      -0.00448811
O        7.58686541      12.03691928       0.13275187      -0.00733840       0.00632828       0.00288808
O        9.56935663      11.50803283       1.22103895      -0.00325692       0.00835669      -0.00818408
C        8.58164347      11.77897371       0.67781250       0.02286332      -0.00011458       0.01285360
H       12.27384832      12.08063904       0.69487265       0.00589834      -0.00598040      -0.00372279
O        7.27763123      10.67346166       6.62241207      -0.01521480       0.00478798      -0.00460219
O        6.67683826       8.66176465       7.33001567      -0.02093911       0.01080728       0.00636536
O        5.13696520      10.29919156       7.19137977      -0.01109338       0.02230263       0.02255586
C        6.28642708       9.81858097       7.07086098      -0.01564682       0.01307034       0.00939673
H        6.82166465      11.49799973       6.41117915      -0.01153503       0.00728168      -0.00258593
O        3.44183834      12.19383770       9.96961327       0.00726569      -0.00345588      -0.02097842
O        1.59662561      13.17196832      10.73349387       0.01595276      -0.00946400       0.00660051
O        1.44522530      11.12021649      10.03966102       0.00404581       0.00086147      -0.02002662
C        2.17577681      12.15045481      10.24713380       0.00917977      -0.00432432      -0.01163930
H        3.73652051      11.36165605       9.55824355       0.00290823       0.00421321      -0.04013446
O        5.20375680       1.36497897       4.68660788       0.00910777       0.00006201      -0.00504333
C        3.84196581       1.63595789       4.32859598       0.00606030      -0.01026374      -0.00238329
C        3.14359766       2.40344599       5.43930565       0.00143546      -0.01810470      -0.00014746
C        3.78469521       2.37138696       2.99975162      -0.00246857      -0.00973785      -0.00167620
H        3.37675737       0.65456555       4.24642823       0.01334336      -0.01367599      -0.00233436
H        2.10806989       2.62000456       5.16685952      -0.00192806      -0.03048805       0.00307790
H        3.14919045       1.81907271       6.35948769       0.01043625      -0.01893836      -0.00068994
H        3.64914174       3.35773774       5.61699681      -0.00875552      -0.01247789      -0.00126245
H        2.75142760       2.54229579       2.69225576      -0.00463071      -0.01993159      -0.00015533
H        4.28818220       1.79585425       2.22256391       0.00189401      -0.00461185      -0.00270920
H        4.27170649       3.34881197       3.07641347      -0.01156762      -0.00508688      -0.00230203
H        5.65530793       2.21234171       4.74567615       0.00193536       0.00357418      -0.00160841
O        9.02390089       3.96053071       4.37903547       0.00244993       0.00613042       0.00765100
C        7.79094176       4.49478176       3.87735057       0.00221348       0.00463882       0.00640096
C        6.83832794       4.83150120       5.01210426       0.00166821       0.00651532       0.00555468
C        8.05547724       5.69589415       2.98389370       0.00203347       0.00278175       0.00368440
H        7.37677910       3.68272460       3.27273052       0.00265321       0.00311971       0.00796467
H        5.87683497       5.17443092       4.62501826       0.00183277       0.00600669       0.00458869
H        6.67640012       3.96263388       5.65231703       0.00140115       0.00745147       0.00690830
H        7.24315816       5.63409065       5.63350282       0.00140519       0.00754054       0.00454108
H        7.13063994       6.06169021       2.53427591       0.00181210       0.00163668       0.00294526
H        8.76609213       5.42787801       2.20005218       0.00186390       0.00093219       0.00409175
H        8.47999253       6.51540617       3.56999027       0.00204304       0.00420472       0.00175425
H        9.46293841       4.66995402       4.85943900       0.00217643       0.00737773       0.00625470
O       12.43060565       0.89115809       8.90162025       0.01500320       0.01271832       0.00577989
C       11.62875722       1.37833126       7.73783675       0.01924447       0.00327574      -0.00137836
C       10.22624889       0.83715336       7.81225215       0.02252209      -0.00687185      -0.00944440
C       11.68201414       2.88339873       7.75764822       0.00665322       0.00383061      -0.00663287
H       12.14838416       0.97658821       6.86564354       0.02793646       0.00427133       0.00334862
H        9.66459720       1.26175218       6.98005152       0.02505940      -0.01347999      -0.01456921
H       10.18441172      -0.24578930       7.70691032       0.03147020      -0.00749671      -0.00690880
H        9.73292373       1.13220167       8.73859903       0.01372187      -0.00810819      -0.01382163
H       11.15405047       3.26840732       6.88610029       0.00589429      -0.00408685      -0.00980075
H       12.70299310       3.25948027       7.72337479       0.00323415       0.01267970      -0.00496405
H       11.20435550       3.28494458       8.65202908       0.00037569       0.00300843      -0.00955297
H       13.23993856       1.44455895       8.96488383       0.01370937       0.01693225       0.00825102
O        7.14901564       4.35726060      12.45185669      -0.00189772       0.00490022      -0.00036377
C        8.02514986       3.89251533      11.42039513      -0.00285941       0.00224928      -0.00026596
C        8.22328179       4.95384708      10.35060481      -0.00239338       0.00005484      -0.00245273
C        9.34537667       3.41562404      12.00827477      -0.00263548       0.00202633      -0.00063026
H        7.49415130       3.03937635      10.98938153      -0.00389263       0.00189632       0.00159249
H        8.84419744       4.57726488       9.53510542      -0.00300229      -0.00239614      -0.00201438
H        7.26712446       5.27802338       9.93948384      -0.00225338       0.00020062      -0.00287796
H        8.73321900       5.82432870      10.77228209      -0.00125878       0.00049319      -0.00448978
H        9.97168901       2.95389160      11.24043362      -0.00426897      -0.00073198      -0.00029472
H        9.17501713       2.69049677      12.80513671      -0.00251646       0.00408600       0.00135040
H        9.90226410       4.25862838      12.42708111      -0.00099252       0.00247303      -0.00326576
H        7.56413665       5.11941294      12.86829925      -0.00140244       0.00584520      -0.00273431
O       11.95629687       5.93703170       8.03736848       0.00228828       0.00616083      -0.00470072
C       10.94951317       6.38457748       7.11847234      -0.00161746       0.00415811      -0.00136358
C       10.25816834       7.62792147       7.63486992      -0.00315031       0.00221276       0.00179166
C       11.54415311       6.57680997       5.73231351      -0.00647819       0.00712378      -0.00314075
H       10.23032951       5.55784053       7.09526306       0.00040895       0.00225109       0.00014613
H        9.43445389       7.94340684       6.99253612      -0.00506178       0.00129079       0.00360501
H        9.85053775       7.45106097       8.62931789      -0.00046776       0.00024278       0.00264084
H       10.97358192       8.45161428       7.70381445      -0.00469026       0.00364178       0.00113447
H       10.76966660       6.84698048       5.01052876      -0.00944184       0.00611756      -0.00039843
H       12.04328619       5.66868599       5.39044756      -0.00537515       0.00862005      -0.00591631
H       12.27756993       7.38665535       5.73881978      -0.00836973       0.00883244      -0.00452996
H       12.57787110       6.66425369       8.15482337       0.00262650       0.00642531      -0.00849139
O        4.00408632       7.85275765       3.51849769       0.00732052      -0.00072157       0.00044632
C        3.13380877       6.99553912       2.81817891       0.00627106       0.00101042      -0.00099295
C        3.96362835       6.21077005       1.82028000       0.00626862      -0.00144288       0.00082964
C        2.35996459       6.09533384       3.77555717       0.00212651       0.00311369      -0.00232214
H        2.40112259       7.58397895       2.25219789       0.00907296       0.00270075      -0.00272411
H        3.34279070       5.51501486       1.25416795       0.00524104       0.00057443      -0.00064641
H        4.44352609       6.89554202       1.12091309       0.00980873      -0.00285847       0.00176866
H        4.73566098       5.63806444       2.33898575       0.00349511      -0.00397047       0.00225399
H        1.66685735       5.44380120       3.23677982       0.00128330       0.00509958      -0.00379426
H        1.79038595       6.71456278       4.46913216       0.00244112       0.00455807      -0.00322847
H        3.04706636       5.47215187       4.35186543      -0.00063089       0.00095320      -0.00116029
H        3.45120757       8.50118440       4.02930095       0.00891246       0.00182727      -0.00221846
O        7.09284038      10.48005140      10.20410985       0.00159656      -0.00020587       0.00853801
C        6.48353358       9.15312017      10.39166637       0.00450651      -0.00207931       0.00802661
C        6.99651345       8.50645261      11.66087961       0.00140725       0.00171566       0.01136172
C        4.98519901       9.30869532      10.36317065       0.00404465      -0.00730526       0.00210211
H        6.81248563       8.60917424       9.50687343       0.00958124      -0.00211194       0.01002133
H        6.60864933       7.48811600      11.72540502       0.00370881       0.00071815       0.01139647
H        8.08720537       8.45609226      11.66481295       0.00158021       0.00492595       0.01628595
H        6.65151587       9.04163128      12.54942391      -0.00425261       0.00231564       0.00875580
H        4.51022225       8.33407160      10.46225427       0.00705554      -0.00864024       0.00325743
H        4.70053099       9.70503992       9.38532647       0.00563999      -0.01003862       0.00073206
H        4.64019661       9.93305866      11.19094525      -0.00112300      -0.00552502      -0.00139475
H        6.94265890      11.02242426      10.98699601      -0.00502029       0.00100777       0.00615948
O        2.88382959       9.35572281       0.16347953      -0.00000939       0.00168875      -0.00021076
C        2.41826322      10.10973646       1.29945642      -0.00013641      -0.00123268       0.00168449
C        2.73699191      11.58754274       1.13724061      -0.00503950       0.00012207       0.00307640
C        0.94202562       9.85869127       1.55146106       0.00126189      -0.00621031       0.00506993
H        2.99171479       9.72204713       2.14042023       0.00265849      -0.00023064       0.00024611
H        2.45049499      12.11808713       2.04758504      -0.00440454      -0.00219826       0.00475428
H        3.80460975      11.73178272       0.96358697      -0.00583060       0.00355325       0.00050716
H        2.19625501      12.02121399       0.29100558      -0.00805970      -0.00002005       0.00508226
H        0.62585691      10.45773429       2.41047199       0.00186169      -0.00912251       0.00748032
H        0.75992856       8.81047210       1.78599171       0.00504446      -0.00743729       0.00271493
H        0.36261743      10.09934774       0.65470499      -0.00235857      -0.00571090       0.00748024
H        2.27421054       9.51647404      -0.56437964      -0.00109440       0.00144976       0.00066122
O        2.29465502       2.74631436       9.12312086      -0.02160145      -0.01028734       0.00513655
C        2.89168497       3.16943007      10.37709981      -0.01110190      -0.00388166      -0.00065601
C        4.22939406       3.85592422      10.16987345      -0.01026684      -0.00973141      -0.01413538
C        1.90354674       4.01968221      11.15460061      -0.00311196       0.00403386       0.00051343
H        3.05201665       2.23890432      10.91653412      -0.01027971      -0.00117004       0.00343233
H        4.69484849       4.05274864      11.13843700      -0.00266299      -0.00848217      -0.01805390
H        4.90342684       3.21865117       9.59630321      -0.01673895      -0.01418373      -0.01690003
H        4.13334265       4.81158794       9.65115209      -0.01006699      -0.01062924      -0.01584648
H        2.29726364       4.25388859      12.14478034       0.00375985       0.00652402      -0.00276046
H        0.95886891       3.48761580      11.27624430      -0.00493416       0.00903074       0.00854637
H        1.70525691       4.95986339      10.63626740      -0.00163143       0.00283983      -0.00233679
H        2.44219649       3.45295554       8.48319752      -0.02392145      -0.01473925      -0.00021850
O        4.68627410       7.02485987       8.11033900      -0.00729477      -0.00562280      -0.00068438
C        3.51800121       7.16266371       7.31541336      -0.00545478      -0.00509980      -0.00316213
C        2.77046893       5.84263961       7.39447324      -0.00540650      -0.00531346      -0.00608107
C        2.62588362       8.30732436       7.78590084      -0.00622964      -0.00526434      -0.00412467
H        3.79761007       7.36068995       6.27381505      -0.00292856      -0.00426398      -0.00247192
H        1.89474878       5.83763345       6.74519956      -0.00351767      -0.00497285      -0.00874083
H        3.42972102       5.02030584       7.11134693      -0.00436877      -0.00513265      -0.00442881
H        2.43147681       5.68401057       8.42265103      -0.00844539      -0.00587649      -0.00715020
H        1.74843197       8.39517239       7.14109117      -0.00389105      -0.00297868      -0.00716653
H        3.16898461       9.24767427       7.71522970      -0.00541064      -0.00526363      -0.00005542
H        2.31520299       8.14301182       8.82260774      -0.00984233      -0.00661821      -0.00534806
H        5.37124650       7.66724817       7.79115086      -0.01028393       0.00094664       0.00583880
