143
Lattice="13.673444733992492 0.0 0.0 0.0 13.673444733992492 0.0 0.0 0.0 13.673444733992492" Properties=species:S:1:pos:R:3:forces:R:3 energy=-187095.765625 stress="-0.00010030914563685656 0.0002458918170304969 -4.887862996838521e-05 0.0002458918170304969 -0.0006879994180053473 6.526528522954322e-05 -4.887862996838521e-05 6.526528522954322e-05 -0.0009258154896087945" pbc="T T T"
Nb      12.60348357      12.85395579       0.30620085      -0.02701935      -0.00975885       0.01499629
N        2.01398448      13.90837176      13.92285951      -0.03702807       0.00065228       0.03311740
C        0.91041008      13.55971706      14.06773957      -0.02086699      -0.00699311       0.02061169
N       12.31318065      12.65145931      12.00325174      -0.02304691       0.00263536       0.01281774
C       12.02650975      13.28807345      11.04197202      -0.01495701       0.00201058       0.00959635
N       11.11833879      13.77035784       1.20923457      -0.01591516      -0.01885879       0.03215289
C        9.95181199      13.59013019       0.96735615      -0.02243066       0.00582010       0.03691927
N       13.09500879      10.12611710       1.99126572      -0.01324823      -0.02527595      -0.02649367
C       12.99287813      11.13599018       1.41853338      -0.02457235      -0.02328193      -0.00244014
N        8.31249248      12.13439000       4.02518558       0.00041911       0.01869279      -0.00381732
C        8.76349616      13.07885231       3.50036761       0.01615441      -0.03093541      -0.01687634
C        8.05924928       7.04885879       4.55907102       0.00011550      -0.00038563      -0.00293057
C        7.61161535       5.74940727       4.34381012       0.00466090       0.00333674      -0.00418807
C        7.28083215       7.94676035       5.28111226       0.00193985      -0.01900586      -0.00404736
C        6.37992179       5.34662922       4.84849095       0.00404330      -0.00210932      -0.00203486
C        6.05623903       7.53699551       5.79779771       0.01186755      -0.00232595       0.00234078
C        5.60369204       6.24151124       5.57624544       0.00861940       0.00076626       0.00509624
H        9.01516919       7.36741019       4.16355209       0.00401586       0.00110038      -0.00959454
H        8.21612485       5.05301283       3.77675802       0.00103480       0.00048034      -0.01017980
H        7.61533492       8.96747423       5.41406464       0.00834833       0.00727606      -0.01337668
H        6.03154468       4.33557677       4.67949320       0.00521164       0.00117318       0.00080137
H        5.44325325       8.23883033       6.34816771       0.01006000      -0.00146957       0.00835051
H        4.63983757       5.93413445       5.96289441       0.00798614      -0.00240134       0.00752368
C       12.07577123       4.00814926       7.98434267       0.00240307       0.00090767      -0.00629520
C       12.67749442       3.63107343       9.17894459       0.00470001       0.00308091      -0.00687289
C       12.06035293       3.13351006       6.90451087      -0.00094774      -0.00186623      -0.00398701
C       13.26985324       2.38018404       9.29267987       0.00302236       0.00248054      -0.00478613
C       12.65783616       1.88338078       7.01715211      -0.00268589      -0.00241604      -0.00206247
C       13.26376494       1.50908556       8.21036859      -0.00089433      -0.00036873      -0.00234787
H       11.62603246       4.98839466       7.88931536       0.00356793       0.00116442      -0.00775849
H       12.68373247       4.31262921      10.02026661       0.00828682       0.00534876      -0.00887437
H       11.58230457       3.42730058       5.97879923      -0.00187346      -0.00336516      -0.00376292
H       13.73083972       2.07984997      10.22384177       0.00494198       0.00445030      -0.00492217
H       12.64692821       1.20181809       6.17599176      -0.00515361      -0.00422130      -0.00041474
H       13.72091007       0.53267198       8.30630031      -0.00187626      -0.00063679      -0.00088764
C        8.76972565       5.50979823      13.84600171      -0.00190576       0.00831719       0.00724911
C        7.54833671       4.84817454      13.90580369      -0.00219055       0.00907620       0.00849256
C        9.93602108       4.79349284      13.59837867      -0.00275934       0.00806336       0.00370310
C        7.49398099       3.47214301      13.71598430      -0.00340192       0.00933857       0.00767400
C        9.87836372       3.41865588      13.40545028      -0.00419797       0.00840297       0.00284606
C        8.65708009       2.75782856      13.46127782      -0.00431382       0.00913364       0.00468947
H        8.81129511       6.58147383      13.99627123      -0.00085837       0.00793761       0.00891006
H        6.63891925       5.40373829      14.09800339      -0.00165993       0.00967076       0.00896741
H       10.88881790       5.30672730      13.55649910      -0.00294639       0.00784245       0.00003864
H        6.54224278       2.95720095      13.75970451      -0.00343513       0.00961092       0.00901549
H       10.78535957       2.86068942      13.20731540      -0.00536349       0.00771959      -0.00033587
H        8.61364636       1.68780054      13.30781247      -0.00503262       0.00984856       0.00226668
C       13.67643617       7.62479009       6.76729987       0.01113381      -0.00210406      -0.00769900
C       13.38064220       8.89266385       6.28080217       0.00750057      -0.00296342      -0.00765431
C       13.38890724       6.50297310       5.99925736       0.01124501      -0.00299786      -0.00629881
C       12.78974296       9.03884942       5.03283870       0.00423194      -0.00488742      -0.00631426
C       12.78943597       6.65010863       4.75301419       0.00793903      -0.00483528      -0.00478740
C       12.49151225       7.91740518       4.26821404       0.00438689      -0.00582489      -0.00478326
H       14.12815438       7.51022307       7.74515436       0.01389717      -0.00068636      -0.00903493
H       13.61324026       9.76598053       6.87375758       0.00734840      -0.00221154      -0.00865772
H       13.62703745       5.51639463       6.37318788       0.01376723      -0.00236450      -0.00624570
H       12.57148047      10.02307239       4.64070424       0.00133560      -0.00546369      -0.00615320
H       12.56371551       5.77434917       4.15657579       0.00828446      -0.00552984      -0.00382517
H       12.05442191       8.04678662       3.28753659       0.00194237      -0.00732834      -0.00379345
C        2.91353938      10.18588426       0.41369249      -0.00047506      -0.00595652      -0.00035769
C        2.24648877       8.97119921       0.53489530       0.00107521      -0.00654312       0.00122544
C        4.28887420      10.24626246       0.59421230      -0.00083937      -0.00356799       0.00105504
C        2.95793851       7.81788147       0.84044076       0.00224374      -0.00473130       0.00495481
C        5.00042949       9.09083125       0.89466292       0.00025848      -0.00182381       0.00442790
C        4.33587248       7.87756824       1.01702178       0.00177127      -0.00237912       0.00675499
H        2.36430007      11.09438705       0.20046188      -0.00185661      -0.00739956      -0.00255487
H        1.17101916       8.93220704       0.42250044       0.00137876      -0.00817532      -0.00011333
H        4.80114259      11.19611137       0.52517607      -0.00186510      -0.00323656      -0.00056858
H        2.44108011       6.87208240       0.94245530       0.00346488      -0.00517327       0.00629797
H        6.06969052       9.14403778       1.05290671      -0.00001182      -0.00008132       0.00517851
H        4.88583611       6.97770615       1.26606939       0.00266330      -0.00082271       0.00999488
C        6.79391568       8.92582646      11.60024901       0.00652021       0.00265869      -0.00054081
C        5.66086819       9.35856421      10.92169669       0.00898869       0.00174333      -0.00458924
C        7.59822804       9.84565721      12.26303385       0.00256105       0.00295905       0.00350229
C        5.33772656      10.70954967      10.90402309       0.00702988       0.00109138      -0.00477570
C        7.28242992      11.19935170      12.24077093       0.00054277       0.00246474       0.00370234
C        6.15081859      11.62896098      11.55698918       0.00287118       0.00162183      -0.00045638
H        7.03854226       7.87048155      11.62663051       0.00811371       0.00308210      -0.00070631
H        5.02155924       8.64282814      10.41989660       0.01233473       0.00150663      -0.00834131
H        8.47483556       9.51139129      12.80326938       0.00113310       0.00379351       0.00634241
H        4.44179886      11.04272103      10.39558801       0.00895868       0.00043349      -0.00839267
H        7.90844869      11.91049916      12.76628455      -0.00285679       0.00281897       0.00702241
H        5.89384285      12.68078661      11.54579890       0.00168959       0.00125486      -0.00062398
C        3.00713700      12.38190256       3.76658549       0.00156029       0.00743559      -0.00255952
C        4.39672143      12.33019954       3.71811521       0.00139752       0.00328344       0.00246855
C        2.27101839      11.21574876       3.94470653      -0.00229943       0.00994852      -0.00271708
C        5.05619555      11.11302632       3.83958839      -0.00240567       0.00196053       0.00810689
C        2.92570252       9.99517187       4.06107288      -0.00614181       0.00856730       0.00258176
C        4.31375624       9.94871705       4.00343160      -0.00612922       0.00452438       0.00824724
H        2.49635386      13.33013498       3.65195255       0.00488748       0.00859566      -0.00632671
H        4.97941723      13.23155650       3.57198973       0.00406174       0.00124006       0.00199725
H        1.18932906      11.24764641       3.96496023      -0.00221144       0.01325722      -0.00649904
H        6.14050032      11.09253636       3.79012334      -0.00227141      -0.00039807       0.01238762
H        2.35074654       9.08320353       4.17097525      -0.00896452       0.01047681       0.00302936
H        4.82033371       8.99439265       4.05300599      -0.00922436       0.00317176       0.01327498
C        7.33157342      -0.27663648       8.11385319       0.00071214      -0.00639211      -0.00580463
C        8.01624422       0.41677957       7.12459035       0.00117764      -0.00993691      -0.00786939
C        5.94100845      -0.31301428       8.10281545       0.00072889      -0.00396675      -0.00449884
C        7.31355719       1.08289246       6.12780556       0.00149186      -0.01129998      -0.00875911
C        5.23746599       0.35573015       7.10893764       0.00117093      -0.00545770      -0.00572546
C        5.92568944       1.05685609       6.12612985       0.00161190      -0.00913043      -0.00783776
H        7.87708647      -0.79018338       8.89740000       0.00038816      -0.00635293      -0.00565823
H        9.09849386       0.42564307       7.10760285       0.00102311      -0.01216756      -0.00886753
H        5.40931610      -0.86390305       8.86826740       0.00043509      -0.00101237      -0.00285100
H        7.85104230       1.59268902       5.33964956       0.00163031      -0.01440470      -0.01064518
H        4.15488595       0.31573458       7.08994104       0.00120902      -0.00367158      -0.00500252
H        5.38006244       1.55837992       5.33691794       0.00170968      -0.01056820      -0.00868267
C        6.29474918       3.87854185       8.48805065      -0.00240082       0.00338797      -0.00261261
C        7.58327266       4.34592571       8.26354294      -0.00287936       0.00576958      -0.00060156
C        6.06199220       2.92115413       9.46721045      -0.00189579       0.00124896      -0.00483201
C        8.63852588       3.84882299       9.01885696      -0.00282755       0.00565247      -0.00079360
C        7.11816109       2.42969705      10.22315116      -0.00181887       0.00123988      -0.00500715
C        8.40904006       2.88966718       9.99651508      -0.00238846       0.00333758      -0.00309904
H        5.47269837       4.25356118       7.89228794      -0.00241742       0.00367145      -0.00228095
H        7.76402683       5.08476339       7.49245881      -0.00351583       0.00764574       0.00166972
H        5.05780806       2.55533386       9.63442917      -0.00151074      -0.00025422      -0.00611334
H        9.64637343       4.19467368       8.83971316      -0.00323845       0.00777015       0.00096231
H        6.93895818       1.67871046      10.98312762      -0.00145244      -0.00034409      -0.00653657
H        9.23712258       2.49880406      10.57365717      -0.00241804       0.00315113      -0.00316010
C        2.09110906       5.49777321      11.99375474      -0.00132523       0.00366138      -0.00130505
C        3.48095610       5.51322438      11.95725371      -0.00149991       0.00508985      -0.00446262
C        1.41268472       4.28816639      12.08397189       0.00038125       0.00328513       0.00476663
C        4.19170434       4.32002259      12.01121024       0.00008330       0.00631443      -0.00113610
C        2.12289038       3.09471828      12.14335053       0.00191918       0.00436145       0.00761274
C        3.51116694       3.11130633      12.10948656       0.00178599       0.00595853       0.00476883
H        1.54405822       6.43205538      11.96706221      -0.00255242       0.00277346      -0.00326029
H        4.00717908       6.45819687      11.90681306      -0.00276225       0.00538912      -0.00939815
H        0.32963815       4.27337367      12.11917176       0.00055076       0.00232373       0.00740298
H        5.27340610       4.33089291      11.96820357      -0.00003120       0.00732002      -0.00270712
H        1.60775295       2.14890347      12.23321668       0.00298284       0.00438377       0.01209721
H        4.05567027       2.17656342      12.16594015       0.00361650       0.00724317       0.00698314
C       12.04783637      11.12572302       8.76862759      -0.00216987       0.00001174      -0.00258248
C       10.66204600      11.22558230       8.72800716      -0.00253508      -0.00392479       0.00109569
C       12.65630991      10.17267878       9.57607421       0.00223631       0.00149452      -0.00176566
C        9.88337435      10.37295991       9.50062500       0.01027854      -0.00521548       0.00374085
C       11.87779458       9.31611593      10.34418515       0.00279255      -0.00132369      -0.00201201
C       10.49231649       9.41576461      10.30486934       0.00564884      -0.00178330      -0.00128126
H       12.65089836      11.79868113       8.17189573      -0.00297462       0.00135428      -0.00303560
H       10.19043501      11.97023900       8.10014199      -0.00496641      -0.00314358       0.00034660
H       13.73677589      10.09987942       9.61238871       0.00050022       0.00127934      -0.00670736
H        8.80403818      10.45483066       9.48349682      -0.00153984      -0.00069178       0.01954572
H       12.34979620       8.57351649      10.97569326       0.00721537      -0.00008883      -0.00205039
H        9.88268639       8.74790818      10.89926465       0.00605705      -0.00505342       0.00187840
