148
Lattice="11.487042257330877 0.0 0.0 0.0 11.487042257330877 0.0 0.0 0.0 11.487042257330877" Properties=species:S:1:pos:R:3:forces:R:3 energy=-219438.65625 stress="0.0017894393531605601 0.00018817152886185795 -6.662019586656243e-05 0.00018817152886185795 -0.0017570869531482458 0.0015580150648020208 -6.662019586656243e-05 0.0015580150648020208 -0.0001235031959367916" pbc="T T T"
Nb      11.16472031       9.96161891       1.19729886      -0.00269176       0.00696029       0.00624615
O       10.63321804      10.47642244       5.44757967       0.00791723       0.00438679      -0.00377685
N       11.15146563       9.91283677       3.20561838      -0.00166760       0.00170914      -0.00304159
C       10.89730583      10.19065019       4.33421182      -0.00478143       0.01190960       0.03290997
O        4.11651078      12.73510485       8.59825577      -0.01084220      -0.00593343      -0.00756368
N        6.45845216      12.32594764       8.31048527      -0.00598109       0.01435911       0.00667917
C        5.30165894      12.52954556       8.45225336      -0.00704437       0.00441715      -0.00053478
O        5.54761846      11.84582192       3.11425329       0.00057986       0.02078855       0.00883877
N        4.60995609      11.40131620       5.27582946      -0.00020951      -0.01376611       0.00022805
C        5.06152849      11.62663402       4.19433839      -0.00258562       0.00135572       0.01024595
O        1.61142071      10.64761170       0.96593016       0.00540948      -0.00016461       0.01371095
N        3.95230997      10.06195674       0.94477192       0.00892121      -0.00053954       0.01487896
C        2.81276322      10.32286480       0.95316121      -0.01532125       0.00523391       0.01447070
O        9.06903689      12.30320984      10.10981849       0.01156607       0.02150036       0.00951012
N       10.47419062      10.53731357      10.86046991       0.00806224       0.01771133       0.00724373
C        9.76091520      11.44115898      10.50388578       0.00547855       0.02506797       0.00543054
O        9.07080660       9.70697512       1.54502773      -0.00302902       0.01313614       0.00165060
H        8.66365760      10.03715205       2.41952036      -0.00675567       0.00643934       0.00366721
H        8.32771728       9.60553450       0.89331671      -0.00072825       0.00566765      -0.00017610
O        3.10803739       4.73443003       6.84784226       0.00581863      -0.00048822      -0.00393561
H        2.37126422       4.40552768       7.40294875       0.00403097       0.00039740      -0.00583177
H        3.70679873       3.97544513       6.71869886       0.00193410      -0.00313776      -0.00692686
O        7.46626321       9.79224118       8.49343573       0.00036880       0.01495761       0.01623216
H        7.07667571      10.70310548       8.42892864       0.00111309       0.01438650       0.00921973
H        7.19124879       9.48440198       9.37107315       0.00468252       0.02355143       0.02056796
O       11.00857486       7.34430652       8.28229853       0.01986493       0.00313413       0.00703076
H       10.58252281       8.23464024       8.23088773       0.01296455      -0.00035908       0.00236860
H       11.63279323       7.36233710       7.52495330       0.02399079       0.00254282       0.00946254
O       10.81692914       5.68902626       0.56996586       0.03229894      -0.01602203      -0.01841646
H       10.03408124       5.71306787      -0.85458495       0.01413809      -0.00543371      -0.00670529
H       10.48729541       5.21737495       1.35735836       0.02501219      -0.01305798      -0.01947518
O        8.51338069       3.60497367       9.18479302      -0.01560853       0.01567520      -0.01126456
H        8.59475791       3.08129331       8.28301988      -0.01838718       0.01484719      -0.01192370
H        7.54620522       3.85914763       9.38475602      -0.01432581       0.00701447       0.00366582
O        9.48040153       5.79598349       9.80657037       0.00622950       0.00736472      -0.00005110
H        9.04546376       4.48951218       9.31831817      -0.01278075       0.01125060      -0.00993296
H       10.01956362       6.30085724       9.14913641       0.00818057       0.00603034       0.00044326
O        9.94886862       1.51510317       4.12662150      -0.01195095       0.00188462       0.00625503
H        9.62374983       0.82108193       4.71076004      -0.00723036       0.00117650       0.00919208
H       10.49764314       2.10018984       4.69515958      -0.01167008       0.00504221       0.00329910
O        9.75383832       4.34798949       2.71408029      -0.00266540       0.01376861      -0.01236346
H       10.18605565       4.24875415       3.56962954      -0.01102379       0.02081285      -0.00712521
H        9.18487268       3.55548508       2.58610650      -0.00602948       0.01532465      -0.00914574
O        1.58801937       7.61109541       9.98477365       0.00833362       0.00215939       0.01721272
H        0.80551813       7.48006236       9.39173156       0.00960138       0.00035153       0.01497462
H        2.19035714       8.87399687       9.59379108       0.00218792       0.00223613       0.01371401
O        4.32360787       7.19119087       6.70732988       0.02096228      -0.00706512       0.00437212
H        3.98608202       6.32803594       7.01451090       0.01944207      -0.00814203      -0.00043679
H        4.95621392       6.97456673       6.00017097       0.01742683      -0.00319415      -0.00008307
O        0.66233367      -0.13622069       8.60012651      -0.00244892      -0.00861965      -0.00979334
H        0.97998294       0.24764566       7.75691415      -0.00536016      -0.01093451      -0.01205380
H       -0.16706413      -0.63980324       8.42484863      -0.00412285      -0.00849654      -0.00516664
O        2.08597981       1.22648287       6.83992891      -0.00726777      -0.00664252      -0.01283902
H        2.20640935       1.32268811       5.87895334      -0.00751658      -0.00726866      -0.01288658
H        2.96744292       1.14007054       7.25445505      -0.00752487      -0.00981419      -0.01399831
O        8.05947938      10.79589945       3.60645287      -0.00744212      -0.00866155       0.00781119
H        7.81229696      10.25411738       4.39284762      -0.01159125      -0.01380809       0.00311652
H        7.20087282      11.15673267       3.30497416      -0.00270775       0.00210059       0.00995100
O        1.40866224       7.53678300       3.41656728      -0.00754493      -0.00329351       0.00031376
H        2.02331848       6.83021643       3.71445870      -0.00566277      -0.00298475      -0.00139750
H        1.42519650       7.52723651       2.45259647      -0.01428664      -0.00535190       0.00053166
O        1.97177525       1.68205014      10.36689235      -0.01192476      -0.00470801      -0.01026583
H        2.82534970       1.55492374       9.91922408      -0.01144661      -0.00352272      -0.00968817
H        1.39505456       1.00812978       9.96887605      -0.01082561      -0.00516982      -0.01158082
O        6.79109358       1.96308299      11.50165468      -0.01126728      -0.01902854       0.01307538
H        6.20721656       1.20890534      11.36489851      -0.02883218      -0.00743967       0.02719514
H        7.55080043       1.77812697      10.92290604      -0.02299434      -0.03556861       0.00263806
O       10.10230778       7.23415012       4.25016923       0.00901297       0.00122629       0.00958063
H        9.52248622       7.25920748       3.47600147       0.01152608       0.01065285       0.00840568
H       11.02058795       7.33695003       3.93839852       0.01041802      -0.00000098       0.01232560
O        3.12222312       5.58968840       4.25547939       0.00091851       0.00334835      -0.00374583
H        3.06405234       4.87141289       3.59712989       0.00335354       0.00252601      -0.00297831
H        2.93622807       5.22251166       5.14685900       0.00328954       0.00303389      -0.00319028
O        3.38548164       4.27892816       1.89665152       0.01073447      -0.00482930       0.00331849
H        3.79668395       5.14967154       1.65845703       0.00409321      -0.00503958      -0.00550483
H        4.08381946       3.62655026       1.79494084       0.00819358      -0.00614034       0.00318495
O       10.02446478       9.80729973       7.97844021      -0.00535369      -0.00620784       0.00477059
H        9.06326827       9.85323376       8.23738760      -0.00383764      -0.00068437       0.00966603
H       10.04926589       9.92146976       7.01774919      -0.00959423      -0.00414447       0.00382224
O        2.11428295       9.95383984       4.77181680       0.00083954      -0.01236081       0.00881168
H        2.13255285       9.22959430       4.12396954      -0.00339974      -0.00640553       0.00250960
H        3.00249551      10.34125041       4.82823746       0.00065033      -0.01068570       0.00499604
O        2.33275073       2.38912489       4.32530652      -0.00229761      -0.00397372      -0.01082462
H        3.25227799       2.64150053       4.53072120      -0.00263497      -0.00454046      -0.00937036
H        2.30491211       2.06840255       3.40858324      -0.00206756       0.00299344      -0.01314345
O        8.51015519       2.15417755       7.15089160      -0.01367085       0.01213417      -0.00615388
H        7.80075346       1.56337424       7.53080152      -0.01242685       0.01233739      -0.00318702
H        8.07974999       2.59477834       6.39798699      -0.01364458       0.00850521      -0.00833041
O        7.85956499       6.37665008       2.49363131       0.01027543       0.01923265      -0.00848848
H        7.10107349       6.37323915       3.11028078       0.00942017       0.01508624      -0.00990603
H        8.40312617       5.59222119       2.69899680       0.01081386       0.01821161      -0.01196072
O        1.04616453       3.38935282       8.04470954       0.00218163      -0.00238588      -0.01005879
H        1.00364065       3.25325907       8.99980912      -0.00421385      -0.00408807      -0.01064564
H        1.44850898       2.55799061       7.70063096       0.00007698      -0.00352018      -0.00964726
O        6.83438324       9.52399217       5.66252559      -0.00767063      -0.01397411       0.00639784
H        6.13352298      10.19252219       5.76599400      -0.00952424      -0.01484623       0.00131008
H        7.08666098       9.31057806       6.57676988      -0.00683418      -0.00649782       0.00767622
O        1.52457857       8.04749594       6.65633549       0.01673491      -0.03038345      -0.00772301
H        2.41187118       7.66749095       6.58184800       0.01984526      -0.02364588      -0.00164494
H        1.57908870       8.82851479       6.06984123       0.01603727      -0.02464812      -0.00035581
O        4.31566716       9.72669772       7.59999083       0.00211856      -0.00684518       0.00999969
H        4.36597196       8.80663769       7.25709225       0.00756299      -0.00668512       0.01079706
H        4.26730388      10.32470013       6.83114210       0.00135255      -0.00821073       0.00897782
O        9.30913566       5.15992243       5.77531266       0.00037931      -0.00142245      -0.00419401
H        9.56072448       5.98194364       5.29060053       0.00430647       0.00053566       0.00075878
H       10.12212275       4.63360647       5.76250750      -0.00025257      -0.00238141      -0.00027835
O       -0.57538695       0.73955083       1.67830266       0.00114991       0.00639588       0.01165533
H       -0.89811830       0.94118700       2.58544304       0.00194719       0.00622685       0.01184686
H        0.22485099       1.31836771       1.58100468      -0.00164098       0.00973557       0.00613867
O        4.45017885       6.64767951       1.40554090      -0.00292127      -0.00464961      -0.01083691
H        4.83480578       7.28650893       2.04441790       0.00064494      -0.00562731      -0.01197998
H        4.92150512       6.80069595       0.58225190      -0.01384069       0.00112428      -0.01570765
O        6.92829793       9.32464814      -0.09250121       0.00797430      -0.00402726      -0.00450519
H        6.06038348       9.59338964       0.25254579       0.00941566      -0.00791128      -0.00057161
H        6.92376344       8.33896880      -0.07264987       0.01100333      -0.00496700      -0.00959174
O        7.84913196       2.47717345       2.55304012       0.00521320       0.00688660       0.00079170
H        7.40931902       2.20458294       1.72366448       0.00384580      -0.00548303       0.00586891
H        8.29941370       1.70559220       2.92216204       0.01674699       0.01632871       0.00741702
O        5.64570224       8.60492698       2.88558952      -0.00754711      -0.00127047      -0.01442307
H        5.88718493       8.66912953       3.81960583      -0.02227343      -0.00347826      -0.01052070
H        5.16032212       9.40380634       2.63561327      -0.02541649      -0.01322752      -0.01631351
O        4.72843482       2.82117420       5.69017115      -0.00127056      -0.00376822      -0.00486048
H        4.82610461       1.85981083       5.81573981       0.00035874      -0.00219709       0.00320647
H        5.63370868       3.15482158       5.54346449      -0.00184233      -0.00243945      -0.00542879
O        6.18957245       4.30616353       9.98013235      -0.00896257      -0.00976047       0.03033084
H        6.10123911       3.57615903      10.61482575       0.00890806      -0.01156383       0.03073579
H        6.37769907       5.10169801      10.51465540      -0.00439715      -0.00776712       0.02577347
O        0.15774875       8.32169598       0.87412632      -0.01104819       0.00611800       0.00373052
H       -0.43502729       6.59067329       0.84094894       0.02166617      -0.01447335      -0.01657719
H        1.21521303       7.69191750      -0.61078240       0.00510491       0.00476284       0.01555938
O        7.18591187       6.59207617      11.37261745       0.00628082       0.00149354      -0.00730586
H        7.99533112       6.46534572      10.84098736       0.00589506      -0.00100399      -0.00825147
H        7.44693346       6.45352711      12.32045792       0.00750155       0.00796077      -0.00640440
O        2.56236841       9.82405268       9.35919933      -0.00092802       0.00200475       0.00645181
H        1.78209856      10.38801184       9.03342114      -0.00193191      -0.00246890      -0.00048259
H        3.27985970       9.78712677       8.59681925       0.00098772      -0.00259303       0.00861566
O        1.70710424       2.11003958       1.52616036      -0.00319321       0.00781378      -0.01174770
H        1.93175189       1.84626124       0.60225079      -0.01014912       0.00569068      -0.01292504
H        1.87573653       3.06567878       1.53524714       0.00439502       0.00654371      -0.01197242
O       11.47113591       3.35200089       5.43922482      -0.00262651      -0.00212844      -0.00370276
H       12.35334216       3.19375049       5.04470100      -0.00459971      -0.00223088      -0.00753943
H       11.61695538       3.32972162       6.40304441       0.00197530      -0.00140697      -0.00417645
O        7.26727765       3.72666096       5.03630608      -0.00331051       0.00544541      -0.00635682
H        7.42133994       3.33549315       4.15669347      -0.00212899       0.00321145      -0.00529776
H        8.05976575       4.30683873       5.25573082      -0.00173043       0.00309993      -0.00497904
O        5.81604340       6.12229865       4.49599440       0.00412877       0.00332536      -0.01060730
H        6.20618617       5.27544050       4.77598154       0.00407352       0.00214354      -0.01313221
H        4.88373801       5.91585008       4.26458303       0.00339220       0.00482058      -0.00787527
