144
Lattice="12.392435004388123 0.0 0.0 0.0 12.392435004388123 0.0 0.0 0.0 12.392435004388123" Properties=species:S:1:pos:R:3:forces:R:3 energy=-388487.0625 stress="9.928338840836659e-05 -7.114132313290611e-05 -0.001165359339211136 -7.114132313290611e-05 0.0005400042282417417 -0.0004893236618954688 -0.001165359339211136 -0.0004893236618954688 0.0020370366983115673" pbc="T T T"
Nd       9.98115267      12.76901176       0.49480092       0.00222524      -0.01264870      -0.00221635
O       11.59439834      12.39114086       4.01203258       0.00282151       0.01182711       0.00329694
O       10.73187893      13.64521323       2.41129233      -0.00048458      -0.00113709      -0.00516495
O       11.71832793      11.75411613       1.83862699       0.00105853      -0.00451997       0.00784636
C       11.37770879      12.58577460       2.71593344       0.00101055       0.00163107       0.00224972
H       11.99067091      11.52479578       4.19226374       0.00095221       0.01213193       0.01155192
O        6.88780337      11.66868572       2.79230973       0.00651497      -0.00258946       0.00514753
O        7.83505186      13.03240966       1.31569105       0.00382715      -0.00679097      -0.00067108
O        8.88021903      11.16790653       1.85769267      -0.00048393      -0.01119557      -0.00574186
C        7.88512274      11.95107936       1.98144548       0.00253597      -0.00721026      -0.00043635
H        7.08507063      10.84427759       3.27584170       0.00541559      -0.00432330       0.00387076
O        6.59110690      11.82427666       7.45050415       0.00354946       0.00842470       0.00673521
O        7.48771331       9.85644497       6.95849878       0.00616419       0.00858998       0.01197860
O        5.29341874      10.21693489       6.55207984       0.00629759       0.00587559       0.00733167
C        6.41291716      10.51672748       6.94775589       0.00521418       0.00774866       0.00854900
H        5.71453096      12.24666263       7.46598613       0.00323984       0.00839825       0.00426625
O        8.63279521       5.37466979       7.54613682       0.00005594       0.00573373       0.00100917
O        8.23791422       5.63130543       5.35549471      -0.00849837       0.00854319       0.00287795
C        9.36494182       3.65310762       6.10459010      -0.00595152       0.00713032      -0.00395332
C        8.69680263       4.97799197       6.26907886      -0.00524586       0.00731254       0.00002003
H       10.20862746       3.55420647       6.77927426       0.00212124       0.01075249      -0.01335788
H        8.65053101       2.86321842       6.34289078      -0.00216389       0.00711986       0.00743482
H        9.69647398       3.53139507       5.07823340      -0.01784282       0.00434752      -0.00749835
H        8.13831959       6.23089737       7.61670364      -0.00010677       0.00611499       0.00305407
O        4.92306447       4.20627890      11.05520872      -0.00982116      -0.00103521       0.01417905
O        3.22495552       5.65485955      10.90397856      -0.01167959      -0.00403035       0.00821000
C        3.83579817       4.39084838       8.95618856      -0.00745443      -0.00694486       0.01137364
C        3.93737717       4.83473554      10.37035651      -0.00976488      -0.00407320       0.01115397
H        4.76524925       3.95930562       8.59198522      -0.00738534      -0.00852521       0.01327182
H        3.06284263       3.62007343       8.90397949      -0.00845005      -0.00607614       0.01098582
H        3.52875496       5.24222175       8.35309540      -0.00571347      -0.00761071       0.00936160
H        4.89518638       4.55487588      11.95935738      -0.00892743       0.00309965       0.01275241
O        0.55342098       2.18086641       5.03576314       0.01101643       0.00555587       0.00414317
O       -0.10232536       2.58915621       7.12250586      -0.00654230      -0.00995600       0.00224930
C        1.55916386       4.01757841       6.08065270      -0.00882065       0.00802857       0.02058967
C        0.59183374       2.88969457       6.16240730      -0.00022167       0.00094788       0.00631487
H        2.56208386       3.60599450       5.94746895      -0.00344416       0.01511937       0.03812941
H        1.32882113       4.61931434       5.20110597       0.00096682       0.00407247       0.01521656
H        1.50809410       4.62459480       6.97671394      -0.02882355       0.00951618       0.01862958
H       -0.09615568       1.46297831       5.11839213       0.01408133       0.00202423      -0.00514647
O       12.03305319      10.70896048       8.69904535       0.00678200       0.01324990      -0.00830755
O       12.04717015      10.75339904       6.45955018       0.00872594       0.01328240      -0.00825727
C       10.13833682      11.64352812       7.61038301       0.01078004       0.02024645      -0.00949080
C       11.48531134      11.01409140       7.50135967       0.00886321       0.01528691      -0.00848299
H        9.37641938      10.85779718       7.68893461       0.00737706       0.02238208      -0.01834838
H       10.06600419      12.29136442       8.48157001       0.01003585       0.01356486      -0.00470503
H        9.91967099      12.20274672       6.70529743       0.01749488       0.02888437      -0.00589472
H       12.86543697      10.18071829       8.56197305       0.00549969       0.01062116      -0.00720412
O        7.61947974       8.84418866       3.74513186      -0.00469723       0.01426332      -0.00706387
O        6.09718086       7.92947370       2.39080132       0.00241227       0.00036369      -0.00642931
C        5.84596862       7.65579595       4.77165462      -0.00376388       0.01423728      -0.00503296
C        6.49254152       8.12292872       3.52773530      -0.00218964       0.00882155      -0.00602847
H        6.56414187       7.03496147       5.31010637      -0.00571892       0.01151198      -0.00505508
H        5.59926234       8.50710675       5.41705142       0.00089147       0.01563531      -0.00493141
H        4.95712472       7.07621375       4.53633959      -0.00627342       0.01729707      -0.00333123
H        8.10294820       8.90996640       2.90596458      -0.00104977       0.00906413      -0.00566208
O        4.14949937       4.24600013       2.28471686       0.01661643       0.01350659      -0.03797823
O        2.62972022       3.17522676       1.01657716      -0.01777506      -0.02347416       0.03691548
C        4.72825934       2.10692160       1.49281264      -0.00240719      -0.00657845       0.00191684
C        3.71277933       3.21306011       1.55711642      -0.00177938      -0.00663054       0.00319025
H        5.73680299       2.46030775       1.69137435      -0.00105545      -0.00736799      -0.00372375
H        4.48535433       1.35685012       2.24918419      -0.00080894      -0.00623077       0.00320648
H        4.67957610       1.62217122       0.51959208      -0.00677229      -0.00922944       0.00285563
H        3.46682563       4.95330322       2.37018360       0.01412082       0.00937115      -0.02596086
O       10.21540194       7.06179069       3.29026496      -0.00567843       0.00636715      -0.00022435
O       11.34648602       5.61118093       4.56651976      -0.00680405       0.00557649       0.00032860
C       10.66557840       7.71813850       5.51868805      -0.00509201       0.00656843      -0.00007856
C       10.78573386       6.67411165       4.46022040      -0.00598672       0.00615716       0.00012043
H       11.27264726       8.58336362       5.24594289      -0.00192747       0.00482221       0.00068440
H        9.63429442       8.06026943       5.59934405      -0.00428182       0.00951683      -0.00160390
H       11.02455877       7.31747811       6.46299761      -0.00779062       0.00562818       0.00067769
H       10.31641361       6.31216218       2.68669021      -0.00572291       0.00639892      -0.00017415
O       11.13240526       3.74651650       9.21837316       0.00517213      -0.01099175       0.00058708
O       12.20155831       5.59967439       8.53695209      -0.00311458      -0.01334488       0.00295818
C       10.52141192       5.81428644      10.23984984       0.01005757      -0.01277888       0.00575972
C       11.38662850       5.09859411       9.25940707       0.01062107      -0.00825179      -0.00373304
H        9.60862114       6.09996180       9.71423678       0.00488323      -0.01557483       0.01092365
H       10.24303804       5.18648182      11.08525832       0.01707208      -0.01231608       0.00904152
H       11.00730252       6.72623011      10.56909387       0.01022886      -0.01039076       0.00078923
H       11.71227857       3.35252513       8.50009138       0.00117949      -0.01144318      -0.00515422
O        6.88354065       1.36664500       5.59094790      -0.00210100       0.00533128       0.00004573
O        5.20551885       1.83347990       7.00667131      -0.00532174       0.00158018      -0.00240171
C        5.68041768       3.36600125       5.22258574      -0.00673346       0.00257087      -0.00214419
C        5.88326391       2.13346123       6.04137698      -0.00493333       0.00281280      -0.00150251
H        6.60318723       3.71130981       4.76371912      -0.00700228       0.00379980      -0.00199579
H        4.97693188       3.14063412       4.41908057      -0.00658765       0.00114291      -0.00206530
H        5.24522045       4.15061613       5.83661556      -0.00771190       0.00195727      -0.00194778
H        6.93831378       0.57585110       6.18374746       0.00022602       0.00640798       0.00102976
O        1.86100387       9.18963062       8.69559273       0.00027092       0.00457183      -0.00128001
O        3.38105898       7.58263424       8.34844232      -0.00725162      -0.00430870       0.00628293
C        2.32773515       8.59514441       6.44059228       0.00267154      -0.00246391       0.00123549
C        2.59391460       8.37096943       7.89340044      -0.00221545      -0.00135386       0.00245345
H        2.28195823       7.63247901       5.93247146       0.01658446      -0.00193812      -0.00078816
H        1.41688448       9.16679886       6.28324243      -0.00272001      -0.01175646      -0.00243016
H        3.17992010       9.15543781       6.04699638      -0.00182536       0.00870275       0.00690331
H        2.12118215       9.03953135       9.63998617      -0.00040327       0.00761943      -0.00029138
O       10.54215445      11.14553439      10.99848005      -0.00393188      -0.00645703      -0.01089495
O        9.94790234       9.03020141      10.47244912      -0.01600002       0.00692262      -0.04431456
C        8.23964651      10.52962282      11.23739578      -0.00479072      -0.00123345      -0.00856529
C        9.61574164      10.10351048      10.86639404      -0.00919606      -0.00116992      -0.02533686
H        8.18401191      11.54734946      11.63761181      -0.00153933      -0.00232761      -0.00342795
H        7.63213458      10.49583447      10.32796090      -0.01627874       0.00124867      -0.00139716
H        7.78966470       9.82135212      11.93135610       0.00314380      -0.00357115      -0.00511400
H       11.29238797      10.94038339      10.38719467      -0.00381780      -0.00244144      -0.01308763
O        3.47895417       8.44550679       2.49452308      -0.00083047      -0.00207292      -0.01299161
O        2.62369301       6.39876976       2.84398873       0.00309077      -0.00216663      -0.00401229
C        1.16170317       8.29895563       2.80158151       0.00047994      -0.00381193      -0.00015258
C        2.48209421       7.60108746       2.71625569       0.00076550      -0.00281388      -0.00580835
H        1.16289707       8.96322896       3.66850926       0.00228770      -0.00609715       0.00175931
H        1.01132600       8.91922236       1.91747952      -0.00271151      -0.00119516       0.00214988
H        0.36586711       7.56945067       2.89404842       0.00137183      -0.00484703       0.00059399
H        4.34808479       7.97866105       2.40151231      -0.00105453      -0.00198379      -0.01273466
O        8.60325677       2.88611524       9.32866663       0.00649089      -0.00666970      -0.00108367
O        9.16662100       1.71964190      11.13405456       0.00544778      -0.00950471      -0.00211632
C        6.95300984       1.47227295      10.20467828       0.00180992       0.00138691       0.00421801
C        8.31966689       2.04017645      10.26681051       0.00452405      -0.00578016       0.00039664
H        6.24567885       2.20959499       9.83422673       0.00491062       0.00312963       0.00133002
H        6.96809527       0.64858116       9.48173830      -0.00284856      -0.00248507       0.00826570
H        6.64699667       1.09392296      11.17645298       0.00088531       0.00745316       0.00657302
H        9.55403462       3.20236859       9.35424601       0.00792557      -0.00996600      -0.00174366
O        4.09305820       7.90879367      -0.38248268       0.00054678       0.00264800      -0.01281603
O        2.47265222       9.26452367      -1.12728120       0.00532162       0.01356056      -0.00291252
C        4.41989031      10.21734390      -0.10562748       0.01165032      -0.00006580      -0.00226063
C        3.55489491       9.09694060      -0.58448824       0.00504464       0.00584459      -0.00607112
H        4.85085862       9.98963201       0.86627633       0.02484413      -0.01266164      -0.01120117
H        5.23104182      10.31349777      -0.83118921       0.00173923       0.00903132      -0.01221466
H        3.84793631      11.13898195      -0.06666803       0.01221019      -0.00040680       0.01699069
H        3.56141327       7.19128844      -0.80427204      -0.00485402       0.00578662      -0.01170675
O       -0.44386034       1.58496552      11.42664301       0.00324775      -0.01990652       0.00211090
O        1.13324559       2.28581120       9.98645290       0.00861651      -0.02491862       0.00686097
C        1.77056380       0.60687377      11.57195624       0.00273037      -0.01813969       0.01724118
C        0.85969959       1.55857275      10.89244441       0.00576401      -0.02103657       0.00747150
H        2.26739816       1.18365165      12.35931273      -0.01406053      -0.01890303       0.02835903
H        1.25541939      -0.23852844      12.02209977       0.00133020      -0.02386679       0.00522372
H        2.51180642       0.26710650      10.85386015       0.01538159      -0.01029972       0.02671775
H       -0.89363624       2.27236065      10.89783841       0.00530702      -0.02114260      -0.00122166
O        7.32620611       7.70127850       8.11857890      -0.00429046      -0.00031722      -0.00592214
O        6.23503911       9.03547926       9.54613181      -0.00510073      -0.00695992       0.00019771
C        6.89858693       6.87346313      10.30813919      -0.00210148      -0.01000643      -0.00907016
C        6.76460438       7.97010990       9.29270975      -0.00357372      -0.00603104      -0.00458346
H        6.96533121       5.88690861       9.85369825      -0.00682958      -0.00845638      -0.01346260
H        7.82328845       7.05622298      10.86330968       0.00119860      -0.01472270      -0.01303849
H        6.07391904       6.93468889      11.01218540       0.00126913      -0.01050018      -0.00503093
H        7.33981717       8.59982816       7.53446941       0.00016197       0.00384641       0.00003568
