150
Lattice="17.17694974981949 0.0 0.0 0.0 17.17694974981949 0.0 0.0 0.0 17.17694974981949" Properties=species:S:1:pos:R:3:forces:R:3 energy=-1605685.0 stress="-0.0006744364509359002 -0.00011739735055016354 5.351145227905363e-05 -0.00011739735055016354 -0.0010248987236991525 -0.00025484275829512626 5.351145227905363e-05 -0.00025484275829512626 -0.0014114005025476217" pbc="T T T"
Nd      15.55796248      16.74793765       2.01825648      -0.01432246      -0.00936285      -0.00928882
S        9.81097825      13.98954274      13.50333426      -0.00149509       0.00327116       0.00292206
O        9.97078473      15.26248581      12.88100346      -0.00021347       0.00621271       0.00367182
O        8.87767562      13.79857813      14.56285843       0.00018001       0.00296268       0.00021178
O       11.31126208      13.42338377      13.97132592      -0.00111286       0.00304899       0.00019167
C        9.59612159      12.74405294      12.27804874      -0.00132622       0.00664932       0.00019354
H       10.36027235      12.86932262      11.51767843      -0.00144473       0.00676187       0.00050147
H        9.65138742      11.76602323      12.74691163      -0.00190009       0.00618745      -0.00078684
H        8.60673789      12.91151272      11.85867913      -0.00109805       0.00753883       0.00071676
S       10.04127767      17.65194188      17.26183348       0.01368877       0.00586036       0.00776422
O        9.38926036      18.90634407      17.61067987       0.02844894       0.01215601       0.00965035
O        9.61815104      16.51111230      18.07675746       0.00738901       0.01078510       0.00986075
O       11.51509957      17.76825119      17.18820721       0.01480675      -0.00832996       0.00061882
C        9.51555168      17.27144705      15.59968094       0.00432777       0.00993860       0.01022458
H        9.73490316      18.12276869      14.96265669       0.01223016       0.00613912       0.00836700
H       10.05886951      16.39997907      15.25531926      -0.00742068       0.00294338       0.00990483
H        8.44620792      17.07016966      15.61880466       0.00247137       0.02256964       0.01410189
S       10.92642057      14.68470797       5.49818539       0.01096261       0.02990526       0.02537671
O       11.47938653      15.45126199       4.08073902      -0.00476396      -0.01081941      -0.00136924
O       11.68921994      15.22316567       6.57395655      -0.01320472      -0.01190725      -0.01802576
O       10.85060489      13.28315619       5.26501616      -0.00805346      -0.02750325       0.00219342
C        9.33115518      15.41625168       5.40725761      -0.00214422      -0.00352129       0.00130452
H        8.90302457      15.19702976       4.43210381      -0.00523344      -0.00476150       0.00472087
H        8.75105397      14.94767605       6.19938770      -0.00155187       0.00321528       0.00595839
H        9.41805154      16.48599555       5.56909000       0.00126772      -0.00110894      -0.00233922
Cl       6.00158535       8.25462757      12.21368062      -0.00857144      -0.01373303       0.00627923
Cl       7.19053958       5.68023327      11.59019792       0.00170907      -0.00530371      -0.00459702
Cl       4.42482793       6.21261872      10.90983291      -0.00036743      -0.01632021       0.00042695
Cl       5.24636277       5.89021184      13.69310887       0.00254931      -0.02212292      -0.00231972
C        5.71662786       6.51193665      12.09189898      -0.00115982      -0.01417168       0.00002125
Cl      13.77458633      16.77429732       9.76368078       0.00955561       0.00713927      -0.00458431
Cl      12.81579036      14.36498300      11.05249383      -0.00597131       0.01345006      -0.00648934
Cl      15.53681705      15.24847644      11.49202455      -0.00468263       0.00254217       0.00465953
Cl      14.76036035      14.18415650       8.91165715       0.00301069       0.00303847       0.00293928
C       14.22157748      15.14162232      10.30051250       0.00061275       0.00656968      -0.00093120
Cl       7.47579561       8.32745677       5.61376183       0.00436345      -0.00179902      -0.00231032
Cl      10.17901563       9.34384678       5.83346667      -0.00006914       0.00541008      -0.00077029
Cl       7.93321279      11.07085485       6.44820360       0.00158332       0.00084701       0.00011009
Cl       8.45135521      10.28255200       3.70881059       0.00701891       0.00150007      -0.00110367
C        8.51512003       9.75267063       5.40013197       0.00010457       0.00122484      -0.00105392
Cl       3.86619412       2.84599109       3.64000558      -0.00955418       0.00476971       0.00223556
Cl       2.18876482       5.11239594       4.27992625      -0.01065418       0.00307477       0.00182295
Cl       5.01765698       5.16778693       4.95878390      -0.01292643       0.00155461       0.00945551
Cl       3.22139626       3.43728239       6.41081264      -0.01681446      -0.00071402       0.00081828
C        3.57970873       4.13811396       4.82430396      -0.01242395       0.00254378       0.00384580
Cl       3.00177534      15.82509747       8.38678537       0.00430033       0.00484121      -0.01375276
Cl       3.60514492      17.07224485       5.84645595       0.01666519       0.00150809      -0.01154423
Cl       5.44190149      15.13176713       6.97823478       0.00735390      -0.00169095      -0.00386392
Cl       5.16292304      17.75062029       8.19638024       0.00909607      -0.00077888      -0.00661191
C        4.29595977      16.45391303       7.34440700       0.00958965       0.00084466      -0.00885540
Cl      15.31305372      10.49964073       8.27521752       0.00295204       0.00767337       0.00106147
Cl      12.56509310      11.28594046       7.82183184       0.00208887       0.00360048       0.00282922
Cl      13.56184464       8.78154202       6.74172719       0.00402325       0.00447553       0.00449008
Cl      14.44066190      11.31080388       5.62846471      -0.00011070       0.00397325       0.00163561
C       13.97110701      10.48027151       7.11767948       0.00220442       0.00478215       0.00251343
Cl      13.71067145       9.52528340      13.88027887      -0.00197648      -0.00086774       0.00080854
Cl      12.59554595      10.70949281      11.48865609       0.00052902       0.00556171       0.00336027
Cl      14.31036885       8.39124603      11.28848019       0.00107116       0.00694013      -0.00120234
Cl      15.42419514      10.97202633      12.03508507      -0.00062555       0.00427717       0.00720495
C       14.01419213       9.90063846      12.17660339      -0.00039869       0.00399187       0.00252578
Cl       9.13463500       4.23073100       6.32746037       0.00049137      -0.00128170      -0.00571704
Cl       6.88476934       4.32497931       8.15210068       0.00635245      -0.01954928      -0.00139197
Cl       9.59241855       4.67271597       9.14500683      -0.00185323       0.00260794      -0.00626019
Cl       8.71347428       2.07652945       8.24396894       0.02027754      -0.00805059      -0.00474758
C        8.58088683       3.83088144       7.96058168       0.00790885      -0.00903605      -0.00536456
Cl       2.47767654      12.32032769       9.45445046       0.01846525       0.00750870       0.00444058
Cl       4.88970921      10.71207603       9.36835094       0.00884020      -0.00546267       0.00184913
Cl       2.31513407       9.49255536       8.82099589       0.00222543       0.01066118      -0.00071603
Cl       2.97076927      10.34607124      11.51773472       0.00647090       0.00295791       0.00044441
C        3.16275849      10.72510323       9.79400967       0.00914779       0.00360237       0.00142834
Cl       6.97834203       1.63163687       5.18293908      -0.00756308       0.00042025       0.00454521
Cl       9.49828053       1.44332421       3.75641150      -0.00288898       0.00738422       0.01275431
Cl       7.53321743       3.38623375       2.92105922      -0.00218113       0.00710326       0.01200873
Cl       7.02282715       0.56001619       2.51297273       0.00334883       0.00828224       0.00236511
C        7.75235959       1.75437195       3.57252554      -0.00196157       0.00576778       0.00836930
Cl      13.47332583      12.84517362      15.11597680      -0.00089908       0.00199759      -0.00168669
Cl      15.68046109      14.40352453      18.32311651      -0.01259933      -0.01145542      -0.00203070
Cl      11.25915766      14.10274578      16.51961241       0.00055993       0.00058740      -0.00002384
Cl      12.72809627      15.58128498      14.51333011      -0.00079805       0.00173831       0.00038384
C       12.10709942      13.97805665      14.97142307      -0.00034980       0.00210714      -0.00039238
Cl      16.68266112       8.61744228       4.09359845       0.00096819       0.02322195      -0.00611451
Cl      16.24646864       7.85568233       1.33295271       0.00203818       0.00390039      -0.00013226
Cl      15.56724388      10.52130552       2.19733685      -0.02251576       0.00137419      -0.01225349
Cl      13.98385836       8.26828791       3.11237732       0.00288844      -0.00960052       0.00282732
C       15.61472909       8.82701078       2.70418658      -0.00416371       0.00452866      -0.00416854
Cl      15.57384266       2.10591744       3.63036986      -0.00368585      -0.01143897      -0.00826115
Cl      13.76397754       2.22387272       1.37995242      -0.03163749      -0.01004889       0.01590377
Cl      15.04061700       4.66459494       2.36652684      -0.00865579      -0.01320562      -0.00822143
Cl      12.95808587       3.38412120       3.90568729       0.00639208       0.00083619       0.02162558
C       14.30965487       3.13441798       2.81480869      -0.00943786      -0.00888488       0.00453172
Cl      14.44744988       5.97325659      16.12373917      -0.00386250      -0.00832230       0.00512468
Cl      11.91950975       6.47962017      14.85507422       0.00110710      -0.00349583      -0.00182950
Cl      12.90081218       8.32536887      16.86521403      -0.00198728      -0.00683308       0.00154218
Cl      11.97984402       5.69621261      17.63902183      -0.00816089      -0.00527205      -0.00266251
C       12.80201653       6.62311292      16.37140081      -0.00319548      -0.00614669       0.00056313
Cl      12.81501737      13.49010474       2.95147229      -0.01078463      -0.01361454       0.00031708
Cl      14.12415148      15.67122455       4.38252204      -0.00450390      -0.01428633      -0.00529535
Cl      12.56666454      16.22597927       1.96796949      -0.00712061      -0.01499048      -0.00223458
Cl      17.55413644      16.70277033       3.58192327      -0.00562596      -0.00588144      -0.02204645
C       12.61231674      15.16423325       3.40964531      -0.00674513      -0.01254743      -0.00140136
Cl       2.87596370       8.52708194       5.08982436      -0.00171769       0.00548702      -0.00366390
Cl       4.94861610       9.07931305       3.15113978      -0.00032443       0.00287154      -0.00222549
Cl       4.48450114      10.90955239       5.33939558       0.00048533       0.00347793      -0.00280941
Cl       2.55487756      10.68710533       3.17043206       0.00210854       0.00549325      -0.00314894
C        3.71052547       9.81259088       4.18192156       0.00020208       0.00426817      -0.00298291
Cl      10.56713625       5.00356258      12.35826304       0.00128301      -0.00134525      -0.00457381
Cl       9.30536239       2.39699182      12.27738272       0.00520322      -0.00285426      -0.00374901
Cl       9.30558627       3.91879740      14.74780905      -0.00290567       0.00089112      -0.00677830
Cl      11.76897482       2.76597432      13.76596585       0.00049686       0.00283749       0.00111952
C       10.23478664       3.51457753      13.29859152       0.00099286      -0.00009088      -0.00364447
Cl       5.77100851      12.60220317       2.36903341       0.00158364       0.00494713      -0.00117463
Cl       4.02823760      14.85355682       1.80580473       0.01056176       0.01121706      -0.00097483
Cl       4.77290907      13.02009630      -0.32046367       0.00857271       0.01260123      -0.00181752
Cl       6.76472302      14.81606583       0.79404457       0.01176983       0.00391564       0.00483605
C        5.33856426      13.83412458       1.15765421       0.00806686       0.00810185       0.00028224
Cl       2.97983679       3.42992892      16.54899969       0.00389886      -0.00309992       0.00295682
Cl       0.69957905       5.09336079      17.03136227       0.00256091      -0.00643027       0.00497833
Cl      -0.35662809       0.62755851      17.24382012      -0.03657886      -0.00370815      -0.02384388
Cl       0.49222536       2.86024167      15.25081995       0.00682116      -0.00639856       0.00414431
C        1.38984263       3.79233904      16.25692487       0.00373517      -0.00467758       0.00398585
Cl       8.20088864       8.12483714       9.17317653      -0.00205827       0.00461292       0.00082326
Cl      11.09298914       8.09945531       9.27653381      -0.00259259       0.00306606       0.00499198
Cl       9.58074746       8.51743729      11.70491841      -0.00599301       0.00628091       0.00173265
Cl       9.62698904      10.57638432       9.66146834      -0.00120971       0.00374728       0.00021407
C        9.62607663       8.81197339       9.95465944      -0.00290084       0.00451654       0.00192115
Cl       2.98710443       0.64169571      11.31452797       0.01615709      -0.01552045      -0.00242352
Cl       2.87491024       3.24849039      12.56612186      -0.00643618      -0.01521707      -0.00664898
Cl       5.41446414       2.19753334      11.66841105       0.00356853       0.00100985       0.00413182
Cl       4.09419239       1.01612563      13.96663461       0.00357980      -0.00450197       0.00062120
C        3.84275881       1.76877647      12.36882924       0.00429105      -0.00840926      -0.00118226
Cl      -0.08126548      13.18971457       3.93811800      -0.00270015      -0.00562547      -0.00567144
Cl       2.42443455      13.83001059       5.21764519      -0.00346154       0.00943065      -0.01439951
Cl       0.87378191      11.57284955       6.15485639       0.00527773       0.00990492       0.00158617
Cl      -0.06588242      14.26352551       6.62653242      -0.00243920       0.00877255      -0.01202673
C        0.79076455      13.20779288       5.47613867      -0.00081185       0.00556959      -0.00729978
Cl       8.84594167       8.09160533      15.75794488      -0.00093901      -0.00185448      -0.01004996
Cl      10.35625835      10.48220431      15.17731579      -0.00152934       0.00052333       0.00103150
Cl       8.54463000      10.44072688      17.43714386      -0.00452719      -0.00892037      -0.00227365
Cl       7.48168034      10.44642373      14.75190500      -0.00023174       0.00058475      -0.00345278
C        8.80748412       9.86444396      15.78438425      -0.00162869      -0.00240156      -0.00379083
Cl       4.40775893       5.92063496       1.57150900       0.00320238      -0.00154206       0.00393999
Cl       6.43411724       5.12295476      -0.33548205       0.00151053      -0.00556621       0.00468493
Cl       7.12102035       6.91179833       1.82706012       0.00174615       0.00192782      -0.00234938
Cl       5.41416127       7.84763282      -0.32608709      -0.00100835      -0.00729656      -0.00330180
C        5.84163531       6.45799915       0.68267220       0.00139795      -0.00308096       0.00071380
Cl       1.99188434       6.36465153      13.63147649      -0.00045198      -0.00615428       0.00239196
Cl      -0.70277160       5.46342776      13.00926984       0.00006080      -0.00145406      -0.00259569
Cl       0.62727803       7.39158302      11.30642538       0.00297131       0.00325678       0.00518698
Cl      -0.23681561       8.15858838      13.97309896       0.00064282      -0.00538442       0.00605172
C        0.41303965       6.85586369      12.97548822       0.00082783      -0.00242564       0.00275683
