143
Lattice="12.62802613725626 0.0 0.0 0.0 12.62802613725626 0.0 0.0 0.0 12.62802613725626" Properties=species:S:1:pos:R:3:forces:R:3 energy=-379313.21875 stress="-0.0002414574264548719 0.00046303990529850125 -0.0009205980459228158 0.00046303990529850125 0.0011507426388561726 0.00024966592900455 -0.0009205980459228158 0.00024966592900455 -0.00025241452385671437" pbc="T T T"
Nd      14.29646776      13.44891121       1.19416996       0.05145865      -0.05705644      -0.01221433
O       12.29568184      12.82470593       1.63889301       0.03945531      -0.00611883       0.00230847
H       11.70052268      13.19554426       2.29797711       0.03873042       0.02220049      -0.01459050
O        1.86038163      13.42606646      11.75085296      -0.03596500      -0.00236267      -0.02062297
H        2.41024742      12.78508413      11.27957125      -0.06182475      -0.00945178      -0.03941903
O        3.20551811      12.51357939       2.73985597       0.03725195       0.00214878      -0.00675535
H        4.15052486      12.36075673       2.65850818       0.02837604      -0.06780906       0.03630741
O        7.96858600       2.94858639       2.72481965       0.00816077      -0.00757045      -0.00867698
O        6.13676364       4.23878837       2.75138384      -0.00085056      -0.01335207      -0.02439012
C        8.30567060       5.27362705       2.94281213      -0.00395733      -0.00653422      -0.00869793
C        7.33553536       4.14072396       2.79963008       0.00917518      -0.00984349      -0.01509728
H        8.80181617       5.18591347       3.91064627      -0.00916104      -0.00543227      -0.00583559
H        9.07076974       5.21984564       2.16827571       0.00082913      -0.00233349      -0.00429286
H        7.76721709       6.21451140       2.89543655      -0.00648201      -0.00799759      -0.01065468
H        7.27354801       2.28210561       2.62791273       0.01255786      -0.01128244      -0.01009091
O       11.93409828       0.89559865       8.05077359       0.03348953      -0.03175803       0.01957989
O       12.87454708       2.85716054       8.56693572      -0.00294599      -0.00664383      -0.01594543
C       11.15749285       1.96809838      10.00701838       0.01674730      -0.01215533       0.00201577
C       12.08731753       1.97821588       8.84218522       0.01327872      -0.01664037       0.00062087
H       10.13376127       2.05372219       9.63736354       0.01602903      -0.01840268       0.00231031
H       11.20972479       1.01667779      10.53162088       0.02499313      -0.00716764       0.00950798
H       11.38819965       2.79623282      10.66953010       0.01462557      -0.00703251      -0.00380152
H       12.56739680       0.99439650       7.32332861       0.02938503      -0.02867642       0.01633662
O       11.06529089       3.80303168       6.73410260      -0.00270122      -0.01108146      -0.01231906
O       12.23015585       5.71082018       6.63195156       0.00424254      -0.01501957       0.02663619
C        9.83750724       5.81434363       6.85724978       0.00340348      -0.00846365      -0.00046650
C       11.16771467       5.14533454       6.71552842       0.00320971      -0.01264146       0.00667620
H        9.07111240       5.29423223       6.28262716       0.00535126      -0.00202496      -0.00855418
H        9.54796251       5.75789445       7.91012256      -0.00396216      -0.01235065      -0.00261298
H        9.91556366       6.85538935       6.56474186       0.00955375      -0.00681350       0.00635160
H       11.97069198       3.47167302       6.88734889      -0.00566852      -0.01676995      -0.00274360
O        2.73491688       7.09244425       2.93738029      -0.00351989       0.01339554       0.00875816
O        3.66955941       9.12079851       3.11371768      -0.00124097       0.01583719      -0.01435286
C        4.82723674       7.38874147       1.90722349      -0.00289685      -0.00081626       0.00832605
C        3.71564085       7.96971419       2.71658390      -0.00299612       0.01071256      -0.00012648
H        5.12107619       6.41274795       2.29080995      -0.00797518       0.00142822       0.01740811
H        4.47755478       7.25666089       0.88213030      -0.00161553      -0.00989898       0.00902438
H        5.67100989       8.06916708       1.87567952      -0.00025272      -0.00451657       0.00355535
H        1.97590931       7.54728099       3.35483675      -0.00624483       0.01776689      -0.00013903
O        4.18507194      10.88617626       9.32956107       0.01632756       0.03231778      -0.04059766
O        5.40856082       9.00765753       9.19946122      -0.02331163       0.00588548       0.00272787
C        6.42918399      11.03715371       9.98707281      -0.00232375      -0.01159519       0.02108380
C        5.31567897      10.18265308       9.48223243      -0.00576061       0.01014805      -0.00656201
H        6.59540353      11.86214645       9.29352320       0.02346352      -0.00887966       0.03176428
H        6.16363425      11.45931988      10.95586505      -0.01490431      -0.01525225       0.01915671
H        7.34177801      10.46224894      10.07081794      -0.01612498      -0.03012465       0.03543470
H        3.50700917      10.30500194       8.93987270       0.01092140       0.03493595      -0.04211998
O        2.10954994       8.16001538      -0.15169206       0.01803580       0.00979882      -0.01818681
O        3.34593656       9.98913408      -0.60589451      -0.01681072       0.03151011      -0.04176646
C        1.55201357      10.15271149       0.97728324      -0.00104243       0.00741959      -0.02354658
C        2.45290191       9.45433820      -0.00262448      -0.00359821       0.01370683      -0.02817750
H        0.81125220      10.70999051       0.39187759      -0.00197987       0.00914983      -0.02143489
H        1.02136629       9.46758547       1.63637574       0.00246567       0.00803015      -0.01932380
H        2.16124243      10.81239107       1.59974482       0.00412443       0.00499411      -0.02414589
H        2.54012358       7.75847731      -0.93279653       0.00866899       0.00762875      -0.02293956
O        3.84234705       2.45628277      10.84535189      -0.02938753      -0.04327314      -0.00488223
O        4.55990742       1.33961644      12.65343402      -0.05086486      -0.00523987       0.02300429
C        6.13864366       2.02503511      10.93889321      -0.02636570      -0.00629444       0.04579449
C        4.79155196       1.89510190      11.58894540      -0.03648964      -0.01849106       0.01776230
H        6.07192723       1.64799198       9.91757769      -0.00354419       0.00454881       0.04110268
H        6.40840076       3.07898453      10.84862277      -0.03565369      -0.00281563       0.06459033
H        6.90386431       1.49066697      11.49159299      -0.03315528      -0.00470183       0.05535971
H        2.97093302       2.16001253      11.19662240      -0.02932447      -0.06069089      -0.01276129
O        2.26673226       9.83103144       7.57524093      -0.02136433      -0.03574269       0.03933522
O        1.30972871       8.10262917       6.51831614      -0.01685750      -0.00320122       0.00934577
C        3.71107352       8.28150556       6.51156257      -0.03085405       0.01202355      -0.00999239
C        2.31580627       8.67412476       6.84077765       0.01245850      -0.00770158       0.01227298
H        4.11313050       9.00023430       5.79467696      -0.03957450       0.01502497      -0.01761401
H        4.33609703       8.31226114       7.40667234      -0.00342616       0.01815223      -0.02361569
H        3.71243877       7.29364025       6.06318911      -0.01360402       0.01290080      -0.01203595
H        1.33420106       9.98765835       7.78109376      -0.01441854      -0.04941089       0.07166992
O        8.66106657       7.89854941      11.15723216       0.00859515       0.01549911      -0.00180486
O        6.63526220       8.15487476      12.09113045       0.01764709       0.00609612       0.02710372
C        7.35593311       5.94826329      11.46532367       0.01024386       0.01315039      -0.01302678
C        7.46655170       7.43969364      11.59696750       0.01830000       0.00527644       0.00266811
H        7.66477152       5.60809331      10.47733468      -0.00627410       0.02376185      -0.02196117
H        8.02559829       5.48425358      12.19394047       0.02165309       0.00330342      -0.03012775
H        6.33759335       5.63570457      11.67411239       0.01382422       0.01004797      -0.00084882
H        8.74632046       8.82471212      11.46027785       0.01480171       0.01093936       0.00960313
O       11.01383780      10.29616169       1.88685182       0.00111633       0.02547759       0.00244880
O        9.57068401      10.23854809       0.16510629       0.00828782       0.01149753      -0.00488982
C        9.77594581       8.32178633       1.60104602       0.00506896       0.02239853       0.00720742
C       10.09107108       9.70444528       1.12574747       0.00595281       0.02059820       0.00116169
H       10.69892789       7.74952291       1.69978568       0.00206468       0.01461281      -0.00945861
H        9.31007509       8.37074552       2.58524135       0.02356625       0.02406666       0.01546040
H        9.11065817       7.82815088       0.90447755      -0.01155171       0.02716066       0.01975876
H       11.27926029      11.18830021       1.55703689       0.00811811       0.02629715       0.00618470
O        6.98267885       4.15020828       5.78534682       0.00846726      -0.00225335      -0.01335006
O        5.75977196       3.29995586       7.47096477       0.01231021       0.02226618       0.00610304
C        7.85354670       2.25698035       6.88719709      -0.00280237      -0.00060093      -0.00330981
C        6.74716625       3.26169296       6.78388462       0.01019514       0.00729727      -0.00713873
H        7.76006339       1.54939514       6.06067862       0.00090871       0.00332233      -0.00672440
H        8.83047213       2.72840559       6.79137866      -0.00004311      -0.00456882       0.00633948
H        7.78267162       1.71059872       7.82303336      -0.01258726      -0.00277196      -0.00559109
H        6.22581140       4.75545815       5.69279839       0.01870859       0.01120496      -0.00772918
O        2.59949470       5.48594081       7.98972132      -0.01990378       0.02143182       0.01949301
O        2.33414294       6.27823086      10.07841130       0.01086283       0.03653845       0.01755220
C        4.54498173       5.80776979       9.27374762      -0.00443983       0.00413886      -0.00228746
C        3.05695258       5.89655342       9.18030549      -0.00265110       0.02328166       0.01309055
H        4.80658059       4.77821621       9.52678565      -0.01540717       0.00262997       0.00222341
H        5.01345977       6.03367246       8.31847636      -0.01181455      -0.00921903      -0.00859492
H        4.89490980       6.49346813      10.03873821       0.01181798       0.00419603      -0.01047118
H        1.63157133       5.56780799       7.95214344      -0.01923993       0.03028408       0.02674791
O       11.06278075      10.77257638      10.63899121      -0.00499493       0.00625739      -0.01300776
O        9.41424787      11.83879683       9.55400272      -0.00953364       0.00287914      -0.01121529
C       10.44792682       9.91509649       8.53769866       0.00167197       0.01165599      -0.01664811
C       10.24314253      10.95944581       9.58908558      -0.00427175       0.00620478      -0.01243958
H       11.48400069       9.58371336       8.50099726       0.00106177       0.00985388      -0.00969499
H        9.86106416       9.04241874       8.84047901      -0.00342652       0.01170747      -0.02715920
H       10.07727491      10.26381802       7.57917927       0.01145054       0.01836704      -0.01795529
H       10.65863521      11.21468384      11.40554865      -0.00347975       0.00464875      -0.01118150
O        7.53180363       7.92866466       6.29994022      -0.00598755       0.01374614       0.03320432
O        6.12628298       6.91557315       4.88204580       0.01775238      -0.00418431       0.02766487
C        6.67962983       9.24677314       4.54960073       0.00659166      -0.00833505       0.01260993
C        6.71909571       7.91329992       5.22645723       0.00419867      -0.00350523       0.02452430
H        6.68134865      10.04222891       5.29307649       0.00993580       0.00104582       0.00143817
H        7.58666971       9.36526727       3.95148757       0.00259909      -0.01866089       0.00536750
H        5.80714126       9.32137584       3.90557725       0.00566685      -0.01658273       0.01476248
H        7.52160409       7.03632361       6.67593106      -0.00348969       0.01554698       0.03849068
O        2.40290810       1.69221593       4.28729928       0.01434955      -0.01944023      -0.00402743
O        2.02377368       2.71218808       2.35110449      -0.01766686      -0.03591985      -0.00833058
C        2.75446969       4.05291357       4.21011989      -0.02261178      -0.01531136      -0.01557517
C        2.37228139       2.73891894       3.60489235      -0.00830982      -0.02517247      -0.01295921
H        1.87208552       4.68458442       4.33165048      -0.02200547      -0.01189511      -0.03765251
H        3.20979374       3.89685544       5.18501328      -0.02866545       0.00439366      -0.00822712
H        3.43068668       4.58929528       3.54653129      -0.01709957      -0.01252827      -0.00634278
H        3.01179894       0.52772427       3.50815179       0.02889289      -0.03340909       0.02196257
O       10.86157591       7.73676341       4.53940174       0.01706272      -0.00078619       0.01341248
O       12.84183609       7.98709547       3.55001844      -0.00177300       0.00725830      -0.00890380
C       11.98753334       9.75651558       4.96078034       0.00825834       0.00771773      -0.01268667
C       11.98786331       8.43224153       4.28121326       0.00972801       0.00261816      -0.00685847
H       11.15101018      10.34829051       4.58901956       0.00630727       0.00405714      -0.01496510
H       11.85283802       9.60108526       6.02874663       0.01113715       0.01607843      -0.01122391
H       12.92477635      10.26812667       4.76630115       0.00549170       0.00939564      -0.02037187
H       10.96828016       6.88126361       4.09787605       0.01778930      -0.00291753       0.01610288
O       12.26572050       7.03938126      12.06622789       0.02260327      -0.00848725      -0.00354677
O       12.76958514       8.27646529      10.25776501      -0.00758463       0.01211107       0.00283849
C       11.65980254       6.16378373       9.96910443      -0.01259506       0.01539332      -0.00099412
C       12.28500551       7.28104594      10.73883005       0.00111991       0.00697589       0.00001474
H       12.21628122       5.24706332      10.17005826      -0.01210339       0.01185554      -0.01916239
H       10.62695155       6.01696599      10.28743364      -0.00736615       0.01341207       0.01394178
H       11.71611154       6.39525070       8.91212415      -0.02988641       0.02649764       0.00103487
H       12.91701864       7.64356453      12.46606696       0.02761810      -0.01213521      -0.00609793
