141
Lattice="12.485106787827382 0.0 0.0 0.0 12.485106787827382 0.0 0.0 0.0 12.485106787827382" Properties=species:S:1:pos:R:3:forces:R:3 energy=-317609.40625 stress="-0.0014569694176316261 -0.0005282397323753685 0.00036510464269667864 -0.0005282397323753685 -0.0005100836278870702 -0.000394554968806915 0.00036510464269667864 -0.000394554968806915 -0.00035816410672850907" pbc="T T T"
Ni      11.55647017      14.09465049      -0.11372283      -0.01450348       0.00655001      -0.00614965
O        3.28433278       9.92504205       9.28768565       0.01616073      -0.03137121       0.02345920
O        2.44724400      11.36133551      11.30989863       0.01035917      -0.02343321       0.00415349
O        4.95282804      10.70330735      11.12574575       0.01254535      -0.01998377       0.01886106
O        3.16116247       8.89097437      11.69313081       0.00683376      -0.02225566       0.02555203
Mn       3.45327853      10.21998598      10.84674861       0.00124374      -0.02061790       0.00595104
O       12.03232578      10.03476268      11.78799141      -0.00947845       0.00641429       0.01339316
O       12.43349627      11.07995344       9.41441333      -0.01251256      -0.00233951       0.01381671
O       11.91389895      12.66831138      11.46759340      -0.00139338       0.01253510      -0.00859410
O       10.05966881      11.09242486      10.47465762      -0.00914776       0.01124485      -0.00184336
Mn      11.62952637      11.19429495      10.77740485       0.00550674       0.01299655      -0.02018160
S       11.41796543       8.74024489       7.50515673       0.00439954       0.00576067      -0.00265296
O       10.54074577       7.63886389       8.00451635       0.00422299       0.00310421      -0.00091058
C       10.34446664      10.17614556       7.31273629       0.00182515       0.00314170      -0.00251703
C       11.67036336       8.44405160       5.74910798       0.00243724       0.00265584      -0.00204939
H       10.01631165      10.47006204       8.30979220       0.00224192       0.00365514      -0.00291400
H        9.49686067       9.89473990       6.68551187       0.00151466       0.00185315      -0.00163851
H       10.91148628      10.98947030       6.86116004       0.00034957       0.00354340      -0.00363364
H       12.16378871       9.30418808       5.30036638       0.00438350       0.00174096      -0.00259482
H       10.71108750       8.28761577       5.26028341       0.00288194       0.00397277      -0.00222704
H       12.30743669       7.56368456       5.68696355       0.00139473       0.00176992      -0.00053085
S        2.62933433       7.30510253       7.44840867      -0.00197959      -0.00962228       0.00437129
O        1.41619979       6.54704351       7.00139573      -0.00603616      -0.00519001       0.00432044
C        2.55810860       8.90663435       6.62312499       0.00109480      -0.00886822       0.00696427
C        4.00149920       6.66950541       6.46871443      -0.00557959      -0.01382564       0.00247431
H        1.81787382       9.51070764       7.14371427       0.00136536      -0.00908816       0.00768091
H        2.29026978       8.72517039       5.58129815       0.00151387      -0.00579639       0.00642242
H        3.52682696       9.39482413       6.70330871       0.00157697      -0.01010699       0.00864765
H        4.90375201       7.19660286       6.77745930      -0.00392716      -0.01569737       0.00162143
H        3.77133151       6.79820879       5.41083666      -0.00609855      -0.01380443       0.00272809
H        4.10682480       5.61486023       6.71264594      -0.00793651      -0.01373728       0.00280215
S       11.12857401       4.29785803       2.36046401      -0.00088382       0.00448471      -0.00841182
O        9.70242524       4.60275533       2.70334283      -0.00154948      -0.00169823      -0.00475204
C       11.06096586       2.68173843       1.50633791       0.01004316      -0.00413793       0.00839229
C       11.86242906       3.62649183       3.87401053       0.00898784       0.02269328      -0.00571650
H       10.60418192       2.89075677       0.48711779      -0.02081600      -0.01673460       0.01905422
H       10.33438389       2.09196022       2.06086946       0.03586423      -0.01418559       0.03080265
H       12.09075546       2.23805558       1.47921205       0.01716447       0.01736489      -0.01317653
H       12.85402261       3.24749015       3.64323273       0.00422278       0.01421337      -0.01122250
H       11.18679956       2.86767195       4.26662739       0.00735657       0.03088325       0.00736155
H       11.92729146       4.44141754       4.59267031       0.02081148       0.03031220      -0.01559536
S        6.88227305       0.72150430       4.37781228      -0.00293237       0.00082695      -0.00360990
O        6.02448501       1.42063716       5.37460216      -0.00140703       0.00267577      -0.00415599
C        8.36106127       0.19426884       5.27171966      -0.00515592      -0.00375257      -0.00290400
C        7.67785302       1.96877921       3.34095123       0.00052565      -0.00036085      -0.00227651
H        8.05059748      -0.55920890       5.99241641      -0.00917681      -0.00006930      -0.00093701
H        8.76959575       1.07542927       5.76968565      -0.00047923      -0.00487489      -0.00496767
H        9.08464803      -0.23656942       4.57977232      -0.00747092      -0.00970917      -0.00148983
H        7.98810773       1.51841940       2.39887828       0.00199041      -0.00003415      -0.00185580
H        8.51604915       2.42043639       3.86617291      -0.00013937      -0.00135588      -0.00055532
H        6.92753798       2.73356032       3.14750545       0.00161898       0.00040238      -0.00320229
S        9.47827898      10.03123921       2.50230887      -0.00596857      -0.00002679      -0.00641084
O       10.87912956       9.82892700       2.97126708      -0.01086116       0.00278643       0.00442144
C        9.20389177       8.90338458       1.12320177       0.00678213      -0.00191051      -0.00751507
C        9.45546488      11.54896084       1.52823494       0.00168788      -0.00137007      -0.00830132
H        9.22288696       7.89337826       1.52995745       0.00930506      -0.00183481      -0.00713065
H       10.00163430       9.04888014       0.39337390       0.00958431       0.00170781      -0.00316910
H        8.22544860       9.11437608       0.68930939       0.00833674      -0.00736735      -0.01294787
H        8.42986694      11.79611500       1.25468242       0.00637886      -0.00663375      -0.02918690
H       10.07488634      11.43448235       0.64184109       0.01998048      -0.00208836       0.00505069
H        9.86272579      12.32466606       2.17302282      -0.01421543       0.00130827      -0.00161353
S        4.77020279       2.28732877       1.10815093      -0.00188792      -0.00250018      -0.00771201
O        4.35292961       3.49730787       0.32666216       0.00495166      -0.00066137      -0.00907290
C        3.95732346       0.89115923       0.33224527      -0.01339567       0.00318527      -0.00537997
C        3.85522825       2.29325857       2.65510048       0.00126010       0.00721613      -0.00615650
H        4.35938542       0.78436486      -0.67264613      -0.01319368      -0.00149938      -0.00467765
H        2.88208886       1.05777302       0.28816528      -0.01154801       0.01359535      -0.00639975
H        4.20470262      -0.01777211       0.88115650      -0.02227497       0.00156983      -0.00423014
H        4.14296481       1.41453405       3.23100350      -0.00414856       0.00641913      -0.00481659
H        2.78688589       2.33453932       2.44504244       0.00122982       0.01469733      -0.00418250
H        4.18885553       3.17871256       3.19331987       0.00889246       0.00599842      -0.00880992
S        5.26666685       6.08225036       3.00763901      -0.00392663       0.00531816      -0.00365022
O        5.81443031       4.73085803       3.33094050       0.00424063       0.00867331      -0.00577414
C        5.61094519       6.39717578       1.27063642      -0.00944021       0.00819443      -0.00414026
C        6.46705852       7.25708131       3.66818419      -0.01015019       0.01193115      -0.00428969
H        5.14623594       5.57266070       0.73032736      -0.00940150       0.00778958      -0.00329170
H        6.69075863       6.38111145       1.12533129      -0.00991715       0.00982059      -0.00714714
H        5.16975197       7.35215834       0.98706980      -0.01167198       0.00752844      -0.00252248
H        6.24614988       8.25260996       3.28814925      -0.01538971       0.01035038      -0.00473863
H        7.46018667       6.91526855       3.37183725      -0.00816143       0.01722100      -0.00329469
H        6.37489808       7.24180957       4.75263678      -0.01024327       0.01244577      -0.00436857
S       11.17495022       3.09656842       9.44873902       0.00866771       0.00334531       0.00160640
O        9.86243432       3.80539127       9.43969102       0.01226211       0.01186520       0.01186678
C       12.16299576       3.86055646       8.15410414       0.00527868       0.00476041       0.00023317
C       10.90984556       1.51092812       8.65541164      -0.00448145       0.00884098      -0.00376445
H       12.29406173       4.90914262       8.41258872       0.01188780       0.00254214       0.00457531
H       11.60952879       3.76756870       7.21861839      -0.00114509       0.01259766       0.00322220
H       13.13421798       3.36987167       8.10118681       0.00237948       0.00040654      -0.00903647
H       11.85809056       0.97581437       8.59476443      -0.00817609       0.00301243      -0.00915724
H       10.46688595       1.69503248       7.67582325      -0.00699425       0.01544419      -0.00143974
H       10.22994263       0.95362734       9.29813605      -0.00547838       0.01041689      -0.00349870
S        7.64440027       3.47718838      12.30784849       0.00032175      -0.01006007      -0.00210232
O        8.63702751       2.34984006      12.34964114       0.00590134      -0.00625062      -0.00352415
C        6.84454740       3.37688490      10.69842127       0.00704825      -0.00510157      -0.00540847
C        8.56893638       4.99049210      11.98387370      -0.00460678      -0.00465798       0.01139772
H        6.18058875       2.51664402      10.72653852       0.00907612      -0.00713105      -0.01312492
H        7.62653557       3.25693159       9.95061492       0.00938630       0.00180862      -0.00392680
H        6.25850269       4.27957337      10.52947671       0.00350550      -0.00682168      -0.00155447
H        7.84510716       5.76879666      11.74786887      -0.00562494      -0.00596144       0.01003123
H        9.24157637       4.82013102      11.14309459       0.00235234       0.00196086       0.01581356
H        9.09658417       5.23679082      12.90397149      -0.01332492      -0.00866635       0.01717427
S        8.38799240       4.33690026       5.73566672      -0.00004482      -0.00793135       0.00460231
O        9.41332052       3.25646773       5.97959806       0.00396907      -0.00495315       0.00053680
C        9.31281359       5.87490067       5.68387159      -0.00642180      -0.00429511       0.00828242
C        7.57150594       4.63193479       7.30304340      -0.00006312      -0.01695035       0.00605291
H        9.80849062       5.89984187       4.71618736      -0.00301037      -0.00250301       0.01013778
H       10.01616349       5.90981847       6.51483247      -0.00910452      -0.00064618       0.01029944
H        8.61826290       6.70901246       5.77144625      -0.01033499      -0.00725252       0.00496772
H        6.95571108       5.52762582       7.22959706       0.00102223      -0.01573418       0.01261045
H        8.32841988       4.74701407       8.07787622       0.00070351      -0.02289747       0.00623862
H        6.94506182       3.76319272       7.49444547      -0.00050794      -0.01773287       0.00038367
S        2.09194349       5.31759922       1.28435801       0.00294530      -0.00829351      -0.01140958
O        1.29799511       4.05348407       1.47849413      -0.00221241      -0.00449514      -0.01399438
C        1.00418509       6.69888932       1.67340613       0.01002514      -0.00479448      -0.00555012
C        2.16538112       5.61506007      -0.48396491       0.00217882      -0.00474514      -0.01054716
H        0.81806269       6.69278974       2.74578892       0.00119708      -0.01747480      -0.00723413
H        0.07119151       6.61286163       1.11963118       0.01426934       0.00900047      -0.01450887
H        1.54300210       7.60647169       1.41445712       0.01959515      -0.00596516       0.01075930
H        2.59737831       6.60242751      -0.66143379       0.00256451      -0.00500369      -0.00868450
H        1.15485419       5.55523685      -0.88865474       0.00183497      -0.00355900      -0.00952361
H        2.79723564       4.82841861      -0.88854723       0.00160882      -0.00428666      -0.01258028
S        6.35801046       8.39580931       9.63851052       0.00521460      -0.00358212      -0.00683105
O        6.13874973       7.21086864       8.74708924       0.01179463       0.00339675      -0.01416957
C        6.36491745       9.83883322       8.56223596       0.00160275       0.00451040       0.00414532
C        8.11436140       8.41814101      10.02173325       0.00473779       0.00296204      -0.00277932
H        5.32640536      10.03257845       8.29808445       0.00119320       0.00006996       0.00196798
H        6.97087107       9.59457751       7.68780538       0.00571175       0.01371427       0.00467179
H        6.76273199      10.69203419       9.10724326      -0.00519372       0.00265376       0.01135698
H        8.38410148       9.38377965      10.44937661      -0.00050151       0.00364041      -0.00163157
H        8.69258438       8.21573009       9.11909017       0.00658075       0.00699030      -0.00235566
H        8.30295785       7.62879804      10.74596813       0.00753025       0.00281221      -0.00376046
S        3.34811512      10.03929893       2.04051508      -0.00180095       0.00823259       0.01357675
O        3.48005465       8.63600536       2.55154152       0.00475075       0.00961041       0.01275778
C        3.35919376      11.07967322       3.51649147      -0.01225512       0.00775102       0.01347995
C        1.62834329      10.31674882       1.60438749      -0.00188601      -0.00132234       0.00661142
H        4.37777278      11.10847153       3.90024425      -0.01529661       0.00426595       0.02153901
H        2.68870131      10.64418721       4.25587130      -0.01920322       0.00924185       0.00820266
H        3.03508449      12.08362299       3.25139062      -0.00686378       0.00863881       0.01154390
H        1.50380300      11.36625524       1.33897007      -0.00813965      -0.00118019       0.01079278
H        0.96978669      10.02819429       2.42384517      -0.00312585      -0.00909617       0.00279754
H        1.42851983       9.73101776       0.71077244       0.00603355       0.00084634       0.00375597
