150
Lattice="11.452562061666754 0.0 0.0 0.0 11.452562061666754 0.0 0.0 0.0 11.452562061666754" Properties=species:S:1:pos:R:3:forces:R:3 energy=-165383.796875 stress="0.0030096929986029863 0.0007529387657996267 -0.001542461570352316 0.0007529387657996267 0.0015579817118123174 -0.0005057154921814799 -0.001542461570352316 -0.0005057154921814799 0.002334895310923457" pbc="T T T"
Ni      12.11992513      10.75895963      -0.40326659      -0.00242007      -0.00293877      -0.00338792
S       11.13655847      10.53979420       1.44620189      -0.01061411      -0.01381145      -0.00866207
S       10.02847441      10.73751329      -0.24617743      -0.00330003      -0.00386970      -0.01303709
O        3.42325796       4.95118106       3.90164134       0.00074935      -0.00179550       0.01197651
H        2.63086615       5.43397520       4.24323819       0.00021174      -0.00009413       0.00853353
H        4.17097326       5.52331379       4.16684995       0.00121575       0.00023997       0.00822169
O        3.06272010       1.35024995       1.52928731       0.00563157       0.00148341      -0.01806145
H        4.02871351       1.55873678       1.61414983       0.00724930      -0.00418746      -0.01746620
H        2.70379808       2.07453029       0.98378085       0.01064737       0.00204175      -0.02099852
O       10.47275187       0.90115045       8.08213419       0.00216599       0.00645624      -0.00328821
H        9.71006073       0.58995564       7.54809679       0.00260985       0.00479918      -0.00414715
H       10.99217250       1.49661289       7.51921852       0.00264151       0.00491939      -0.00470833
O        7.42563417       9.85616894       1.88763316      -0.00246248       0.03039479      -0.01266353
H        7.64732753       9.33461121       1.08904152      -0.00861735       0.01942104      -0.00531443
H        6.48016802      10.01816654       1.83413569      -0.00507072       0.04137250      -0.01595493
O        4.17333042       3.17880710       8.38104130       0.00134507      -0.00547591       0.01108509
H        4.86838291       3.86525945       8.31663401       0.00654592      -0.00697184       0.00892832
H        3.75685992       3.22567447       7.49682569       0.00070163      -0.00428870       0.01337297
O        7.29867213       9.82441083       8.66920803      -0.02329049       0.02516950       0.00351366
H        7.43959690       9.39749330       9.54033914      -0.01401441       0.02424050       0.00099248
H        6.67581858       9.22305697       8.20654813      -0.01097859       0.01279013       0.00176878
O        8.79147827       6.53161233       7.42611229      -0.00563979       0.00426957       0.00737032
H        7.85484173       6.59477475       7.21076942      -0.00891766       0.00544015       0.00510567
H        9.14607920       7.45544127       7.39454433      -0.00656536       0.00284345       0.00905363
O       10.24871920       6.60508678       1.68372778      -0.03947724      -0.01671070       0.01050492
H       10.06369874       6.55147058       0.72292337      -0.01805457      -0.00682125       0.00531086
H       10.49879023       5.69709642       1.97393449      -0.01607891      -0.01376305       0.00240652
O        8.85282364       3.84636773       9.62315329       0.00696836       0.00413824      -0.00753385
H        9.78281864       3.59754334       9.79928075       0.01024748       0.01002571      -0.00909576
H        8.69710608       3.58088086       8.69447790       0.00611803       0.00186900      -0.00449873
O        9.74888230       6.61066140      10.42957998       0.00156651       0.01348040       0.00199604
H        9.43199212       5.83207371       9.94340049       0.00161363       0.01735488      -0.00465643
H       10.54977910       6.93106903       9.96296684       0.00478574       0.01332155       0.00763768
O       10.75951828       0.63941940       4.50562005      -0.00760493      -0.00125292      -0.01055670
H        9.99420169       0.02963317       4.43599005      -0.00765233      -0.00094195      -0.00960740
H       11.25157071       0.49395688       3.68708829      -0.00622770      -0.00410186      -0.00977126
O       10.87542790       4.10312452       2.51155311       0.01803837      -0.00438520      -0.00430615
H       10.90834786       3.89726215       3.45572537       0.01179685       0.00192269      -0.00301269
H       10.29490964       3.40327191       2.15346029       0.01734858      -0.00571392      -0.00250430
O        0.81020583       7.54402579       9.57614761       0.01222655       0.00193257       0.01108626
H        1.15935218       7.37580976      10.47816007       0.00703156      -0.00774436       0.01162276
H        1.37274505       7.04938381       8.96198896       0.00749836      -0.00147540       0.00921610
O        2.63318358       7.04387703       7.42476480      -0.00618249       0.00068651       0.00282226
H        2.30008081       6.67076387       6.57241836      -0.00641582       0.00269401       0.00219684
H        3.58194413       7.20422603       7.32052985      -0.00440035      -0.00372655       0.00403979
O        0.96171329      -0.43729528       9.17921029       0.00399013       0.01044513      -0.00057772
H        1.10702459      -1.23008508       8.60037964       0.00580203       0.01065473      -0.00154515
H        0.16985198       0.00213766       8.75680926       0.00297973       0.00847025      -0.00074280
O        2.81484176      -0.03219551       6.10881717      -0.00029972       0.00041330      -0.00165281
H        2.43524620       0.85456894       6.04476775       0.00019468       0.00062296       0.00228294
H        3.59446949       0.07691007       6.68828079      -0.00184222      -0.00322738       0.00181285
O        8.57795640      10.35611833       4.32102090      -0.00844777      -0.00240903      -0.00590929
H        9.10938688       9.52043925       4.31180193      -0.00810201      -0.00237659      -0.00659007
H        8.21710128      10.36877304       3.40818079      -0.00921418      -0.00016205      -0.00637718
O        5.11892901       0.73247964       7.55144784      -0.00368816      -0.01762388       0.01942420
H        4.89331350       1.56152186       8.03299170      -0.00299105      -0.01662564       0.01788592
H        5.72688553       0.22400511       8.10139311      -0.02036342      -0.02607660       0.02814838
O        1.33576540       8.48097684       3.63332257      -0.01004210       0.00847945       0.00243843
H        1.75127114       9.36142485       3.63132077      -0.01195642       0.00965853       0.00063494
H        0.37009780       8.61162496       3.71149992      -0.01045868       0.00531207       0.00479302
O        0.00664952       2.93003113       9.96205824       0.01579677       0.01275864      -0.01605365
H       -0.19895391       1.99178264      10.07209089       0.01478110       0.01305220      -0.01520771
H        0.81107061       3.10522625      10.50231880       0.01925121       0.01097807      -0.01905112
O        7.63117531       1.88652316      11.11359391       0.01620620       0.00100003      -0.00391483
H        7.99163787       2.61641873      10.55419765       0.01363750       0.00205326      -0.00467861
H        8.02090757       1.07689482      10.76037308       0.02443275       0.00271919       0.00058709
O       10.07880341       8.19904964       3.86017940      -0.00628344      -0.00184852       0.00376290
H       10.05467811       7.84855376       2.94659200      -0.01191761      -0.00606941       0.00513111
H       10.06567601       7.38635019       4.40871231      -0.00825807       0.00015125       0.00669016
O        1.50469350       6.32747841       5.12178176      -0.00480580       0.00486920       0.00099789
H        1.50165894       7.18479141       4.61602715      -0.00597404       0.00571088       0.00186673
H        0.55932051       6.10446884       5.26058093      -0.00427660       0.00444498       0.00308561
O        3.35545130       5.23577839       1.16792700       0.00342092      -0.00442521       0.00754760
H        3.36759436       5.03940190       2.13380583       0.00338503      -0.00910027       0.00619249
H        4.19322827       5.71655560       0.98985002       0.00176988       0.00027866       0.00986993
O        9.84415342       8.97418798       7.13972196      -0.00318936       0.00356141       0.01101550
H       10.81494568       9.09769693       7.11480112      -0.00408713       0.00413526       0.00987514
H        9.52676622       9.45396335       7.91252573      -0.00262166       0.01086402       0.00850775
O        2.90274809      10.74525151       3.43770321      -0.00596308       0.00837237      -0.00445560
H        3.04583851      11.00330598       4.37014632      -0.00429701       0.00872621      -0.00485089
H        2.79051378      11.56147617       2.91963529      -0.00138846       0.00794534      -0.00646801
O        3.20979135       2.89333314       5.75779817       0.00895274      -0.00039965       0.00722507
H        3.98430636       2.38192509       5.44277499       0.00743291      -0.00463489       0.01076685
H        3.19505086       3.64316230       5.12087825       0.01281717       0.00012436       0.00666822
O        8.08222089       3.03663828       7.01485670       0.00256779      -0.00127193      -0.00469273
H        7.90880439       2.07763925       7.00749092       0.00441024      -0.00340769      -0.00676777
H        8.80293251       3.14811352       6.35874997       0.00173978       0.00003466      -0.00616139
O        7.39892918       6.04424968       2.88547704       0.00176710      -0.00809282      -0.00473894
H        8.29299367       6.33249644       2.64488450       0.00253060      -0.01779006      -0.02080576
H        7.45061554       5.08073214       3.06266532      -0.00492295      -0.00805157      -0.00575204
O        0.67337142       3.00817725       7.27500738       0.00583726      -0.00152866      -0.01584741
H        1.60443624       3.02088441       7.01862323       0.00745918      -0.00456994      -0.02297729
H        0.59714406       3.11316645       8.24657261       0.01169088       0.00375747      -0.01789656
O        8.16240245      11.64131983       6.84574194       0.00501938       0.00514305      -0.00964537
H        7.88207086      10.96440437       7.49958194      -0.00685202       0.01192097      -0.00843057
H        8.27479854      11.16945863       6.00136354       0.00251206       0.00189500      -0.00782257
O        1.15378950       9.36548106       7.11716042      -0.00243074       0.00449583       0.00322670
H        1.72492899       8.57067356       7.18322436      -0.00269167       0.00455709       0.00484832
H        1.67042257      10.03526982       6.63146305      -0.00269962       0.00265933      -0.00036020
O        5.31541377       8.44943984       7.32893951       0.00142124      -0.00682663       0.00363111
H        4.67616404       8.86623233       7.94838589      -0.00062180      -0.00937185       0.00394184
H        5.36480817       9.01538011       6.53107719      -0.00102933      -0.00592792       0.00390835
O       10.24970279       5.89117401       5.30650223      -0.00390649       0.00062373       0.00819990
H       10.07595160       4.97101038       5.05275833      -0.00339669       0.00120065       0.00589531
H        9.70483027       6.04337470       6.12109280      -0.00515297       0.00001894       0.00759834
O        2.57536627      -0.66259560      -0.05677141      -0.00311895      -0.00841744       0.00086701
H        2.79790304       0.14088410       0.51079110       0.00024543      -0.00435261      -0.00523272
H        2.94233241      -1.42209277       0.47225976      -0.00641640      -0.00677768       0.00605673
O        5.57066844       6.88832554       0.90871982      -0.00080205       0.00074604       0.00470749
H        6.17225121       6.63821503       1.63854047       0.00076986      -0.00163571       0.00296348
H        5.03918613       7.64844568       1.21841357      -0.00030845       0.00027636       0.00759909
O        3.65523163       8.88599940       1.49998943      -0.00771275      -0.00479104       0.00711682
H        2.86204856       8.30480815       1.41326343      -0.00620958      -0.00708074       0.00999810
H        3.53285457       9.38048832       2.33260122      -0.00814962      -0.00118438       0.00497827
O        5.67061465       1.75302880       1.76248655       0.00704867      -0.01367058      -0.01293842
H        6.07673225       2.44825490       2.31167722       0.00464500      -0.01627803      -0.00821389
H        6.20273019       1.74851293       0.95114058       0.00965535      -0.00818931      -0.01208327
O        5.79013392       9.68675864       4.88561049      -0.00340475       0.00063415       0.00516544
H        5.63511937       8.79042452       4.54264323      -0.00390956       0.00205539       0.00074016
H        6.74760270       9.82566022       4.77999969      -0.00377319       0.00144932       0.00206261
O        5.57627698       1.59152180       4.95121777       0.00423732      -0.01557928       0.01364980
H        5.48292644       0.86963092       4.31669179      -0.00026223      -0.01959282       0.01929583
H        5.66868867       1.16021503       5.82378929       0.00970355      -0.01218601       0.01509756
O        6.24946489       4.98636732       7.74396541      -0.03809497      -0.00869755      -0.02566487
H        6.68012624       5.34361826       8.52707714       0.03028499       0.00322882       0.03753179
H        6.87788517       4.31267838       7.40992403       0.02005579      -0.02638896      -0.00968469
O        1.61489904       7.25838990       0.71878542      -0.00533327      -0.01436944       0.01430079
H        0.80579714       7.24309188       1.25482322      -0.00190682      -0.00861014       0.01816928
H        2.10696026       6.42877993       0.91557905      -0.00361252      -0.01342206       0.01647169
O        7.60778850       8.31626320      11.00132913      -0.00564711       0.01265040       0.00134040
H        6.88386064       7.72103614      11.27573850      -0.00249094       0.00826700       0.00108047
H        8.37939325       7.74800186      10.79746622      -0.00222632       0.01722658       0.00270645
O        3.56297025       9.23677402       9.22104078      -0.00294760      -0.00594689       0.00015615
H        2.74437578       8.72407347       9.24636747      -0.00194784      -0.00286458       0.00738469
H        3.38145632      10.01728851       9.76440041       0.00419846      -0.00657780       0.00918113
O        2.46396459       3.28175199      -0.43430658       0.01351190       0.00753489      -0.01729088
H        3.03227192       3.20455770      -1.21663567       0.01531701       0.01096184      -0.01711269
H        2.80871662       4.04546998       0.08754244       0.01029308       0.00497244      -0.01243356
O       10.28212791       3.14650587       5.28896276       0.00088319       0.00117050      -0.00832558
H       10.39135151       2.23138344       4.92481276      -0.00360719       0.00213498      -0.00978438
H       10.97086966       3.20733489       5.98560816       0.00249080      -0.00181827      -0.00957564
O        7.27311005       3.35284439       3.44717171      -0.00502069      -0.01276329      -0.00453082
H        8.01050920       2.79222309       3.13585186      -0.00010624      -0.00823966      -0.00426182
H        6.87315130       2.89139235       4.20364670       0.00084345      -0.01260936      -0.00224145
O        5.47901680       6.77930220       4.67735273       0.00513864      -0.00239351      -0.00133216
H        6.29868959       6.54357738       4.19264335       0.00467423      -0.00294003      -0.00046324
H        5.66289486       6.66396198       5.61829597       0.00506294      -0.00154872       0.00023058
O        9.15516377       2.01650474       1.93820812       0.00820333       0.00124490      -0.00078648
H        8.62881618       1.95318927       1.10858777       0.00913270       0.00457309      -0.00249504
H        9.68000159       1.20429053       1.96191884       0.00000935      -0.00372720       0.00158368
