147
Lattice="12.95525578017647 0.0 0.0 0.0 12.95525578017647 0.0 0.0 0.0 12.95525578017647" Properties=species:S:1:pos:R:3:forces:R:3 energy=-120102.3203125 stress="-0.00039845341234467924 2.9891266422055196e-05 0.0001436122038285248 2.9891266422055196e-05 -0.00025062705390155315 -3.6754925531568006e-05 0.0001436122038285248 -3.6754925531568006e-05 0.0001356944121653214" pbc="T T T"
Ni      13.53976525      11.41164253       1.04407672      -0.00271192      -0.00435080       0.00184679
Cl       5.71950038      12.86480587       3.58981176      -0.00264013      -0.00442576      -0.01699278
O        5.92998262      11.72405398       2.63022423      -0.00094418       0.00366831      -0.00315297
O        4.31192769      13.01892949       4.10229997      -0.01617038      -0.00747533      -0.01037693
Cl       0.33751759      10.92079371       3.86815427      -0.00215262      -0.01992047       0.00213927
O       -0.06909286      11.90548131       2.61025230      -0.01880726      -0.02775189       0.00254345
O       -0.19397797      11.46327473       5.18045470      -0.03124946      -0.03843760      -0.00281632
C        5.48044078       3.73058210       4.94611098      -0.00056873      -0.00333035      -0.00134672
C        4.09010189       4.08564550       5.45714705      -0.00020701      -0.00245029      -0.00115290
C        6.44484676       4.91179272       4.97012256      -0.00002313      -0.00375789      -0.00170663
C        3.11538509       2.91443370       5.45382006      -0.00105395      -0.00171232      -0.00135976
C        7.85738493       4.53829744       4.54240223      -0.00041178      -0.00403407      -0.00257710
C        1.73119817       3.29780837       5.96048013      -0.00029734      -0.00076348      -0.00019830
H        5.89155031       2.91407792       5.55165303      -0.00082228      -0.00345840      -0.00112638
H        5.40714820       3.33779240       3.92622595      -0.00087180      -0.00359428      -0.00121325
H        3.68049479       4.90127545       4.84823060       0.00026609      -0.00208518      -0.00121033
H        4.17439294       4.48615880       6.47469696      -0.00004319      -0.00256553      -0.00126445
H        6.05921749       5.70668041       4.32276804      -0.00022581      -0.00372958      -0.00166345
H        6.46622514       5.33433472       5.98039398       0.00048026      -0.00379419      -0.00187078
H        3.04250186       2.50424858       4.44327245      -0.00198141      -0.00117482      -0.00153902
H        3.52272535       2.10412318       6.06612337      -0.00120775      -0.00238433      -0.00190601
H        8.26995618       3.76416066       5.19342011       0.00039667      -0.00310633      -0.00191049
H        8.53215639       5.39471030       4.57700526      -0.00062518      -0.00373805      -0.00419521
H        7.86919889       4.14831648       3.52259553      -0.00116676      -0.00522233      -0.00199348
H        1.77640277       3.66519836       6.98819683       0.00091327      -0.00068520      -0.00026137
H        1.29729944       4.09400482       5.35063392      -0.00021514      -0.00039345       0.00017391
H        1.04499559       2.45026424       5.93909676      -0.00108114      -0.00011536       0.00050987
C        9.51211598      10.09851283       4.83544408       0.00120369       0.00583270       0.00026667
C        9.82281691       9.41625059       3.51024078       0.00136986       0.00326365       0.00154269
C        9.00041689      11.52030461       4.64075445       0.00164067       0.00554231      -0.00349829
C       10.32113389       7.98590661       3.66085663       0.00128341       0.00350156       0.00438988
C        8.48884300      12.15886273       5.92317316       0.00213778       0.00866356      -0.00486407
C       10.50411351       7.29339466       2.31883575      -0.00651358      -0.00133397       0.00586027
H        8.75787741       9.50901331       5.37300607       0.00112695       0.00723845       0.00138433
H       10.41089227      10.11460229       5.46214144       0.00150850       0.00750927      -0.00061266
H       10.56884750      10.00324536       2.96257101       0.00130463       0.00203955       0.00036716
H        8.91860235       9.42009128       2.88968735       0.00145191       0.00210350       0.00158714
H        9.80548770      12.12918628       4.21942064       0.00225905       0.00386523      -0.00456503
H        8.20131210      11.50169620       3.89521699       0.00156713       0.00447384      -0.00312468
H       11.26816894       7.98928265       4.21164042       0.00394815       0.00508454      -0.00071168
H        9.61303634       7.42132132       4.27666514       0.00404215       0.00607838       0.01000462
H        7.70442786      11.54792831       6.37883488       0.00235260       0.00999615      -0.00289095
H        8.06114688      13.14508962       5.73587613       0.00194027       0.00839110      -0.00741165
H        9.28957105      12.27388543       6.65581735       0.00218353       0.01075561      -0.00557500
H        9.55632305       7.23218513       1.77925736      -0.00966558      -0.00347457       0.01180135
H       11.19881202       7.85474753       1.69220884      -0.01040770      -0.00333333      -0.00022257
H       10.89528257       6.27998350       2.42355039      -0.00586786      -0.00097969       0.00701392
C        1.74238356       8.18779694       9.46121911       0.00481410       0.00237763       0.00623140
C        1.69998517       9.57639587      10.08449883       0.00825632       0.00256133       0.00596058
C        2.24795022       8.17192184       8.02457653      -0.00041713       0.00186878       0.00438121
C        1.16290160       9.56594283      11.51244128       0.01073006       0.00425756       0.00669163
C        2.30919392       6.76780983       7.44309103      -0.00534388       0.00214526       0.00304970
C        1.28829969      10.92898684      12.21112751       0.00272395       0.00733542       0.00112030
H        2.37979365       7.53951554      10.07413239       0.00601803       0.00146446       0.00408119
H        0.74346425       7.73952638       9.49477768       0.00429013       0.00369839       0.00967824
H        1.09620515      10.24413712       9.46046936       0.00769928       0.00291063       0.00690646
H        2.71115067       9.99836537      10.09040758       0.00873721       0.00143188       0.00386473
H        1.60513503       8.80649128       7.40455985      -0.00150818       0.00345650       0.00709623
H        3.24395493       8.62271319       7.98784617       0.00037768       0.00002283       0.00094811
H        0.12055709       9.23153546      11.50736410       0.01277560      -0.00166869       0.00895762
H        1.70843489       8.80751716      12.08013237       0.01557887       0.00954279       0.00892095
H        2.96074297       6.12715503       8.04285410      -0.00480694       0.00021313       0.00029935
H        2.69483024       6.76885660       6.42328052      -0.00884037       0.00206239       0.00175342
H        1.32085179       6.30386409       7.42428747      -0.00651941       0.00446694       0.00602507
H        1.88126011      11.63643374      11.62935817      -0.00708261       0.01095802      -0.00434859
H        0.26705762      11.42746485      12.36532964      -0.00038254       0.00010034       0.00363284
H        1.85730748      10.82328047      13.21745116       0.00734389       0.01855303      -0.00074662
C       11.04644625       9.13771025       8.60671162       0.00109965       0.00207885      -0.00174630
C       10.17913782       7.89371202       8.74620554       0.00065947       0.00233056      -0.00244346
C       10.30771699      10.43732379       8.89784897       0.00074536       0.00217476      -0.00295824
C       10.94502326       6.59911934       8.49816921       0.00008553       0.00210751      -0.00371186
C       11.18537279      11.66616834       8.70103466       0.00120762       0.00192454      -0.00239943
C       10.07239883       5.35611083       8.58823490      -0.00089136       0.00256285      -0.00515144
H       11.90340712       9.05619882       9.28374977       0.00069994       0.00202579      -0.00141481
H       11.46430317       9.18067226       7.59427184       0.00139812       0.00189427      -0.00185508
H        9.33721860       7.95789016       8.04660595       0.00053838       0.00307250      -0.00215286
H        9.73885084       7.86684807       9.75025702       0.00081304       0.00152262      -0.00225881
H        9.42767261      10.50207704       8.25021833       0.00173837       0.00208158      -0.00397137
H        9.92967350      10.41284464       9.92542484      -0.00036887       0.00249081      -0.00326389
H       11.41785941       6.64677952       7.51171857      -0.00019781       0.00301632      -0.00386104
H       11.76291638       6.52315555       9.22199990       0.00006415       0.00098915      -0.00410530
H       12.03611245      11.64905861       9.38667072       0.00027640       0.00233178      -0.00149611
H       10.63315994      12.58941770       8.88504211       0.00089949       0.00206377      -0.00365449
H       11.58242666      11.70597753       7.68422235       0.00219682       0.00133329      -0.00194943
H        9.59492764       5.28066695       9.56828379      -0.00091846       0.00190744      -0.00532165
H        9.27882623       5.37752762       7.83793480      -0.00065242       0.00399584      -0.00516272
H       10.65141639       4.44516605       8.42990468      -0.00141892       0.00228320      -0.00608258
C        5.35054383       4.39265936      10.22587243       0.00046989      -0.00498044       0.00172535
C        6.52836514       3.45512493       9.99743632      -0.00026780      -0.00574979       0.00121510
C        5.00980380       4.56122644      11.70102539       0.00140503      -0.00444527       0.00197312
C        6.86929730       3.24528318       8.52862582      -0.00062880      -0.00550945       0.00114077
C        3.82783762       5.48627086      11.94300542       0.00146821      -0.00438040       0.00218197
C        8.03877478       2.29237717       8.32726133       0.00014055      -0.00455147       0.00090939
H        5.57143271       5.37343215       9.78696888       0.00095320      -0.00521737       0.00149571
H        4.47271704       4.01182377       9.68999006      -0.00002438      -0.00446233       0.00231627
H        6.31148034       2.48436406      10.45843104      -0.00089727      -0.00580567       0.00093967
H        7.40811485       3.84749228      10.52124964       0.00013158      -0.00663607       0.00120246
H        4.79779517       3.57739414      12.13201803       0.00169822      -0.00424883       0.00240025
H        5.89025122       4.93928801      12.23051962       0.00168437      -0.00414549       0.00117801
H        5.98567036       2.86505263       8.00552973      -0.00054243      -0.00631894       0.00148030
H        7.09704246       4.21365155       8.07136554      -0.00153334      -0.00548589       0.00098255
H        4.02069321       6.48649630      11.54731012       0.00145255      -0.00446160       0.00206219
H        3.60750392       5.58759664      13.00660038       0.00180589      -0.00422519       0.00227785
H        2.92840391       5.11081835      11.44955375       0.00134540      -0.00435697       0.00256328
H        8.92611579       2.64709937       8.85458629       0.00037917      -0.00281075      -0.00107728
H        7.80425529       1.29758371       8.71184717       0.00176991      -0.00424974       0.00262068
H        8.30060686       2.18467089       7.27402685      -0.00139647      -0.00590962       0.00056851
C        5.91742666      10.93119243       9.53904060       0.00198820       0.00350058       0.00076303
C        6.09841978       9.46672020       9.92395305       0.00111777       0.00362837       0.00169581
C        5.09006588      11.11824812       8.27292884       0.00481281       0.00273037      -0.00131780
C        6.96079926       9.26312139      11.16429810      -0.00009525       0.00384763       0.00254899
C        4.89933249      12.57265654       7.86714835       0.00717732       0.00261247      -0.00288443
C        7.13224973       7.79538316      11.53176095      -0.00077082       0.00380802       0.00283299
H        5.44755870      11.47083545      10.37007013       0.00027955       0.00395019      -0.00060570
H        6.90364854      11.39031303       9.39913831       0.00234687       0.00322331       0.00255228
H        6.54619473       8.92624461       9.08084554       0.00176249       0.00315042       0.00241157
H        5.11397371       9.00822164      10.08508824       0.00078368       0.00403798       0.00091080
H        5.56396581      10.56903547       7.45420755       0.00615050       0.00161105       0.00043043
H        4.11004602      10.65258619       8.41209887       0.00406539       0.00374074      -0.00290186
H        7.94127168       9.71699068      10.99116692       0.00009078       0.00351389       0.00332075
H        6.52042623       9.80417154      12.00761162      -0.00071479       0.00404245       0.00203305
H        4.39325828      13.13645885       8.65511064       0.00511836       0.00357100      -0.00500454
H        4.30613487      12.65543703       6.95514750       0.00994021       0.00226700      -0.00482541
H        5.85958738      13.05764487       7.67916633       0.00793810       0.00169057      -0.00046321
H        6.17296085       7.34256141      11.78793891      -0.00091872       0.00407808       0.00266196
H        7.54855407       7.22682523      10.69662621      -0.00060937       0.00362779       0.00307414
H        7.79708279       7.66692015      12.38755833      -0.00100026       0.00381203       0.00314790
C        2.20388528       7.97286553       2.22452142      -0.00242473      -0.00256610      -0.00019020
C        2.83092229       8.15652837       3.59981777      -0.00155459      -0.00031817      -0.00086546
C        1.27319077       6.76947769       2.13639276      -0.00256616      -0.00254697       0.00223762
C        3.87515672       9.26392601       3.65006323      -0.00188430       0.00027424      -0.00366727
C        0.65844888       6.58904534       0.75556098      -0.00292072      -0.00457021       0.00269058
C        4.47987811       9.43893287       5.03492249      -0.00019343       0.00219895      -0.00469971
H        1.64728752       8.88219706       1.95808758      -0.00235195      -0.00310418      -0.00170385
H        2.99894950       7.87630039       1.47458154      -0.00273022      -0.00414890      -0.00030059
H        3.29240285       7.21083357       3.91158478      -0.00093658       0.00046477       0.00022718
H        2.03931544       8.36072444       4.33272986      -0.00092515       0.00047036      -0.00054742
H        1.82921766       5.86714999       2.41481189      -0.00259712      -0.00213537       0.00351952
H        0.47960824       6.87691330       2.88335408      -0.00239357      -0.00119975       0.00229102
H        4.66772523       9.04934443       2.92666338      -0.00279990      -0.00041404      -0.00429699
H        3.43162960      10.21118864       3.33200022      -0.00253847      -0.00044924      -0.00433014
H        0.08263011       7.46920836       0.46729170      -0.00367588      -0.00535858       0.00191026
H       -0.01064369       5.72819774       0.71656280      -0.00220430      -0.00514190       0.00392376
H        1.42995348       6.44638118      -0.00221949      -0.00296685      -0.00479292       0.00262521
H        3.72525994       9.76771904       5.75262168       0.00040446       0.00191273      -0.00393540
H        4.90413015       8.50075746       5.40575443       0.00162830       0.00324108      -0.00455933
H        5.27507900      10.18502162       5.02388021      -0.00110741       0.00331724      -0.00652901
