149
Lattice="11.425549125253868 0.0 0.0 0.0 11.425549125253868 0.0 0.0 0.0 11.425549125253868" Properties=species:S:1:pos:R:3:forces:R:3 energy=-145667.0 stress="0.0019162703538313508 -1.1172878203069558e-05 -0.00040111906128004193 -1.1172878203069558e-05 0.003837303025647998 0.0006614897574763745 -0.00040111906128004193 0.0006614897574763745 0.002221244852989912" pbc="T T T"
Ni      11.42056129      10.45697998       0.14900103       0.00988789       0.00555418       0.00945258
O       -0.88387162       9.68899199      10.20136662       0.02175246       0.00713184      -0.00098204
H       -1.74888803      10.08458651      10.05095382       0.01493323      -0.00771178       0.00307222
O        3.63131499      11.27064848       2.07190848       0.00587443       0.00449741       0.00422785
H        3.60212501      10.76257329       2.90963672       0.00832168       0.00631169       0.00145753
O        1.81789551       1.69687012       3.39470965       0.00446112       0.01334195       0.00775075
H        2.49177695       1.25499148       2.84329789       0.00362851       0.01409736       0.00664625
H        1.10838213       1.97130330       2.76717624       0.00060711       0.00804527       0.00975752
O       10.50930795       1.48571050       7.81337720      -0.00618330       0.01347658       0.01021457
H        9.89338487       1.06928842       7.18096880       0.00026546       0.00773224       0.00470918
H       10.92229796       2.21222417       7.32939465       0.00781893       0.00375831       0.01025482
O        7.26999684       9.34643102       1.96008051       0.00130364       0.00213497      -0.01008855
H        7.68883920       8.70824215       1.35517747      -0.00130543      -0.00178069      -0.00846410
H        6.49031163       9.61338784       1.44023245      -0.00089953       0.00139803      -0.00926328
O        4.02248581       4.00198998       7.73372113      -0.00647749       0.00656015      -0.00042102
H        3.06755104       3.85966475       7.56026584      -0.00516418       0.00187787      -0.00048881
H        4.32465745       3.15195427       8.11955865      -0.00213122       0.00783162       0.00280427
O        7.60940073       9.99899897       9.59611346       0.01163322      -0.00769663       0.01074933
H        7.49403587       9.17131579      10.11006584       0.00835445      -0.00828815       0.00689603
H        6.87734762      10.04692067       8.93831177       0.00876184      -0.00067142       0.01144631
O        9.37012230       6.51777427       7.78696577      -0.00604598      -0.00951552      -0.00242356
H        8.46386138       6.21456388       7.99136478      -0.00798162      -0.00619970      -0.00323531
H        9.29629286       7.47921922       7.61458768      -0.00124941      -0.00847895       0.00111143
O       11.31425937       5.24211408       1.28599461       0.00581342       0.00335529      -0.00284892
H       10.87467844       5.48708631       0.44378555       0.00436894      -0.00211343      -0.00412458
H       12.26636289       5.40988298       1.17299519       0.00568619       0.00305038      -0.00521859
O        8.91653613       3.02399717       9.62726600      -0.00691757      -0.01411216      -0.00883627
H        9.62892381       2.50367330       9.20743679      -0.02584635      -0.01443399      -0.04010607
H        8.36031553       3.21529407       8.85308373      -0.02551852       0.01189149       0.01165533
O        9.66373487       5.72200095      10.52068931       0.00202432      -0.01657735      -0.00565884
H        9.34559088       4.82790260      10.29317595       0.00824559      -0.02019791      -0.00290693
H        9.85323141       6.11930605       9.65113621      -0.00291307      -0.01771115      -0.00776991
O       11.29177082       0.01833766       4.61491127      -0.00608573      -0.00788251      -0.00913823
H       10.54581966      -0.44472215       4.17434030      -0.01015426      -0.01209902       0.00005722
H       11.95089507       0.21762506       3.93083895      -0.01062581      -0.02088236      -0.01726343
O       11.06627769       2.52879552       1.91352706       0.00699443       0.00538522      -0.00174066
H       10.58159485       2.58628988       2.77339301       0.00109782       0.00289964      -0.00426002
H       11.14319538       3.45995161       1.60397500       0.00769153       0.00638875      -0.00008569
O        1.38542300       8.19710902       9.52445232       0.00000811       0.00457817       0.01434256
H        0.52541139       8.60971416       9.32587943      -0.00189286       0.00842443       0.02577574
H        1.63840204       7.55559619       8.82719581      -0.01234947       0.00095950       0.01315169
O        2.70497159       6.74727671       7.65433212      -0.02220090      -0.00806431       0.00906961
H        2.57573778       6.67189089       6.68656205      -0.01315728      -0.00477424       0.00625681
H        3.25725784       5.99130497       7.88766714      -0.02058740      -0.00494141       0.01049331
O        2.07755721       0.47986489       8.13566732       0.00584936      -0.00973219      -0.00237425
H        1.37446336      -0.13394102       7.83899722       0.00464725      -0.00878328      -0.00122614
H        1.66497591       1.06147264       8.82083234       0.00883649      -0.00703803      -0.00278498
O        3.20467499       0.89099337       5.67366410      -0.00151098       0.00553583       0.00113617
H        2.48990388       1.29356921       5.15422530      -0.00484654       0.00084350      -0.00039474
H        2.89012116       0.81434328       6.60071351      -0.00232685      -0.00173667       0.00074537
O        9.01747268      10.09436858       3.91884124      -0.00492267      -0.01953220      -0.00086212
H        9.24417577       9.16582570       4.05487167       0.00578716      -0.01967929      -0.01972867
H        8.45357474      10.07592751       3.11703686      -0.00278462      -0.00981947      -0.00207846
O        5.31040950       1.63911650       8.29773519       0.00192829       0.01475139       0.01061527
H        6.09551558       2.00165406       7.85264643      -0.00017567       0.01257674      -0.00189360
H        5.30676572       0.69937895       8.04098518       0.00163520       0.01336259       0.01713352
O        1.25320620       8.34694148       3.25697801       0.00364150       0.00125443       0.01265267
H        1.74021820       7.62792460       3.73051699       0.00519097       0.00281050       0.01349243
H        0.31739523       8.09533413       3.35085092       0.00318550      -0.00171987       0.01118963
O        0.98338239       2.24031225       9.87254342       0.01483312      -0.00261631      -0.00455791
H        0.22559255       1.75111781      10.23322518       0.00647485       0.00721970      -0.00940339
H        1.58750194       2.41485535      10.63276485       0.01047392      -0.00412618      -0.00066366
O        7.99572694       0.86716604      11.15191865       0.01044571      -0.00200277       0.00561598
H        8.04783149       1.64491835      10.55781034       0.00839924      -0.00490555      -0.00074065
H        7.67176864       0.11098026      10.61671933       0.01075723      -0.00662568       0.00920443
O       10.04546340       6.98734093       3.29161667       0.00089012       0.00002473      -0.00126026
H       10.44649486       6.46663788       2.56936390       0.00309043       0.00288197      -0.00135712
H       10.03872999       6.37163851       4.05736898      -0.00506361      -0.00404955      -0.00339458
O        2.54843560       6.61444320       4.87401143       0.00589061       0.00308391       0.00708364
H        3.53653445       6.65597330       4.80901005       0.00641039       0.00712199       0.00917346
H        2.37005630       5.68952655       4.60756713       0.00975743       0.00445256      -0.00167569
O        2.81790967       5.14801475       1.33596005      -0.00282663       0.00617942      -0.01190986
H        2.91320866       4.89507460       2.28280159      -0.00127428       0.00873943      -0.01083718
H        3.60369140       5.69576722       1.13373896      -0.00414654       0.00780917      -0.01355673
O        9.23718097       9.30041486       7.43180237       0.00378111      -0.00615502       0.00905117
H       10.18105297       9.54516400       7.47658357       0.00306377      -0.00552335       0.01174735
H        8.85280586       9.50260296       8.30854689       0.00049231      -0.00615532       0.00789088
O        3.23230252       9.89752017       4.41020661       0.00688419       0.00583099       0.00444372
H        3.07688988      10.69509176       4.95865970       0.00314465       0.00777152       0.00207134
H        2.38196168       9.50037096       4.13719000       0.00299394       0.00332653       0.00492887
O        2.84276594       4.15590960       3.84670089       0.00138602       0.01350632      -0.01091425
H        3.66680072       3.90533825       4.32045540       0.00063108       0.01168837      -0.00824303
H        2.39231603       3.29570004       3.70656228      -0.00079521       0.01393576      -0.00548346
O        7.61646885       2.75652775       7.13035513      -0.00885481      -0.00244274      -0.02020893
H        7.92790180       1.84820099       6.93399331      -0.00367856      -0.00020446      -0.00921620
H        7.64129004       3.18330171       6.25379000      -0.01273493      -0.01104981      -0.02575637
O        7.16098415       6.07124545       2.95263663      -0.00684860       0.00132681      -0.00876036
H        8.01206073       6.53935732       2.97361044      -0.00614889      -0.00194995      -0.00936706
H        7.33919838       5.19346049       3.34236051      -0.00926916      -0.00206197      -0.01226794
O        1.34547391       3.30370332       7.34933964      -0.00233717      -0.00826040       0.00065055
H        1.60441114       2.37611356       7.24929522       0.00698820      -0.00286093      -0.01795062
H        1.08435132       3.31222813       8.28883493       0.01080090      -0.02618936       0.00515902
O        8.48479077      11.69029514       6.30185663       0.01504130      -0.00616916       0.00450027
H        8.60409722      10.79481571       6.68862206       0.01387604      -0.00658623       0.00460894
H        8.49958286      11.51716407       5.34972090       0.00962437      -0.00568984       0.00413074
O        0.50385373       9.99995974       6.82801638      -0.00114363       0.00509632       0.00081658
H        1.08383087       9.27081821       6.58395534       0.00246511       0.00038280       0.00483048
H        0.31510623      10.48535308       5.98962692      -0.00104493      -0.00309102      -0.00112441
O        5.65668299      10.27627267       7.69623444       0.01133861       0.01440598       0.01982617
H        4.85713250       9.86922750       8.08821292       0.00661962       0.00784794       0.01536591
H        5.77096902       9.93899142       6.78994890       0.00893797       0.01530670       0.01443064
O        9.75829360       5.18832697       5.39005926      -0.01307210      -0.00537200      -0.00837792
H        8.86660871       4.84822716       5.21962562      -0.01432163      -0.00593861      -0.01051316
H        9.70648175       5.64228526       6.26203974      -0.01397888      -0.00911290      -0.00714847
O        1.19392780      -0.18451272       1.27593393      -0.00329277       0.00467369       0.02386960
H        2.71121805      -0.31146828       1.68828949       0.00256172       0.00672826       0.00819870
H        1.30337602       0.72417369       0.96732024      -0.00542123       0.00661567       0.02809579
O        5.20201126       6.68285231       0.94143929      -0.00586318       0.00734665      -0.00976793
H        5.80973448       6.51983788       1.68538233      -0.00882382       0.00584172      -0.00666669
H        4.99695733       7.63964890       0.94879877      -0.00435687       0.00764707      -0.00993335
O        4.85904025       9.43203491       0.50249359      -0.00194033       0.00561738      -0.00477782
H        4.53679297       9.59867203      -0.40300543      -0.00559047       0.00597098      -0.00358162
H        4.39446139      10.10627516       1.05134382       0.00027327       0.00535071      -0.00190414
O        7.29646435       1.46039246       2.61323670       0.01902899      -0.00739615      -0.02110559
H        6.38315619       1.16405884       2.66585598      -0.01652569      -0.01688918      -0.01241441
H        7.54115692       1.28682672       1.68990942       0.00242756      -0.00328372       0.00993393
O        5.80976647       9.26974741       5.00105320       0.00710057       0.01144814       0.02867091
H        4.90942881       9.44253956       4.65797122      -0.00361511       0.01131619       0.01552391
H        6.41056894       9.35128541       4.24883988       0.00843003       0.02252533       0.02890664
O        4.90814296       3.17895484       5.30807239      -0.01110332       0.00525662      -0.00266469
H        4.57336775       2.27151358       5.43519283      -0.01374713       0.00647172      -0.00302832
H        4.68611511       3.61866748       6.16617029      -0.00835337       0.00582252      -0.00233600
O        6.95504571       5.32385225       8.49987319      -0.02805054       0.02644624       0.00548416
H        6.13389402       5.79624520       8.66835007       0.01414093      -0.02278909      -0.01455153
H        6.69229988       4.54598047       7.99586207      -0.01470044      -0.01668480      -0.04156663
O        0.62636001       8.73850749       0.60173358       0.00722891       0.00591443       0.01439704
H        1.07754937       8.32442421      -0.16672256       0.00658317       0.00229712       0.01494803
H        1.16072094       8.66921309       1.42008693       0.00449705       0.00397311       0.01565351
O        7.62260579       7.65561497      11.12660041       0.00447831      -0.01246321       0.00100407
H        6.81441984       7.16244419      11.35440447       0.00075530      -0.00765859      -0.00059561
H        8.31066877       6.98383295      10.95184498       0.00106394      -0.01604505       0.00085342
O        3.59714265       9.85386931       9.37998178       0.00031008      -0.00390048       0.00343559
H        3.17150479      10.68616745       9.10011804      -0.00157877      -0.00384801      -0.00154390
H        2.84464252       9.22497049       9.41334841       0.00192402      -0.00388704       0.00486956
O        2.63869582       2.59057335       0.51563291       0.00307566       0.00055565       0.00269427
H        3.50871264       2.19927553       0.39755365       0.00541639       0.00139071       0.00242204
H        2.78630106       3.54314363       0.74701654       0.00162022       0.00169700      -0.00369379
O       10.11171870       2.56339806       4.42847365      -0.00751983      -0.00782669      -0.00994283
H       10.59424342       1.78890949       4.76629784      -0.00639619      -0.00337338      -0.00961682
H       10.35498536       3.34958367       4.94461786      -0.01470465      -0.00472249      -0.00550121
O        7.40862822       3.73796771       4.47972495      -0.01443557      -0.00644192      -0.02231000
H        7.71532093       2.98392054       3.94621739      -0.02351979      -0.00851187      -0.02555985
H        6.46373833       3.54265726       4.68740935      -0.01456381      -0.00104937      -0.01565850
O        5.23290845       6.54715729       4.98932053       0.00810772       0.00833980       0.00435187
H        5.82808323       6.34293603       4.24648066       0.00791740       0.01247212      -0.00026613
H        5.48655383       7.46557822       5.19773486       0.00942747       0.00992360       0.00883260
O       10.55037531       0.69731104      -0.01274108       0.01096283       0.00540075      -0.00158423
H        9.54286323       0.66030475      -0.13044163       0.01172510       0.00238509      -0.00063492
H       10.69904991       1.28493055       0.77659770       0.00911219       0.00889929      -0.00343075
