150
Lattice="11.587479122753031 0.0 0.0 0.0 11.587479122753031 0.0 0.0 0.0 11.587479122753031" Properties=species:S:1:pos:R:3:forces:R:3 energy=-167225.3125 stress="0.00041076214984059334 0.00015587249799864367 0.0008302173519041389 0.00015587249799864367 -2.5258150344598107e-05 -0.0005723464710172266 0.0008302173519041389 -0.0005723464710172266 -0.0011544491862878203" pbc="T T T"
Ni       9.95637681      11.04154293       0.63163135      -0.00171317      -0.00537831      -0.00613189
O        7.46965103       4.63202598       2.79646650       0.00099331      -0.00621378       0.00486982
O        8.70272521       6.73121981       1.47685424      -0.00488946      -0.00263599      -0.00028867
O        5.99556607       6.67765568       2.04197718       0.01363516      -0.01648277      -0.00136524
O        6.97268720       5.02752686       0.23328345      -0.00611880      -0.01388425      -0.01339865
Cr       7.23232114       5.73570995       1.64854305      -0.02051866       0.02580041       0.02737966
Cr       9.17105727       8.30655293       2.14646968      -0.03026362       0.00688815       0.00200087
O        9.43678653       9.40689291       0.92567332      -0.00877658      -0.00268328      -0.00342643
O        7.95171131       8.83369400       3.02876547      -0.00798106      -0.00163853      -0.01210135
O       10.46581851       8.18719862       3.07348443      -0.00823653       0.00444044       0.00831246
N        8.69693334       6.36113947       5.18161599       0.00331417      -0.00122501       0.00227425
H        9.28886688       5.74488589       4.63279507       0.00535864       0.00414906       0.00428298
H        9.04026426       7.30143052       5.00559360      -0.00622136       0.00166297       0.00060551
H        7.78335140       6.31076697       4.74378307       0.00049245      -0.00793766       0.00099851
N        3.80312208       3.27753291       0.84908457       0.01140632       0.00958351      -0.01150572
H        3.51143160       3.02778076       1.78709111       0.00377113       0.01803505      -0.00671455
H        4.74617990       2.94447138       0.70563846       0.00522554       0.00476895      -0.00327382
H        3.17070025       2.86095663       0.16859825       0.00825271       0.00613953      -0.00735080
N       10.54177001       1.20792123       0.45883597       0.00410515      -0.00802553      -0.00779808
H       10.96585246       1.41882774      -0.44037870       0.01074025      -0.01371436      -0.00658260
H       11.27822071       1.40122788       1.19303553       0.00183541      -0.00940584      -0.00427899
H        9.81113576       1.90644304       0.57930760       0.00681801      -0.00623658      -0.01408715
N        9.37164229      11.58298110       3.83975938       0.00597191      -0.00019278       0.00145690
H        8.42703579      11.94992946       3.79303927       0.00562584       0.00051174       0.01491895
H        9.29099489      10.65018969       4.23864001       0.01279704       0.00322266       0.01206628
H        9.65076594      11.44547695       2.86422644      -0.01066606      -0.00805060      -0.00143719
N        3.05146269       6.76300305       2.79915974      -0.00348706      -0.01112825       0.00024636
H        4.03921415       6.76191717       2.55433698       0.00600061      -0.01826057      -0.00135911
H        2.84474335       7.67871739       3.17823798       0.00890505      -0.01766470       0.00633258
H        2.57349149       6.70375034       1.89925440       0.00269699      -0.00227336      -0.00115243
N        5.88162722       2.87646682       8.25676044      -0.00421135       0.01328655       0.00902080
H        5.65639323       3.72765879       7.75014511       0.00131795       0.01644373       0.01167603
H        6.80255078       3.02796652       8.66980774      -0.00706628       0.00921523       0.01570776
H        5.23423483       2.85655149       9.03811150      -0.00958379       0.01157937       0.00441599
N        3.02453350       9.64363764      -0.22850005      -0.00333557       0.02163079      -0.00952096
H        2.47631277      10.05788277       0.51972763       0.00071895       0.01414806      -0.00315356
H        4.00425507       9.83243686      -0.01058650      -0.00127816       0.02312356      -0.01361510
H        2.89412048       8.64023251      -0.12774884       0.00102738       0.02116740      -0.01466896
N        6.16497945       6.79493685       7.12127571       0.00428329      -0.00390353       0.00514892
H        6.10194340       7.19812788       8.05193980       0.00396989      -0.00467424       0.00232047
H        5.84051654       7.48516888       6.44505396       0.00256371      -0.00204371       0.00291991
H        7.14670802       6.63486713       6.91640078       0.00388607      -0.00244208       0.00239949
N        1.61905997       2.91014751      10.18034655       0.00332599      -0.00962390      -0.00194391
H        1.50875505       2.05823714       9.63324739       0.00029038      -0.01542073       0.00636217
H        1.90064629       3.65418094       9.55072308       0.00396897      -0.01712497      -0.01011962
H        0.72952791       3.17614124      10.58608413       0.00474271      -0.00469145      -0.00410256
N        1.96878761       8.45046649       5.88569485       0.00030558      -0.00652933      -0.00086901
H        1.51855888       8.57853355       4.98455471       0.01471888      -0.00440694      -0.00687465
H        1.51314925       7.63667988       6.28843505       0.00209732      -0.01230693      -0.01350534
H        2.91818342       8.14840672       5.68082357       0.00779764       0.00413892       0.01243443
N        6.26712395       7.67167456      10.28981628       0.00585895       0.00036507       0.00264582
H        5.88786652       6.73772280      10.40638035       0.01297873       0.00302275       0.01016068
H        5.69880062       8.30307489      10.84713008      -0.00276871       0.00398557      -0.00092105
H        7.17007011       7.64302779      10.75449991       0.00372198       0.01603289       0.00486881
N        3.17966311       6.10451495      -0.11464758       0.00127402       0.00795689      -0.00802202
H        3.36698338       5.15316637       0.22190201       0.01192591       0.01074296      -0.00663213
H        4.06041262       6.59394829      -0.00884636      -0.00102526       0.01839787      -0.00715700
H        2.95647947       6.05224277      -1.10893963       0.00212785       0.00664482      -0.00490978
N        6.24553907      10.22746354       0.52893980      -0.01301582       0.01421501      -0.00724765
H        6.24652766      11.14634937       0.96200059      -0.01295491       0.00696826       0.00514653
H        6.90896366      10.27112028      -0.24172164      -0.01672515       0.02096516      -0.00645283
H        6.64954986       9.61000137       1.22787273      -0.00993086       0.00421840      -0.01221612
N        1.27538273       9.98412096       2.64970983      -0.01120818      -0.01216587      -0.01616304
H        2.17628679       9.93500797       3.11184661      -0.00958253      -0.01443287      -0.00760009
H        1.06840731       9.10380426       2.18570282       0.00122799      -0.00320975      -0.03100295
H        0.56540105      10.09595836       3.36406766      -0.01420176      -0.02656693      -0.02078523
N        4.95835692       0.62121649       2.44958633      -0.01112968       0.00899858       0.00849955
H        4.39401910       0.59532548       1.60754778      -0.00928262       0.00372132       0.00766304
H        4.50236909       1.28727446       3.06322755      -0.00803507       0.01751733      -0.00050658
H        4.84909114      -0.28638486       2.88868415      -0.01930252       0.01388574       0.01927635
N        8.39786651       2.95171716       6.34306209       0.00096280      -0.00817152       0.01217682
H        7.48204108       2.51945046       6.41497034      -0.00110561      -0.00057222       0.02598285
H        8.51173973       3.22981372       5.37504579      -0.01171220      -0.00856459       0.01043557
H        8.32885362       3.81816875       6.86587218       0.01562012      -0.00817120       0.01306944
N        1.59558671       0.02230903       8.73059596      -0.00906656      -0.02651650       0.02441888
H        0.70664650      -0.44472611       8.58952972       0.00181434      -0.03628350      -0.00079454
H        2.12063995      -0.53416941       9.40351952      -0.01881989      -0.02518964       0.03447818
H        2.08817225      -0.05331307       7.84822253       0.01477126      -0.01659536       0.03814751
N        0.45803448       5.97027679       4.49573315      -0.00643136       0.00417392      -0.00301579
H       -0.04212725       6.78479558       4.14669312      -0.00193216       0.00043899      -0.00723628
H       -0.00687495       5.16961422       4.06310257      -0.00433619       0.00051972       0.00112085
H        1.39463378       6.03312908       4.10530510      -0.00271839      -0.00085368      -0.00295712
N        2.67179408       3.52259852       3.75748438       0.00094062      -0.00061947      -0.00916664
H        2.50966940       4.40829735       3.28394780       0.00724002       0.00836542       0.00350620
H        3.49033291       3.70356871       4.34028448      -0.00411500      -0.01086516       0.00137287
H        1.88300193       3.37555481       4.37787964      -0.00352567      -0.01103052      -0.02104597
N       11.86349086       7.85978861      -0.05585113       0.02177714       0.02007133       0.00328097
H       12.09036411       8.76049834      -0.46046514       0.02129718       0.00735521      -0.02441235
H       10.98085470       7.57701263      -0.47288549       0.01783460       0.01287957       0.02287613
H       12.58483508       7.21122059      -0.35800721       0.01712808       0.00865906       0.01149774
N        2.19268033       6.17928867       8.53147536      -0.00463963      -0.00386953      -0.00256631
H        2.67762151       5.48947996       7.96443993      -0.01249848      -0.01193304       0.00051104
H        2.57566810       7.09332834       8.32764048       0.00176077      -0.00810549      -0.01247943
H        1.21682720       6.17441351       8.24503451      -0.00502151       0.00159846       0.00243564
N        3.61324644      10.99063744       5.30182054      -0.01825199       0.00302580      -0.00352854
H        3.26037762      11.93894980       5.33882086      -0.02887219      -0.00320523      -0.02245220
H        4.50127028      10.97758866       5.78799068      -0.02253225       0.02072114       0.00687322
H        2.98116852      10.38051485       5.81687691      -0.01657226       0.00310394       0.00008211
N       10.90673172       5.39931737       7.24498384      -0.00055775      -0.00661621       0.00213856
H        9.97707455       5.60269797       6.87991451      -0.00080974      -0.00586736       0.00278255
H       10.89626513       4.42336867       7.52023758       0.00134105      -0.00694919      -0.00071280
H       11.50823492       5.47994384       6.41650622      -0.00085960      -0.00304591       0.00229295
N        5.12324675       4.81615897       4.96382330       0.00072718      -0.00762645       0.01284296
H        4.58407323       5.51878679       4.46584948      -0.00089419      -0.01037768       0.00603431
H        5.50591778       5.29305529       5.78191307      -0.00307748       0.00020370       0.01031867
H        5.89823087       4.57950919       4.34970390       0.00153881      -0.00656462       0.01733038
N        0.89975513       1.42103224       2.48150115       0.00202960      -0.00966980      -0.00589716
H        0.49269646       1.40571197       3.41480604       0.01324482      -0.00142625      -0.00117894
H        1.71127060       2.02840946       2.57261550       0.00528783      -0.01222540      -0.02161194
H        1.22799795       0.47144036       2.30545433      -0.00409404      -0.01256569      -0.00265776
N        9.96014128       0.59995234       8.50771092      -0.00273030      -0.01057063      -0.00905971
H        9.51097801       0.29642666       9.36674720      -0.00203411       0.00287838      -0.00418928
H        9.32692812       1.24735692       8.04263314       0.00586741      -0.00322518      -0.00965758
H       10.77736837       1.14009277       8.76956264       0.00971496      -0.02571194      -0.01845073
N        5.39451231       8.57738733       4.49788367      -0.01073112       0.00194351       0.01616000
H        6.25381473       9.11584736       4.43405747      -0.00346778      -0.00921185       0.01149170
H        4.64851535       9.21802702       4.24652534      -0.00146775       0.00257608       0.01970542
H        5.48766834       7.90064570       3.74451754      -0.01556607      -0.00299868       0.00846609
N        2.95922469       3.25571279       7.17887359       0.00430944       0.00597256      -0.00774702
H        2.09735584       2.98238715       6.72198465       0.01038316      -0.00038364      -0.01503381
H        3.31688708       2.44313293       7.66429128       0.01343747       0.00711745      -0.01488463
H        3.63574526       3.49380767       6.45883906       0.00509512       0.02076234      -0.00381821
N        7.69018910      10.19438323       9.18190903      -0.00283151       0.00490565      -0.00270720
H        8.61858644       9.82165939       9.02505658      -0.00213075       0.00156835       0.01587720
H        7.45676641      10.75033311       8.36891110       0.01230019      -0.00301924      -0.01118702
H        7.05683314       9.39765845       9.20657745      -0.00513180       0.00538458      -0.00590660
N       10.01330786       9.26446314       6.48988044       0.00891081       0.02415487       0.00360148
H        9.87893677      10.10419896       7.04514608       0.04111337       0.01927391       0.01840686
H       11.00428298       9.05501910       6.51952294       0.00162235       0.00011010      -0.02431378
H        9.54748122       8.49883431       6.96282287       0.00134929       0.02928369       0.00456767
N       10.89620490       4.67364685       0.10655359       0.00488277       0.00499164      -0.00831148
H       10.17305931       5.25004104       0.53328858       0.00742884       0.00040203      -0.00132899
H       11.20869127       5.21013589      -0.69732370      -0.00237607       0.00720124      -0.00971331
H       11.67762418       4.69972405       0.75581959       0.01123737       0.00367181      -0.01448618
N        8.36361834       3.04325167      10.16185935      -0.00503063       0.00179953       0.00774737
H        9.31427228       3.28504844      10.42492666      -0.00072072      -0.00468215      -0.00232144
H        8.24405959       2.04922574      10.31390894      -0.00389487      -0.00658533       0.00833846
H        7.75950233       3.53869743      10.81653360       0.00386323      -0.00386448       0.00561718
N        9.14799562       6.57696737       9.60349488       0.00405274       0.00294807       0.00768508
H        8.66703543       5.76406355       9.97585832       0.00168966       0.00955993       0.00965813
H        9.85231855       6.24033022       8.94949130       0.00206566      -0.00206199       0.00562154
H        8.45383583       7.06844640       9.05119198       0.00661886       0.00673133       0.00569299
N       11.51631892       1.24543168       5.56630986       0.00949373      -0.00577312      -0.00207478
H       11.09886026       1.60096633       6.41885969      -0.00471103       0.02160896      -0.02255701
H       12.10012696       0.46660956       5.85189321      -0.00962824      -0.00585592       0.03120652
H       10.72985275       0.82669486       5.04713241       0.01471597      -0.00845524      -0.00879617
N       10.26993155       3.60745860       3.35285942      -0.00248513      -0.00065576      -0.00252073
H       10.28266783       2.86919654       4.04722118      -0.00901964      -0.00960672      -0.00682709
H       10.75039440       3.23060616       2.54487211      -0.00030953       0.00054283      -0.00243019
H        9.30577117       3.78895366       3.08355800       0.00267719       0.00463878      -0.00198235
