142
Lattice="12.69990163734643 0.0 0.0 0.0 12.69990163734643 0.0 0.0 0.0 12.69990163734643" Properties=species:S:1:pos:R:3:forces:R:3 energy=-162253.390625 stress="0.0006447448395192623 0.0005153091333340853 0.00010324881804990582 0.0005153091333340853 0.000368347653420642 5.031786349718459e-05 0.00010324881804990582 5.031786349718459e-05 0.0006698427605442703" pbc="T T T"
Ni      12.43261497      12.43880333       2.15848319       0.00282240      -0.00448242       0.03648103
S       12.08338933      10.83557168       5.49087744       0.00012976       0.01409674      -0.02613294
N       10.94406528      12.74105095       7.23306683      -0.03580284      -0.01147473      -0.00106907
C       11.41751171      11.93690958       6.51611945      -0.01082240      -0.01814103      -0.02730486
S        3.90258373      11.99619284       0.70528294      -0.01869583      -0.03000084      -0.03450572
N        1.20246324      11.97426178       1.38236005      -0.00254154      -0.01197138       0.02625620
C        2.35198776      11.97514026       1.09308249      -0.00933194      -0.01958194       0.00028965
O        8.39931220       9.58844213      10.07078005      -0.00196034       0.00118177       0.00351227
O        6.47799476       8.69121334      10.44965443      -0.00339402       0.00500971       0.00744871
O        6.57682247      10.93623083      10.15460369      -0.00004375       0.00386429      -0.00027911
C        9.25077958      10.74334440       9.84384592      -0.00118661      -0.00042728      -0.00105949
C       10.58507786      10.22550147       9.38474156      -0.00009885      -0.00432329       0.00628988
C        7.10095140       9.85032772      10.21525091      -0.00205296       0.00332665       0.00314604
C        5.04331621       8.77316921      10.51577329      -0.00371636       0.00742786       0.00809573
H        8.78966790      11.38761809       9.09645967       0.00179002      -0.00484225      -0.00673872
H        9.31974531      11.29608958      10.78522812      -0.00374161       0.00550210      -0.00422162
H       11.29042168      11.04996519       9.29987844       0.00075563      -0.00533667       0.00314397
H       10.97446304       9.48426740      10.08412071      -0.00286821      -0.00039475       0.01213117
H       10.48774917       9.78388684       8.39566834       0.00167937      -0.01063950       0.00891525
H        4.73210173       9.36919795      11.37257118      -0.00159466       0.02100018       0.00045699
H        4.70242892       7.74751713      10.61329679      -0.00480925       0.00974315       0.02254756
H        4.66298246       9.22166260       9.60151492      -0.00353187      -0.00445646       0.00219414
O        3.32876634       3.41648052      11.10348765      -0.00008443       0.00151417      -0.00299530
O        1.66016673       4.69501579      11.58984891      -0.00036366       0.00068536      -0.00101821
O        3.66995533       5.65412985      11.18591417      -0.00053173       0.00161016      -0.00023386
C        4.73329678       3.22341966      10.79033268       0.00005626       0.00244391      -0.00337964
C        4.90905979       1.77993299      10.40617174       0.00058857       0.00307417      -0.00572082
C        2.96416703       4.67889730      11.28271340      -0.00029594       0.00141454      -0.00133201
C        1.12744291       6.00444665      11.82652560      -0.00043288       0.00037310       0.00114685
H        5.00618145       3.90842896       9.98876615      -0.00024603       0.00380805      -0.00236660
H        5.31950583       3.49536489      11.66927131       0.00008103       0.00121431      -0.00291222
H        5.96384429       1.58198518      10.21583867       0.00074425       0.00385359      -0.00607017
H        4.56497783       1.11550958      11.19891640       0.00073255       0.00152606      -0.00678039
H        4.34775880       1.55110913       9.50058912       0.00063407       0.00430391      -0.00604442
H        1.61227313       6.46570190      12.68603430       0.00131558      -0.00000000       0.00049120
H        0.06905765       5.85069992      12.01256846       0.00001320      -0.00036705       0.00347794
H        1.27645231       6.63947242      10.95366115      -0.00266223       0.00112763       0.00129175
O       10.14437997       7.49890752       5.55898610       0.00001380      -0.00060898      -0.00328218
O        9.32472728       8.92684155       4.16264622      -0.00104732       0.00013164      -0.00247923
O        8.93360626       9.22986191       6.37544745       0.00684905       0.00345594      -0.00145018
C       10.40352449       7.09072776       6.91674794       0.00295863       0.00132519      -0.00320113
C       11.36606672       5.93338074       6.86794369      -0.00581512      -0.00608394      -0.00356503
C        9.41948884       8.61918367       5.45721978       0.00234032       0.00114280      -0.00261062
C        8.69403966      10.18949096       3.90140581       0.00125149       0.00172449      -0.00136401
H       10.82212945       7.94029105       7.45489220       0.01154760      -0.00008398      -0.00740623
H        9.45603796       6.82496724       7.38986528       0.00298959       0.00973995       0.00187384
H       11.59962769       5.61137774       7.88334333      -0.00322672      -0.00335359      -0.00314613
H       10.94351330       5.08522191       6.33071858      -0.01537980      -0.00519089       0.00243163
H       12.29221297       6.23229302       6.37732441      -0.00589672      -0.01526903      -0.00954150
H        7.61961034      10.11768102       4.07153914       0.00146338       0.00420215       0.00131992
H        8.89346091      10.40032280       2.85428549      -0.00071816       0.00103371      -0.00194609
H        9.14196442      10.95704477       4.53128125       0.00434865       0.00080851      -0.00235534
O        2.91634608       8.59886233       2.68725785       0.00436860      -0.00512750       0.00054593
O        4.69063951       8.51590167       1.46523117       0.00746145      -0.00500168       0.00503337
O        4.75763992       9.73031835       3.37364437      -0.00168389       0.00584000      -0.00120407
C        2.19954149       9.01767173       3.87793000       0.00120968      -0.00303933      -0.00198192
C        1.01577346       8.10167666       4.02599418      -0.00259516       0.00088301      -0.00771529
C        4.16855282       9.02589193       2.58835603       0.00283414      -0.00089270       0.00102288
C        6.04482555       8.90837281       1.22303275       0.00616971      -0.00022170       0.00551745
H        2.87707339       8.94632413       4.72817283      -0.00227356      -0.00643510       0.00068748
H        1.90149729      10.06014582       3.75368544       0.00580171      -0.00171888      -0.00229687
H        0.45625628       8.37946592       4.92044659      -0.00515212       0.00116038      -0.00922337
H        0.34309522       8.18324575       3.17284037       0.00077632       0.00495712      -0.01007725
H        1.35052464       7.06881591       4.11578250      -0.00648940      -0.00048804      -0.00844005
H        6.10188000       9.98897677       1.08904140       0.00303003       0.00042480       0.00895021
H        6.33371436       8.39886365       0.30911687       0.00723414       0.00335580       0.00375611
H        6.68302713       8.60642467       2.05268335       0.00751434      -0.00091030       0.00437316
O        9.41250100       0.74709595       1.73786950       0.00569434      -0.00126758       0.01043260
O       11.10988221       0.66643486       3.12647902       0.00050032       0.01263763       0.01895098
O       10.20874134       2.67901658       2.60295189      -0.00044532       0.00664520      -0.00178739
C        8.36120639       1.51158893       1.05668312       0.00799590      -0.00677031      -0.00010922
C        7.30586341       0.55042663       0.59338003       0.01142934      -0.01047817      -0.00099864
C       10.22128279       1.49144854       2.46132229       0.00179853       0.00538683       0.00807132
C       11.85523063       1.35791623       4.19891664      -0.00702399       0.02307650       0.01702467
H        7.97060549       2.23451662       1.76997348       0.00303784      -0.00307381      -0.00641987
H        8.83550144       2.04986221       0.23554290       0.01209027      -0.01077420      -0.00052437
H        6.48652897       1.11883313       0.15183449       0.01520817      -0.01347171      -0.01217918
H        7.67205966      -0.14436823      -0.16217958       0.01757330      -0.01592742       0.00691371
H        6.89777540      -0.01011383       1.43449219       0.00432154      -0.00432423      -0.00026959
H       12.35533393       2.22109661       3.77269526      -0.01231871       0.02466621       0.01420362
H       12.54155049       0.60225008       4.56967949      -0.00232001       0.03013840       0.02241433
H       11.14406054       1.62994064       4.97450154      -0.01148924       0.02124175       0.01372465
O        7.68148366       3.66863728       3.79921163      -0.00287741       0.00103247      -0.00313886
O        6.86167860       1.71816847       4.21684933       0.00195090      -0.00054976      -0.00042778
O        8.07872759       2.74636135       5.83180235       0.00438589       0.00229332      -0.00383723
C        8.57971934       4.76952937       4.12572408      -0.00522728       0.00366309      -0.00481659
C        8.68840776       5.62888075       2.89794589      -0.00969900       0.00393522      -0.00509614
C        7.59345096       2.72426030       4.72952001       0.00135046       0.00114708      -0.00271082
C        6.57712129       0.65301548       5.13982690       0.00662332      -0.00091574       0.00063756
H        8.15851942       5.31546961       4.96716472      -0.00511548       0.00248936      -0.00393277
H        9.53954866       4.33762659       4.40572957      -0.00346017       0.00632682      -0.00665016
H        9.36290236       6.45888132       3.10593733      -0.01134902       0.00571385      -0.00621454
H        9.08135323       5.05350233       2.06044511      -0.00948427       0.00487788      -0.00577058
H        7.71488366       6.04289288       2.63276373      -0.01122907       0.00139268      -0.00356108
H        7.49585358       0.25620320       5.56778471       0.00839362       0.00238743       0.00009975
H        6.06105131      -0.10085752       4.55218180       0.00851959      -0.00322299       0.00142545
H        5.93450490       1.01637594       5.94155750       0.00602444      -0.00263429       0.00098261
O        3.85875855       5.03405001       4.18040082      -0.00381685      -0.00007536       0.00186333
O        3.38656045       6.38093556       5.80910141      -0.00502172      -0.00247318       0.00353953
O        3.66158520       4.18280820       6.27026906       0.00606695      -0.00148237       0.00244355
C        4.06439326       3.68648886       3.68231743       0.00049697       0.00109138       0.00053936
C        4.45543407       3.77736241       2.23292144      -0.00154573       0.00384992       0.00001636
C        3.64256361       5.10457776       5.49117342      -0.00035128      -0.00120050       0.00259846
C        3.00847297       6.57941491       7.18172912      -0.00067012      -0.00398421       0.00514562
H        4.83716895       3.20810444       4.28002222       0.00295469       0.00333115      -0.00080812
H        3.13483719       3.13013211       3.82086197       0.00248277      -0.00239389       0.00115664
H        4.55083032       2.76774406       1.82936580       0.00287694       0.00457211      -0.00090107
H        3.70124295       4.31014252       1.65412663      -0.00463364       0.00077893       0.00109489
H        5.41154044       4.28745278       2.12318751      -0.00403647       0.00839861      -0.00064953
H        2.08771823       6.03838508       7.39745388       0.00229588      -0.00783780       0.00865250
H        2.85420230       7.64937906       7.28087681      -0.00468796      -0.00457773       0.00575207
H        3.79362268       6.24656817       7.85651953       0.00322625      -0.00083686       0.00224362
O       10.02204858       3.46860210      10.95862998       0.00282791      -0.00169665      -0.00420017
O        9.28139716       5.34995036      11.71445747      -0.00079171      -0.00297250      -0.00378377
O        7.80470138       3.89826291      10.80277721       0.00126576      -0.00731230      -0.00055218
C        9.83435007       2.22912962      10.21449625       0.00488973      -0.00113396      -0.00552151
C       11.08122808       1.41126143      10.38545298       0.00624505       0.00019978      -0.00682685
C        8.92957326       4.20602612      11.12333336       0.00126237      -0.00411162      -0.00245231
C        8.19579351       6.27583536      11.90372517      -0.00283569      -0.00531274      -0.00261644
H        8.94352465       1.72711196      10.59486802       0.00566098      -0.00324172      -0.00632596
H        9.65873027       2.48230690       9.16773270       0.00418655      -0.00021367      -0.00523382
H       11.02297594       0.54955699       9.72246383       0.00805231       0.00237572      -0.00996608
H       11.95729369       1.98720193      10.09146398       0.00601985       0.00303796      -0.00253768
H       11.20772334       1.08556562      11.41937635       0.00509490      -0.00372270      -0.00784650
H        7.78299531       6.58413073      10.94656827      -0.00487350      -0.00647470      -0.00215423
H        8.63594903       7.12826220      12.41175772      -0.00410360      -0.00409754      -0.00338653
H        7.41416989       5.82651809      12.51450456      -0.00102171      -0.00700130      -0.00129731
O        5.80114718       8.28954040       7.40249552       0.00080150       0.00031888       0.00222698
O        6.39325519       6.31508365       8.05041862       0.00248890       0.00065826       0.00290999
O        6.76518358       6.90112957       5.89481985       0.00039843       0.00000748       0.00222909
C        5.65213414       9.28191008       6.35297361       0.00120002       0.00001675       0.00163737
C        4.83284049      10.41435190       6.91101521      -0.00050670      -0.00053340       0.00035450
C        6.36443839       7.15110424       7.00708328       0.00104073       0.00033793       0.00257719
C        6.87926346       4.99543260       7.73922317       0.00266802       0.00070301       0.00266692
H        6.65069721       9.60462672       6.06194314       0.00140828       0.00067991       0.00269141
H        5.17492688       8.81062137       5.49696389       0.00250614      -0.00065333       0.00112516
H        4.66094807      11.14368881       6.11946039      -0.00005006      -0.00076859      -0.00008553
H        3.85714884      10.06557419       7.25320855      -0.00071864      -0.00143954      -0.00102298
H        5.33914113      10.90216721       7.74436845      -0.00203928      -0.00006384       0.00105476
H        6.18568489       4.49297811       7.06690001       0.00189206       0.00021933       0.00372091
H        6.93982562       4.47690922       8.69029661       0.00401642       0.00094897       0.00281331
H        7.85917651       5.04297251       7.26977054       0.00210196       0.00102358       0.00130278
