147
Lattice="12.936699214875961 0.0 0.0 0.0 12.936699214875961 0.0 0.0 0.0 12.936699214875961" Properties=species:S:1:pos:R:3:forces:R:3 energy=-113566.796875 stress="8.740814519114792e-05 -0.0001750549636199139 -0.00021295081387506798 -0.0001750549636199139 0.00012173321010777727 -0.00025069343973882496 -0.00021295081387506798 -0.00025069343973882496 0.00042450233013369143" pbc="T T T"
Ni      12.92525693      11.91073702      -0.28710351      -0.02310261      -0.00676355       0.00499547
S        4.45479419      13.41887229       6.07556609       0.00307012       0.01306415       0.01065361
N        6.35407719      11.43132044       5.42060706      -0.00958014       0.00285149       0.00681144
C        5.55475526      12.25805653       5.68232741      -0.00426975       0.00719634       0.00916687
S        0.74266965      12.32540977       1.62378171      -0.00902861      -0.04400687       0.01274326
N        3.49861901      11.69989980       1.32829095       0.01183534       0.01035428       0.00606599
C        2.36285175      11.95574070       1.40336674      -0.03210115      -0.00460389      -0.00986119
C        1.39133840       5.05176739       7.49950942       0.00345144      -0.00493556       0.00022497
C        1.73918111       4.28293104       6.23148046       0.00209463      -0.00530308      -0.00006758
C        2.05661952       4.50013895       8.75470712       0.00449100      -0.00466847      -0.00022638
C        1.03006635       4.82518634       4.99515462      -0.00152621      -0.00693315       0.00123643
C        1.68958570       5.27377484      10.01456269       0.00679593      -0.00301912      -0.00052467
C        1.37722185       4.05654616       3.72896535      -0.00426488      -0.00756809       0.00075024
H        1.67084425       6.10518384       7.37295644       0.00334622      -0.00490454      -0.00030891
H        0.30284142       5.04394742       7.63678492       0.00353757      -0.00491977       0.00133581
H        1.48374370       3.22547924       6.36170581       0.00407284      -0.00564414       0.00123261
H        2.82248692       4.30808924       6.07066725       0.00174168      -0.00375309      -0.00223079
H        1.77773151       3.44838088       8.87329055       0.00335601      -0.00423113       0.00095684
H        3.14225915       4.50933126       8.61821502       0.00433019      -0.00613895      -0.00152373
H       -0.05230764       4.79769862       5.16237612      -0.00106707      -0.00808200       0.00406078
H        1.28799626       5.88280048       4.86858873      -0.00304370      -0.00681013      -0.00017568
H        1.98642697       6.32206152       9.93272380       0.00937214      -0.00379440      -0.00135047
H        2.17098683       4.85635015      10.90009007       0.00608349      -0.00359246      -0.00040063
H        0.61115583       5.25414285      10.18714416       0.00678673      -0.00023342      -0.00018451
H        2.44549888       4.11207539       3.52333996      -0.00477383      -0.00710599      -0.00227483
H        1.12237841       2.99950260       3.82369770      -0.00349969      -0.00768727       0.00225983
H        0.84788761       4.45027708       2.86107000      -0.00694171      -0.00830515       0.00197318
C        9.73459608      11.94838871       9.94765969       0.00034198       0.00240368       0.00573778
C        8.54013897      11.21105309       9.36093906       0.00244186       0.00013947       0.00429073
C       10.98972871      11.09259652      10.08900770      -0.00107925       0.00163388       0.01114106
C        7.29130423      12.08089256       9.26928044       0.00031263      -0.00310796       0.00521864
C       12.11791515      11.84474084      10.79036006       0.00199988       0.00184736       0.00403506
C        6.06517170      11.29466537       8.83800285       0.00063729      -0.00603983       0.00969969
H        9.96125916      12.82585045       9.33045706       0.00296488       0.00053832       0.00401457
H        9.45490859      12.33386296      10.93501070      -0.00209294       0.00529908       0.00398451
H        8.32232841      10.33362369       9.98265638       0.00513022      -0.00147206       0.00303361
H        8.78353866      10.82905379       8.36322160       0.00452261       0.00205150       0.00406644
H       10.74662958      10.18174363      10.64343141      -0.00225533       0.00643051       0.01898399
H       11.32708076      10.77623256       9.09646138      -0.00012471      -0.00575170       0.01407641
H        7.11216770      12.55132293      10.24259462       0.00171890      -0.00186676       0.00491929
H        7.46800443      12.89468107       8.55840250      -0.00305957      -0.00403386       0.00347614
H       12.50135407      12.67048781      10.18978728       0.01932247      -0.01301455      -0.00457509
H       12.98076002      11.16438838      11.03970486      -0.00516321      -0.00535521       0.01983701
H       11.65616190      12.32211736      11.73298604       0.00247818       0.02790660      -0.00854559
H        6.25258942      10.79540898       7.88709559      -0.00205849      -0.00589191       0.00907728
H        5.80033933      10.54297486       9.58582259       0.00443421      -0.00613854       0.01098830
H        5.20982771      11.95198805       8.68258125      -0.00096433      -0.00724813       0.01286926
C       11.07807547       8.02218742       7.66538238      -0.00325334       0.00083981      -0.00329997
C       11.93069165       8.67996216       6.58770498      -0.00362730       0.00183312      -0.00286096
C       11.85850003       7.73503990       8.94304615      -0.00250280      -0.00102898      -0.00420886
C       11.17292458       9.02826008       5.31045004      -0.00379401       0.00445791      -0.00213981
C       11.01183584       7.10453954      10.03868589      -0.00288856      -0.00085333      -0.00431755
C       12.05545741       9.71807652       4.27765895      -0.00347099       0.00710198      -0.00025481
H       10.22245600       8.66621371       7.89912800      -0.00260523       0.00102943      -0.00181002
H       10.65542856       7.08639627       7.28061557      -0.00410839       0.00147045      -0.00397488
H       12.77316601       8.02156636       6.34257258      -0.00417489       0.00174358      -0.00458856
H       12.37971471       9.59256519       6.99528757      -0.00316645       0.00117695      -0.00205635
H       12.70191580       7.08162510       8.70823700      -0.00319722      -0.00178516      -0.00520734
H       12.29875817       8.66604010       9.31184077      -0.00136921      -0.00171465      -0.00369531
H       10.74757624       8.11276678       4.88390564      -0.00292300       0.00512552      -0.00465843
H       10.31918983       9.66872271       5.55710336      -0.00464651       0.00280082      -0.00078459
H       10.16380532       7.74231132      10.29884387      -0.00204591      -0.00001436      -0.00404901
H       11.59109833       6.93880230      10.94842192      -0.00297844      -0.00200121      -0.00440168
H       10.60862810       6.14032154       9.72023027      -0.00393480      -0.00025353      -0.00500576
H       12.47954437      10.64292054       4.67037530      -0.00383171       0.00656156       0.00130449
H       12.89400815       9.08177128       3.98635108      -0.00301690       0.00793728      -0.00082525
H       11.50817871       9.97464497       3.37059052      -0.00330575       0.00847393      -0.00008221
C        2.47224022      10.30555629       6.42966531      -0.00328286       0.00519343      -0.02128434
C        3.42903939       9.23088762       6.92881753       0.00286325       0.00708639      -0.00953794
C        1.88728193      11.15050233       7.55517937       0.00422952       0.01011629      -0.01089925
C        4.13875181       8.48601238       5.80548078       0.00054450       0.00027764      -0.00192499
C        0.97852370      12.26061059       7.04894674      -0.00015005       0.00518423      -0.00148837
C        5.11044907       7.43179899       6.31769202      -0.00269023       0.00137001      -0.00245386
H        2.99900097      10.96861483       5.73471425       0.00287983      -0.00842333       0.01844759
H        1.66226068       9.83802492       5.85962888      -0.00440243      -0.00289221       0.00017026
H        2.88499112       8.51621958       7.56142324      -0.00666671      -0.00082925       0.00336303
H        4.18207487       9.69549085       7.57217622       0.00160265       0.01056172      -0.00766458
H        1.34377258      10.50508227       8.25652788       0.00011247      -0.00584176      -0.00134735
H        2.71250598      11.59778227       8.11553529       0.00804150       0.00544441      -0.01214689
H        3.39351528       8.01890677       5.15108198      -0.00200117      -0.00005792      -0.00423196
H        4.68240907       9.21566859       5.20031836       0.00196272      -0.00015411      -0.00703026
H        1.53185348      12.89810798       6.35776409      -0.00560255       0.01046701      -0.00428192
H        0.60709439      12.88711496       7.86314142       0.00344038      -0.00249999      -0.00100775
H        0.11241902      11.85900524       6.51855092      -0.00247552       0.00334154      -0.00029914
H        5.89365999       7.89486147       6.92095623      -0.00178275       0.00029795      -0.00100809
H        4.60412717       6.69039298       6.94164275      -0.00386520       0.00240162      -0.00016387
H        5.59638298       6.89739929       5.50003124      -0.00272487      -0.00082038       0.00034462
C        8.44934949       2.90387802      11.92211631       0.00051399       0.00043637       0.00262068
C        9.92404522       3.28561121      11.94687026      -0.00026998       0.00317878       0.00647641
C        7.52717679       4.11848689      11.91061543      -0.00139184      -0.00095206       0.00026246
C       10.87496751       2.09545223      11.97277907       0.00215895       0.00500053       0.00432928
C        6.05042806       3.75064632      11.91560229      -0.00099361      -0.00266671      -0.00653324
C       12.34191798       2.50055350      11.95409153       0.00148782       0.00801031       0.00515763
H        8.24323124       2.28119898      11.04377095       0.00407004       0.00042650       0.00170854
H        8.21812359       2.28248282      12.79519164      -0.00088876      -0.00030920       0.00179723
H       10.11404756       3.91791108      12.82010823      -0.00281962       0.00142701       0.00832242
H       10.15082575       3.90482378      11.07014448      -0.00003131       0.00589524       0.00828394
H        7.75289542       4.74529162      12.77973918      -0.00576968      -0.00155054       0.00178605
H        7.75377182       4.73034349      11.03087189       0.00150838       0.00027400       0.00178847
H       10.67149798       1.48541292      12.86032899       0.00358242       0.00256728       0.00297436
H       10.66060903       1.45819078      11.11083220       0.00343557       0.00668901       0.00267515
H        5.79352679       3.14726985      11.04264816       0.00337670      -0.00160670      -0.00856596
H        5.41527878       4.63771112      11.90818092      -0.00179063      -0.00323576      -0.00808691
H        5.79589238       3.16989300      12.80319322      -0.00433839      -0.00423741      -0.00845620
H       12.58796303       3.03110378      11.03111473      -0.00079208       0.01344716       0.00769362
H       12.57704097       3.16248701      12.78954913       0.00096571       0.00399806       0.00852963
H       13.00242627       1.63372655      12.03315762       0.00344829       0.00913770      -0.00035949
C        9.82740586       7.59848804       1.01560240       0.00084576       0.00459522      -0.00441461
C        9.32636283       9.03340627       1.12896640      -0.00178638       0.00350994      -0.00170276
C       11.33975825       7.48266983       1.17394911       0.00105879       0.00710779      -0.00352563
C        7.81891780       9.18400075       0.96172131      -0.00187388       0.00123268      -0.00391967
C       11.85619662       6.05791871       1.03765160       0.00349793       0.00785449      -0.00337276
C        7.34894354      10.62493814       1.10324742      -0.00539601      -0.00053239       0.00302895
H        9.33404285       6.98029150       1.77573447       0.00134780       0.00232849      -0.00595656
H        9.52929496       7.18047882       0.04643973       0.00224322       0.00589783      -0.00545418
H        9.84002626       9.65436733       0.38366247      -0.00134775       0.00655767       0.00106281
H        9.61685979       9.44029080       2.10379625      -0.00443150       0.00131574      -0.00000557
H       11.82553853       8.12536542       0.43168191       0.00035587       0.00825851      -0.00304762
H       11.62902901       7.88574756       2.14783538      -0.00035993       0.00727608      -0.00317019
H        7.52306365       8.78641703      -0.01545993       0.00081030       0.00592689      -0.00672790
H        7.31345095       8.56280435       1.70793523      -0.00188239      -0.00403975      -0.00811398
H       11.40675953       5.40231583       1.78790769       0.00459275       0.00721565      -0.00323430
H       12.93932776       6.00823825       1.16039159       0.00354767       0.00978846      -0.00328175
H       11.61552355       5.64236207       0.05768346       0.00416069       0.00708821      -0.00328636
H        7.60029479      11.01513995       2.09072737      -0.00628369      -0.00417607       0.00468233
H        7.83193673      11.26398120       0.35902448      -0.00764528       0.00436375       0.00544092
H        6.27014253      10.72147041       0.97801818      -0.00603878      -0.00220993       0.00655119
C        8.43492332       2.30566377       4.73788937       0.00442234      -0.00322640      -0.00347017
C        7.11700059       2.09548927       4.00643344       0.00591478      -0.00411969      -0.00611061
C        9.05210081       0.99383295       5.21190164       0.00426553      -0.00260359      -0.00166288
C        6.43569510       3.38133266       3.55963198       0.00521855      -0.00432903      -0.00594173
C       10.36311253       1.18588008       5.96110950       0.00156587      -0.00106652       0.00268120
C        5.07624028       3.11029991       2.92915372       0.00425273      -0.00496277      -0.00367905
H        9.14641254       2.83732572       4.09266834       0.00550476      -0.00280054      -0.00191140
H        8.26460887       2.95628880       5.60463932       0.00203260      -0.00324735      -0.00392169
H        6.42975401       1.55051506       4.65850273       0.00570405      -0.00539756      -0.00755104
H        7.28004580       1.44981037       3.13624502       0.00802249      -0.00318912      -0.00652337
H        8.32849683       0.46540622       5.83759071       0.00273454      -0.00325154      -0.00390923
H        9.21157556       0.34032729       4.34901280       0.00788525      -0.00240105      -0.00121593
H        6.30477364       4.03649236       4.42786872       0.00650204      -0.00383948      -0.00605297
H        7.07870752       3.92687953       2.85840365       0.00408733      -0.00483252      -0.00742713
H       11.11678151       1.66428552       5.33099624       0.00342879      -0.00078425       0.00496612
H       10.77728596       0.23473028       6.29986583       0.00129439      -0.00046346       0.00484464
H       10.22366245       1.81803822       6.84151292      -0.00212650      -0.00050904       0.00173731
H        5.16012993       2.42604804       2.08233695       0.00337159      -0.00710905      -0.00187398
H        4.41634037       2.63017177       3.65353862       0.00502296      -0.00359929      -0.00202608
H        4.60320985       4.02755503       2.57344173       0.00415424      -0.00547247      -0.00521238
