147
Lattice="12.758854775976824 0.0 0.0 0.0 12.758854775976824 0.0 0.0 0.0 12.758854775976824" Properties=species:S:1:pos:R:3:forces:R:3 energy=-162433.59375 stress="0.0008991624927148223 -0.00038840250635985285 0.000210475132917054 -0.00038840250635985285 0.0007670725462958217 7.197938612080179e-05 0.000210475132917054 7.197938612080179e-05 -0.0003317799710202962" pbc="T T T"
Ni      11.18455698      12.66985489       0.36727732      -0.01563917      -0.00482258       0.01163314
P        4.92509101      11.62237994      11.81883144       0.01758420      -0.00404228      -0.00291025
F        5.70698288      10.29874197      11.30855465      -0.00292510      -0.01374912      -0.00744659
F        3.51305520      10.81357222      11.78085150       0.00603282       0.01737523      -0.00566164
F        4.12355762      12.94726646      12.30995999       0.03887480       0.00505602       0.00311488
F        6.32067876      12.45298162      11.84225885       0.03025019      -0.02576655       0.00000918
F        4.69318881      12.06943019      10.27366682       0.02516913       0.00525889      -0.00097203
F        5.14767989      11.17963120      13.34602246       0.01165980      -0.01431516      -0.00411355
P        4.94713237       9.86153956       5.27425283       0.00268804      -0.00519896      -0.00357065
F        5.01563140       8.94509329       6.61486071      -0.00058204      -0.00409669      -0.00321901
F        4.87004773      10.76548441       3.93870744       0.00578720      -0.00629109      -0.00509942
F        4.68546804       8.51643468       4.38945342       0.00658953      -0.00629556      -0.00384569
F        5.18629238      11.19029455       6.16604853      -0.00173049      -0.00414312      -0.00430679
F        6.54053223       9.67869746       5.07260494       0.00346851      -0.00358349       0.00114122
F        3.33947788      10.02339728       5.47018085       0.00186777      -0.00653510      -0.00911134
C        9.45895936       9.47923763       7.01774837      -0.00462968       0.00122449       0.02061998
C       10.00086300      10.65754027       6.51822818       0.01307805       0.00230126       0.00289388
C        8.24336044       9.50639033       7.69139325       0.01480335       0.00452755       0.00288150
C        9.32145154      11.85928016       6.68898426      -0.00991964       0.00026412       0.00202446
C        7.56659791      10.70435137       7.87211927      -0.01054040       0.00277639       0.00240538
C        8.10506203      11.87902711       7.36215752       0.00899084       0.00414866      -0.01651420
H        9.97313068       8.53679464       6.87255616       0.01126641       0.00267076       0.02404149
H       10.94466249      10.63759874       5.98531008       0.00457141      -0.00017203       0.01324300
H        7.80487049       8.58508094       8.04879604       0.00380671       0.00550908       0.01700176
H        9.73265250      12.77588207       6.28075230       0.00148453      -0.00044358      -0.00929768
H        6.60633657      10.71676944       8.36860907       0.00114691       0.00549034      -0.00783335
H        7.55258787      12.80432106       7.46050877      -0.00650112       0.00192957      -0.01980844
C        9.69397980      10.83046852      12.22569754      -0.00050804      -0.00709876       0.00827860
C        9.62514413      11.62684907      11.08459922      -0.00378650       0.00002428       0.01143485
C       10.92578915      10.60865979      12.86588068      -0.00072908      -0.00637648       0.00603295
C       10.78044886      12.24351939      10.61084218      -0.00480926       0.00575872       0.01596454
C       12.13086534      11.13341329      12.32648941      -0.00240040       0.00248970       0.01116432
C       12.01936874      12.02742911      11.23467267      -0.00498849       0.00686818       0.01388955
H        8.78145485      10.42568712      12.64207465       0.00071141      -0.01217946       0.00465814
H        8.67046359      11.78991231      10.60400514      -0.00412837      -0.00007134       0.01448264
H       10.97482039       9.95888718      13.73168639       0.00191922      -0.01000229       0.00356837
H       10.73161802      12.90330059       9.75416990      -0.00764853       0.01105650       0.01945939
H       13.09821236      10.86140667      12.73044426      -0.00221941       0.00555993       0.01152077
H       12.90747674      12.50655699      10.84308632      -0.00586873       0.01344052       0.01971079
C        9.93858497       7.57079909      10.65578962       0.00088375       0.01153116       0.00077647
C        9.21813961       6.73646898       9.81148635       0.00654225       0.00841430       0.00031398
C       11.32126740       7.65304881      10.53579253       0.00169977       0.01693906       0.00315249
C        9.87804427       5.97552890       8.85407845       0.01031892       0.01030155       0.00176606
C       11.98118634       6.90436608       9.56889315       0.00547762       0.01822989       0.00541569
C       11.25899771       6.06159196       8.73093556       0.01101600       0.01559505       0.00451189
H        9.42086921       8.16288225      11.39911584      -0.00275572       0.01055112      -0.00106104
H        8.14171998       6.66964077       9.90241169       0.00594383       0.00436254      -0.00148745
H       11.89025204       8.30255171      11.18937030      -0.00217499       0.01988995       0.00348144
H        9.31543880       5.31743646       8.20651368       0.01418211       0.00814112       0.00077075
H       13.05327313       6.99327796       9.45599634       0.00618027       0.02177587       0.00758379
H       11.77094943       5.47173615       7.97995518       0.01437478       0.01689287       0.00573646
C        2.76721837       9.27356137       2.08192328       0.00127596      -0.00782308      -0.01120068
C        1.65372420       9.06846976       2.88919387       0.00101164      -0.00416589       0.00177723
C        2.98120397       8.45643641       0.97828654      -0.01004192       0.00396562      -0.00749548
C        0.75068450       8.05381326       2.58894494      -0.00106905      -0.00497957      -0.00745077
C        2.08430313       7.43642242       0.67968680      -0.01178604       0.00345318      -0.01720300
C        0.96537406       7.23604169       1.48276785      -0.01196223       0.00612654      -0.00435960
H        3.47961643      10.04820067       2.32610507       0.00313604      -0.00811085      -0.00466032
H        1.52022523       9.68621364       3.76756351       0.00872185      -0.01145035       0.00047836
H        3.84601330       8.63129504       0.35289931      -0.01037887       0.00208807      -0.01617911
H       -0.11165649       7.88783196       3.22488267       0.00012804      -0.00295481       0.00089962
H        2.25607038       6.80116180      -0.18184932      -0.02023613       0.01095212      -0.01717246
H        0.26362605       6.44303616       1.24955562      -0.01351450       0.00669369      -0.01023681
C       10.86489724       2.84877751       0.98213780       0.00492305      -0.01187727      -0.01133406
C       12.05880998       2.69412743       1.68216063       0.00697358      -0.02185437      -0.01700197
C        9.89841546       1.84336492       1.00038705      -0.00760451       0.00031847       0.00374450
C       12.33788648       1.49264125       2.31925306      -0.00474581      -0.01731285      -0.00599097
C       10.09027408       0.67647717       1.77308781      -0.01557873       0.00384840       0.01020240
C       11.38064060       0.45888043       2.34651218      -0.01616573      -0.00588634       0.00816441
H       10.66715420       3.76267078       0.43632087       0.01296335      -0.01496540      -0.01846316
H       12.77656620       3.50440415       1.71921425       0.01764355      -0.03152785      -0.03188987
H        8.96783674       1.97909303       0.46347905      -0.00920466       0.00743216       0.00903388
H       13.28667313       1.34989023       2.81887098      -0.00327125      -0.02681904      -0.01068839
H        9.26685797       0.00017885       1.96855234      -0.02154867       0.01264516       0.01605379
H       11.56859117      -0.42017013       2.95251170      -0.02378153      -0.00251707       0.01447262
C        4.39828459       3.27484520       5.70527379      -0.01060233      -0.03606500      -0.00029038
C        3.72362740       2.57697706       4.70851887      -0.01048114       0.02122006       0.00707388
C        4.33782636       4.66250476       5.74670884      -0.01122283       0.02849477      -0.00048071
C        2.97716503       3.28028461       3.76967510      -0.00275964      -0.03844416       0.00583257
C        3.60649490       5.36684814       4.79681586      -0.00648997      -0.03438580      -0.00238851
C        2.91581227       4.66814778       3.81421324      -0.00386849       0.02462485       0.00502037
H        4.98392266       2.73048123       6.43650389      -0.01230705       0.00045836       0.00486994
H        3.80124279       1.49884722       4.65371494      -0.00959580      -0.01550832       0.00810708
H        4.86725030       5.21258425       6.51336416      -0.00982533      -0.00649181      -0.00180611
H        2.48025226       2.74438910       2.97049678      -0.00624356      -0.00576872       0.00648407
H        3.60262981       6.44984320       4.81429018      -0.00535397       0.00452125      -0.00317234
H        2.36203905       5.21722034       3.06207357      -0.00350504      -0.01190261       0.00010611
C        1.60860873       4.06702407      10.06665635      -0.00837123       0.01683603      -0.00786362
C        1.58331538       3.35200653      11.25830895       0.00662121      -0.03907480       0.00862725
C        1.90986839       3.41730564       8.87519657       0.00809517      -0.03840866       0.00189364
C        1.87748464       1.99341625      11.26283661       0.00374092       0.02830079      -0.00038292
C        2.19781762       2.05629778       8.87887072       0.00622714       0.02679205      -0.00567940
C        2.19181978       1.34563699      10.07317821       0.02180753      -0.02934781       0.01105386
H        1.40610904       5.12938573      10.06587163      -0.01151223      -0.01821145      -0.00346683
H        1.34846331       3.85964455      12.18654491      -0.00356576      -0.00260194       0.00038481
H        1.93799366       3.97177597       7.94562655      -0.00120212      -0.00527601      -0.00534414
H        1.88799294       1.43717706      12.19092826       0.01543657      -0.00637821       0.00893527
H        2.44574611       1.55681648       7.95093432       0.01775282      -0.00806230       0.00209957
H        2.47081630       0.30037346      10.08756218       0.02116348       0.00733277       0.00570599
C        4.59765227       4.27517868       0.90768631       0.00099923       0.01396704      -0.00016969
C        4.88119681       2.91660796       0.85222173      -0.00201049      -0.00489712      -0.00371531
C        5.42202060       5.13762555       1.62079913      -0.00122186      -0.00544190      -0.00095638
C        5.99157794       2.40945331       1.51816199      -0.00495304       0.00808251       0.00300211
C        6.53459553       4.63249263       2.28358891      -0.00477184       0.00717688       0.00572652
C        6.81574161       3.27043052       2.23505513      -0.00780208      -0.01037682       0.00247668
H        3.72611753       4.66526734       0.39462769       0.00304796       0.00576399      -0.00537650
H        4.25502165       2.24189790       0.28612402      -0.00069855       0.00752228      -0.00448784
H        5.18814485       6.19351063       1.68164837       0.00114622       0.00500898       0.00118189
H        6.19767813       1.34675763       1.46906227      -0.00781202      -0.00210214       0.00064126
H        7.17220403       5.29655350       2.85244687      -0.00560459      -0.00394003       0.00679256
H        7.67825180       2.88718270       2.76805572      -0.00977238      -0.00305749       0.00787719
C        6.04934857       3.10016555      10.27599593       0.00039980       0.00073082       0.00036498
C        6.74209571       2.07940946       9.63711235      -0.00983579      -0.01323743      -0.00586888
C        6.74096005       4.04376756      11.02738116      -0.00511137      -0.00838806      -0.01380318
C        8.12771713       2.01543996       9.73704329      -0.00087923      -0.00489226      -0.00157214
C        8.12136053       3.96056218      11.15186864       0.00395820      -0.00040469      -0.00974795
C        8.81828891       2.95264770      10.49619756      -0.00619559      -0.01407779      -0.01577891
H        4.96837514       3.14091610      10.21210756      -0.00445099      -0.00422939      -0.00200650
H        6.19800483       1.31684043       9.09477953      -0.00728956      -0.00808485       0.00268220
H        6.20256197       4.82640561      11.54382749       0.00220836       0.00019573      -0.01028014
H        8.66398407       1.22310257       9.23065935      -0.00838222      -0.01383628      -0.00529245
H        8.65082670       4.68940702      11.75257677       0.00218803      -0.00452352      -0.01878261
H        9.89757723       2.89947493      10.57940704      -0.00143909      -0.00906723      -0.01311548
C        9.74865623       5.43697890       4.55177960      -0.00291094       0.00874545      -0.00117937
C        9.73184682       4.13899174       5.05302863       0.00387624       0.00954028      -0.00813439
C        8.74687058       6.33602000       4.90406224       0.00253514       0.00822711      -0.00352673
C        8.71521744       3.74466754       5.91524338      -0.00186738       0.00519958      -0.00180712
C        7.72628070       5.94028829       5.76151624      -0.00350164       0.00473835       0.00247673
C        7.71727813       4.64561261       6.26955058       0.00464997       0.00521539      -0.00438851
H       10.54123589       5.74286480       3.87965842      -0.00085458       0.01073178      -0.00414148
H       10.50698113       3.43672782       4.76915499       0.00020500       0.00919457      -0.00627297
H        8.74546941       7.34487830       4.51127090      -0.00226492       0.00826481       0.00151968
H        8.69711990       2.73863424       6.31682659       0.00293345       0.00676768      -0.00663303
H        6.94495242       6.64609799       6.01709797       0.00095668       0.00444928       0.00101873
H        6.93960147       4.33172793       6.95341335       0.00063504       0.00289027      -0.00165316
C        3.16788742       6.74030613       8.47672584      -0.00443996      -0.01219015      -0.00276083
C        3.54299642       7.77927140       9.31851444      -0.00156735       0.03580440       0.01447083
C        2.22058247       6.95880088       7.48171894      -0.00101709       0.02702858       0.01201878
C        2.97852557       9.04057209       9.16405378       0.00256632      -0.01178354      -0.00904176
C        1.65921830       8.21882151       7.32473581       0.00467147      -0.01941984      -0.00938928
C        2.03889452       9.25627052       8.16503741       0.00729378       0.02950013       0.00730133
H        3.61892660       5.76143871       8.58603677      -0.00578735       0.01196069       0.01280404
H        4.29465620       7.62188209      10.08263830      -0.00339434       0.01040372       0.00592652
H        1.93894961       6.15553971       6.81345252      -0.00095797      -0.00114554       0.00383975
H        3.29135072       9.84810767       9.80930412       0.00469700       0.01856104       0.00063612
H        0.94223638       8.39582478       6.53330183       0.00556865       0.00636767      -0.00158586
H        1.62453730      10.24527842       8.02052434       0.00854586       0.00395326      -0.00853398
