139
Lattice="12.104048584876912 0.0 0.0 0.0 12.104048584876912 0.0 0.0 0.0 12.104048584876912" Properties=species:S:1:pos:R:3:forces:R:3 energy=-142316.40625 stress="-0.0014441763050854206 -0.0002638239966472611 -0.00015414895460708067 -0.0002638239966472611 -0.00012151046394137666 0.00015893392264842987 -0.00015414895460708067 0.00015893392264842987 -0.001751663046889007" pbc="T T T"
Ni      12.66622966      10.48120786      -0.38959543       0.00956047       0.00078791       0.00231570
Cl      11.17896997      10.66664879       6.18598432       0.00992695      -0.01180110       0.01020241
O       11.58801827       9.32574314       6.70811714       0.01469272      -0.01173806       0.00922310
O        9.83766397      10.98554670       6.73979559       0.00476551      -0.04283625      -0.00607014
O       12.14616563      11.66952703       6.70937131       0.00143123      -0.01660800       0.01029873
Cl       4.54416491      11.33718898       7.37218609      -0.00780058      -0.01443958      -0.00011432
O        4.16823443      12.38249318       8.36583704      -0.02181423      -0.01137900      -0.00578010
O        5.21913921      12.00600082       6.23332942      -0.01605129      -0.01034260      -0.00440168
O        5.53717359      10.43324583       8.03036302      -0.00033879      -0.00942516      -0.00504017
O        8.56060721       7.37893890       6.76374420      -0.00748962      -0.01138985      -0.00217642
C        6.58259061       6.79670320       5.62333774      -0.00537446      -0.00701736      -0.00789309
C        6.40773200       8.18083134       6.24102660      -0.00361133      -0.00705558      -0.00796348
C        7.73483754       6.26181003       6.46225707      -0.00873172      -0.00938055      -0.00470346
C        7.84894575       8.59726778       6.46024328      -0.00378239      -0.00990948      -0.00577945
H        5.69692277       6.16361510       5.67335994      -0.00686461      -0.00478095      -0.01051836
H        6.88509575       6.88157225       4.57500741      -0.00206502      -0.00750938      -0.00689360
H        5.86287826       8.89997583       5.63219417      -0.00077130      -0.00513847      -0.00897478
H        5.88918184       8.11931547       7.19836923      -0.00517607      -0.00540399      -0.00930429
H        7.36052034       5.81537523       7.39475913      -0.01219249      -0.00898640      -0.00595486
H        8.33502021       5.50891041       5.94960354      -0.00901902      -0.01095581      -0.00314087
H        8.28767573       9.04325499       5.56141339      -0.00099900      -0.01159468      -0.00481778
H        7.98006746       9.31152425       7.26877050      -0.00376380      -0.00956899      -0.00638437
O        1.91458717       7.02330249       5.38994135      -0.00145522      -0.00915197       0.00335640
C        3.14034233       6.58351151       7.31071798      -0.00256258       0.01603490       0.00907958
C        1.68055629       6.26628806       7.63348955      -0.00110961       0.01041872       0.01007813
C        2.96233042       7.58055218       6.18076693      -0.00712687       0.00544664       0.00061518
C        1.01611413       6.30995548       6.25276719      -0.00313677       0.00201437       0.01065022
H        3.70072766       6.97804085       8.15765142      -0.00603799       0.02637060       0.00611964
H        3.64743756       5.69017610       6.94037332       0.00336535       0.01607820       0.01677886
H        1.54346774       5.30645120       8.13014372       0.00321706       0.01164722       0.01259318
H        1.26818911       7.04690077       8.27248956      -0.00485997       0.01016214       0.00808935
H        2.67571616       8.56746767       6.56881253      -0.01527610       0.00626600      -0.00731474
H        3.83473062       7.69168665       5.53858331      -0.00712985       0.00614430       0.00129271
H        0.89596812       5.30943786       5.83182624      -0.00821532      -0.00050682       0.01829794
H        0.04912919       6.81894465       6.26934222      -0.00033045       0.00663939       0.00907487
O        0.99958366       2.88242650       2.51876399       0.00072840       0.00888753       0.00770657
C        2.05579088       4.71855708       1.48926003      -0.00447422       0.00593185      -0.00152278
C        3.13390198       3.72683062       1.92030899      -0.00204939       0.00970539       0.00010835
C        0.90652352       4.30523847       2.39481110      -0.00159845       0.00821686       0.00256547
C        2.32077558       2.46174373       2.14653573       0.00023603       0.00948811       0.00607571
H        2.33692416       5.76263179       1.62179687      -0.00580408       0.00699088      -0.00741524
H        1.79111827       4.56066990       0.44067325      -0.00724872       0.00052495       0.00047415
H        3.92805042       3.57101536       1.19472740      -0.00268614       0.00847016      -0.00035369
H        3.59474414       4.05364374       2.85516837      -0.00188534       0.01442301      -0.00197473
H        1.01092175       4.77237439       3.38250737       0.00030209       0.01232338       0.00015193
H       -0.08085559       4.54896848       1.99855309      -0.00264779       0.00532645       0.00373803
H        2.24981741       1.86746536       1.22724103      -0.00062363       0.00649980       0.00828093
H        2.73134421       1.82712413       2.93370410       0.00224385       0.01316616       0.00806457
O        1.65175745       9.15303270       1.70340027       0.01406461       0.00276595      -0.00043662
C        1.20007465      10.32843460       3.70041202       0.01353326      -0.00686663       0.00519949
C        1.46543603      11.33074674       2.58132805       0.00354299      -0.00232089       0.00729132
C        1.83946919       9.07424154       3.14072993       0.02048048      -0.00029048      -0.00132666
C        1.22762599      10.44813318       1.37337465       0.00555243       0.00077850       0.00391096
H        1.58727427      10.62669264       4.67309042       0.02138531      -0.00580791       0.00242713
H        0.12289961      10.17986982       3.80223293       0.01635662      -0.01452512       0.01425471
H        0.82503980      12.20963631       2.60165839       0.00137794      -0.00389406       0.01430754
H        2.50668045      11.66521268       2.60511603       0.00245434      -0.00071516       0.00654200
H        2.91562526       9.03616501       3.34560433       0.02113158       0.00850154      -0.00540639
H        1.38590733       8.15522443       3.49761825       0.02800873      -0.00433463      -0.00290810
H        0.06328958      10.46711223       1.12982442       0.00738916      -0.00610373       0.00211844
H        1.83546935      10.88135166       0.42319077       0.00291181       0.01264963       0.00511999
O        6.57559629      10.02972604      11.51224973      -0.00939554      -0.00303464       0.01182926
C        4.65351111      11.34671962      11.36327470      -0.00992143      -0.00581565       0.01305678
C        4.27073611       9.93967043      10.89006852      -0.00986993      -0.00591379       0.01311061
C        6.15444380      11.34771661      11.13154457      -0.01018906      -0.00391760       0.01166429
C        5.53507595       9.11276345      11.16957299      -0.00426012      -0.00326194      -0.00228230
H        4.15386738      12.11990800      10.78288077      -0.01197848      -0.00592123       0.01482311
H        4.43702741      11.47906331      12.42771301      -0.00847055      -0.00712427       0.01334852
H        3.40139139       9.53383084      11.40781050      -0.00252262      -0.00955102       0.02238135
H        4.07272168       9.96432773       9.82118577      -0.02255299      -0.00498403       0.01533663
H        6.37535035      11.53259439      10.07500813      -0.01176281      -0.00430985       0.01118362
H        6.70523516      12.05100958      11.75924999      -0.00995854      -0.00402269       0.01114789
H        5.41149146       8.43221646      12.01808707       0.00236602      -0.01795250      -0.01352519
H        5.83305313       8.52584648      10.29392236      -0.00373662       0.01425821      -0.01342571
O        7.14994915       2.64609526       9.15861370       0.00570065       0.01581258      -0.00100126
C        5.20525641       3.58379276       8.20992934      -0.00219327      -0.01002091      -0.00671431
C        4.87277966       3.09817624       9.61969987       0.00109106      -0.00038788      -0.00277215
C        6.45603539       2.77801061       7.90101821       0.00070900      -0.00715095      -0.00016223
C        6.26304807       2.96725056      10.22882937       0.00170219       0.00840081      -0.00171544
H        4.40929408       3.38852737       7.49270010      -0.00216138      -0.01861983      -0.00430395
H        5.42513403       4.65627798       8.21814669      -0.00578308      -0.00942805      -0.01515877
H        4.23595629       3.77983128      10.18496861      -0.00064762       0.00186345      -0.00767444
H        4.38806531       2.12475573       9.55065127       0.00416507      -0.00250137       0.00546735
H        6.19871675       1.78939643       7.51365775       0.00378186      -0.01380509       0.01477624
H        7.13311450       3.26213378       7.19509206      -0.00380242      -0.01446772      -0.00928602
H        6.58617951       3.91381187      10.68274993      -0.00406255       0.00941414      -0.00078055
H        6.32468063       2.19362334      10.99665594       0.00504930       0.00797576      -0.00254476
O       11.69536878      10.02213840      10.22960841      -0.01241809       0.01287580       0.01396489
C        9.93274152       8.62906039       9.48215075      -0.00435814       0.01744965      -0.01618433
C        9.37825280      10.00555470       9.85345150      -0.00759810       0.01379860      -0.00788468
C       11.28356894       8.61462083      10.16896314      -0.00550452       0.01283655      -0.01388429
C       10.59853127      10.88068836       9.74002013      -0.00635295       0.01358581       0.00494967
H        9.30260465       7.80946495       9.82616550      -0.00432894       0.01454344      -0.02431680
H       10.06179303       8.54813265       8.40463689      -0.00070640       0.02600761      -0.01645422
H        8.59042364      10.33786699       9.18095372      -0.00366667       0.01844467      -0.00929299
H        8.98205959      10.00339595      10.87023921      -0.01380045       0.00509560      -0.00980350
H       11.23493551       8.24720751      11.19800621      -0.00550010      -0.00639356      -0.02095482
H       12.05635115       8.07886387       9.62242230      -0.00139657       0.02883178      -0.02330497
H       10.83431112      11.14562277       8.71281544       0.00376733       0.00997876       0.00661021
H       10.58963052      11.76984922      10.36802526      -0.01111324       0.01461795       0.00326219
O        9.23336573       2.03158411       6.13134042       0.00319487      -0.01621789      -0.00574724
C       10.39365850       3.72542668       7.27953041       0.00294667      -0.01729041      -0.00537434
C       10.61676169       3.91997034       5.77911884      -0.00115460      -0.01507759      -0.00640793
C        9.99662986       2.25534185       7.32725678       0.00307733      -0.01748347      -0.00688356
C        9.51040978       3.05056745       5.18528122      -0.00209844      -0.01499635      -0.00454369
H       11.27692118       3.94534048       7.87948229       0.00500396      -0.01985392      -0.00764473
H        9.57940933       4.36126037       7.63607288       0.00264606      -0.01802126      -0.00252378
H       10.56005948       4.95928123       5.45465681      -0.00450905      -0.01488972      -0.00484117
H       11.59296168       3.52436197       5.49085662      -0.00198609      -0.01622629      -0.00992173
H       10.87563759       1.60172475       7.31838818       0.00204027      -0.01861471      -0.01165702
H        9.36341554       1.99939122       8.17681206       0.00589377      -0.02015787      -0.00572956
H        8.59331779       3.63382739       5.02008209      -0.00296432      -0.01566669      -0.00363679
H        9.79343671       2.60245785       4.22705044      -0.00591314      -0.01650622      -0.00451571
O        7.22379102      12.18705148       3.24590329       0.01019047       0.01321906      -0.02690808
C        8.16104708      10.27777044       2.33852613       0.01464140      -0.00263685       0.01269376
C        6.75127470       9.88644974       2.79326115       0.00617760       0.00930917      -0.00263070
C        8.44608242      11.45799854       3.25473495       0.00836337       0.01108742      -0.00346136
C        6.15858753      11.22441183       3.28634968       0.01024584       0.01437992      -0.01131718
H        8.88662554       9.46850436       2.42670465       0.00967255      -0.00394821       0.04067887
H        8.13027668      10.60626855       1.29863986       0.03316363      -0.02225043       0.00660634
H        6.16753674       9.44517484       1.98637478       0.01462145       0.01393051      -0.01120159
H        6.80187354       9.16771109       3.61220404      -0.01020125       0.00929722      -0.00235394
H        8.69822869      11.13221173       4.27330431       0.00009994       0.02601755       0.00245792
H        9.23471476      12.12437051       2.90003819       0.01255950       0.00386894      -0.00833088
H        5.36815571      11.59971089       2.63076060       0.00765818       0.01047777      -0.00996250
H        5.76481805      11.16319266       4.30475407       0.01584037       0.02212240      -0.00862038
O        6.34789113       3.63139341       1.28142186      -0.00284398       0.01107344       0.00704262
C        8.39608743       4.53798714       1.98579405       0.00304216       0.00351898       0.00157565
C        7.63091150       5.62064659       1.22587035       0.00796613       0.00198787      -0.00483114
C        7.72690981       3.27857277       1.45775880      -0.00478497       0.00416178       0.01035056
C        6.21585923       5.05500878       1.24467118       0.00482291       0.01147068       0.00443440
H        9.47085444       4.55257217       1.81077817       0.00257188      -0.00372541      -0.00130104
H        8.22345543       4.63625142       3.05976930       0.00639859       0.01162311       0.00134242
H        7.68790230       6.60904448       1.68079721       0.01685572       0.00624573      -0.01570523
H        8.00020287       5.69601653       0.20030769       0.00430803      -0.01247786      -0.00705558
H        8.15588001       2.99608476       0.48641711      -0.00665085      -0.00450442       0.01225942
H        7.77047797       2.41919088       2.12759629      -0.00972037       0.00827244       0.01551744
H        5.67321190       5.38144137       2.14024663       0.01132056       0.01743022       0.00621170
H        5.62464601       5.33767936       0.36858761       0.00262994       0.01296394       0.00661659
