150
Lattice="11.683999307468465 0.0 0.0 0.0 11.683999307468465 0.0 0.0 0.0 11.683999307468465" Properties=species:S:1:pos:R:3:forces:R:3 energy=-216475.640625 stress="0.0026294488925486803 -2.1777896108687855e-05 7.370699313469231e-05 -2.1777896108687855e-05 0.0010668209288269281 0.0001937489359988831 7.370699313469231e-05 0.0001937489359988831 0.0010783231118693948" pbc="T T T"
Ni      11.99269819      10.44999098       0.14244699       0.00235258       0.00341247      -0.00582725
O       11.39329303       4.76579447       2.34076078      -0.00330830       0.00183475      -0.00336263
O        9.26715913       5.56877575       4.15156478      -0.00053141       0.01105760      -0.00713527
O        8.60912592       4.36235502       1.64299744      -0.00624382       0.00678992      -0.00340545
O        9.73780301       7.03598132       1.68712265       0.00210666       0.00434554      -0.00911790
Mo       9.74726640       5.42992003       2.46165265      -0.00230811       0.01015605      -0.00194476
N        9.90921449       1.49787838       1.58120637       0.00467978       0.01171064      -0.00645384
H        9.60203909       1.15536524       0.67577744       0.02331135       0.02156760      -0.01705557
H       10.75540067       2.02731191       1.38672049       0.00219060       0.02164615       0.01568314
H        9.23589601       2.22110969       1.83730318      -0.00660590       0.00177043      -0.00907290
N        7.20013527       6.57280414      11.32404396      -0.00541830       0.00374093      -0.00100246
H        7.68479625       7.36237727      10.91092544      -0.00259547       0.00433533      -0.00313507
H        7.54231155       5.74067029      10.84077794      -0.00650766       0.00444646       0.00059955
H        7.57804920       6.48942054      12.26379427      -0.00650304       0.00664637      -0.00126734
N        3.25836081       5.38972412       1.39986496      -0.00540561      -0.00224128       0.00206435
H        3.44149917       6.02904205       0.63108782       0.00321157      -0.00203944      -0.00409348
H        4.03131737       5.51430583       2.05093301       0.00145033      -0.00125710       0.00038733
H        2.41607472       5.71510764       1.86123344       0.00417832       0.00163460      -0.00386587
N        5.57537790       3.29501132       9.23134839      -0.00009675       0.01148030      -0.00085258
H        5.70482045       3.41944579       8.23220297       0.01079371       0.02406430       0.00207333
H        6.46931956       3.56791335       9.64359457      -0.00234477       0.00701860       0.01029267
H        4.91405290       4.00722600       9.52159336      -0.00213656       0.00681232       0.00153599
N        2.29139636       8.83996445       0.61503181      -0.00847435      -0.00786389       0.00346211
H        1.79874264       8.36935357       1.37887016      -0.01228219      -0.01057908      -0.00092427
H        2.92242810       9.48251060       1.08368049      -0.00819848      -0.01331230       0.01026534
H        2.90375817       8.15323997       0.16768251      -0.00800418      -0.00775284       0.00241017
N        2.23411941       2.94201137      11.41023226      -0.00921057       0.00389344      -0.00788927
H        1.54628268       3.27917397      10.74303426      -0.00651741       0.00034233      -0.00625886
H        3.04706841       2.66054789      10.87210834      -0.00396289       0.00591037      -0.00843834
H        2.53689612       3.72977686      11.99091342      -0.00880539       0.00266349      -0.00578560
N        7.30299633       4.73159609       6.31096047       0.00843170      -0.01147570      -0.00338355
H        7.99529160       4.95433583       5.59022435       0.00985175      -0.00275724      -0.00199372
H        6.95539602       5.62419291       6.64679283       0.01197002       0.00125505       0.00343665
H        6.53165650       4.27523391       5.83803386       0.01308171       0.00018580       0.00384248
N        1.62421535       0.01215265      11.25074562       0.01309152      -0.00458933       0.00223705
H        1.67452768      -0.00738570      10.21800032       0.04359248      -0.01877160       0.00529343
H        2.54288035      -0.27459772      11.56919970       0.00510082       0.01053400       0.03777033
H        1.54458787       0.99847641      11.52749386      -0.00148778       0.00156868      -0.01661831
N        1.03062691       9.39610155       6.01484419       0.00246642       0.00180799      -0.00260185
H        0.09442965       8.99321518       5.97259378      -0.00105892      -0.00007080       0.00221801
H        1.45931945       9.04430126       6.86543414       0.00254183      -0.00205296       0.00390737
H        1.56368182       9.00867224       5.24546322      -0.00143620       0.00701877       0.00367297
N        4.29060886       7.13456453      10.45025048      -0.00605525      -0.00192530      -0.00244209
H        3.90501014       6.46047162       9.79546501      -0.00651571      -0.00456869      -0.00239855
H        5.22322548       6.81897008      10.74595715      -0.00543212      -0.00047230      -0.00330826
H        4.42985012       7.97896177       9.90591141      -0.01003524      -0.00308198      -0.00231200
N       -0.01745588       3.41744527       8.70844269       0.00038863      -0.00572801       0.01028387
H        0.23045332       3.85288122       7.82803650      -0.00427572      -0.00921764       0.01077499
H       -0.13208946       4.17047094       9.38963862      -0.00721354      -0.00422682       0.00764287
H       -0.92955590       2.99196069       8.56675029       0.00024773      -0.01372624       0.01204590
N        8.65582708       9.63395009       2.90824391       0.00703759       0.00147994       0.00977428
H        7.69486584       9.64480314       2.57418797       0.00070962      -0.01476011       0.02298089
H        9.08194981       8.79067979       2.52032737       0.01066775       0.00622438       0.00360786
H        9.11644859      10.45393440       2.53468181      -0.01303551       0.00583383      -0.00091735
N        0.23547788      10.93854982       2.00775580      -0.00577211       0.00668635      -0.00780685
H        1.02573370      11.52864196       2.30714467      -0.00447696       0.00319609      -0.00345880
H       -0.60121525      11.50366749       2.19662048      -0.00408301       0.00831631      -0.01176521
H        0.22654566      10.09752580       2.58494353      -0.01065775       0.00664264      -0.00601663
N        8.62889318       2.01890379       7.68011065       0.01119384      -0.00556017       0.00401472
H        7.80272438       1.43264185       7.78892780       0.00727354      -0.00223654       0.00228421
H        9.18137727       1.57588352       6.94891942       0.00990912      -0.00606020       0.00583556
H        8.29977662       2.91770415       7.32577245       0.01316231      -0.00363395       0.00389926
N        2.30388297      -0.37254598       8.33328382      -0.00274613      -0.01119729       0.01222020
H        2.39939090      -1.36322361       8.55861912       0.00307313      -0.00750072      -0.00574287
H        3.21380368       0.00828711       8.10289460       0.00909515      -0.00389086       0.00037326
H        1.76515150      -0.36512053       7.47187291      -0.00848621       0.01263807       0.02674930
N        0.83222563       7.60139788       3.14712946      -0.00048327      -0.00309391       0.00433850
H        0.55820059       6.71168741       2.72549592       0.00019305      -0.00625443       0.00893398
H        0.05101142       7.82679859       3.75748372      -0.00136627       0.00102844       0.00132513
H        1.61421976       7.38340773       3.76082503      -0.00107339       0.00090762       0.00603039
N        2.55371259       4.61891643       4.70480224       0.00317103      -0.00100335      -0.00512561
H        2.39244552       4.29602844       3.75651133      -0.00051635       0.00282295      -0.00457123
H        2.94512594       5.55995892       4.64094521       0.00251908       0.00004471      -0.00254413
H        1.62799361       4.73573257       5.10421272       0.00429930      -0.00219742      -0.00009869
N       10.55112144       9.19697147       0.18311528      -0.00603765       0.01178040      -0.00892293
H       10.36157258       8.86486807      -0.76114247      -0.01074834       0.01690711      -0.01002243
H        9.68908730       9.65578314       0.47132389      -0.00173622       0.01655245      -0.00458056
H       10.57344374       8.35496372       0.79051229      -0.00799262       0.00923175      -0.01162934
N        2.33180991       5.60510034       7.86875597      -0.00934755      -0.00512898       0.00298055
H        2.97884641       5.33368940       7.13574408      -0.00456316       0.00634718       0.00134990
H        1.45263943       5.81601497       7.38982285      -0.01019973      -0.01057224       0.00239720
H        2.15232607       4.76416136       8.40773415      -0.00091199      -0.00993712      -0.00310632
N        3.87515336      10.52290514       4.29617329      -0.00477420       0.00096726      -0.00054041
H        3.56175211      11.17051654       3.58086780      -0.02274767       0.00949366       0.00148977
H        4.84242132      10.75804685       4.48831504      -0.00950091       0.00570621      -0.01702826
H        3.34683392      10.77366112       5.12612984       0.00201484      -0.00359491       0.00352189
N       10.90043297       6.09535020       6.61846947       0.00499383      -0.01245940      -0.00075055
H       10.38466943       5.81785768       5.77637815       0.00415210      -0.00493771      -0.00508026
H       10.68906442       7.08836190       6.69976042       0.01352712      -0.01109620       0.00148887
H       10.44054174       5.63611478       7.39809791      -0.00214878      -0.01075090      -0.00546519
N        5.85454878       0.29531213       8.11466229      -0.00239491       0.00514678      -0.00243004
H        5.33288893       0.63276955       7.31042175       0.00070775       0.00243933      -0.00761910
H        5.62782418       0.93929696       8.86956659      -0.00164093       0.01589512      -0.00877566
H        5.48419558      -0.61854858       8.34509121      -0.00694453       0.01393467       0.00472426
N        6.02633628       5.12882470       3.14226499       0.00505017       0.01063466       0.00422800
H        5.48498067       4.35808810       3.51988666       0.00125492       0.01399853       0.00789912
H        6.75139237       5.32522131       3.82735477       0.00761704       0.00846085       0.00183834
H        6.54595897       4.75411924       2.34897604       0.00027027       0.00580390       0.00383159
N        2.00408811       1.60541642       2.84409276      -0.00300635      -0.00594532      -0.00130995
H        1.39928053       1.89761679       3.61106724      -0.02059844       0.00378598      -0.02381679
H        1.76421533       2.18865647       2.04497691       0.03376197      -0.01159076      -0.01112612
H        2.94363262       1.88144365       3.10649000      -0.00198413      -0.00287189       0.03421154
N       10.83400968       0.20810300       9.10611044      -0.00240377      -0.01844668       0.01595175
H       11.63761905       0.83067003       9.09883129       0.00266894      -0.02452301       0.03301691
H       10.04679121       0.83059632       8.91384313       0.00464883      -0.00964636       0.01384678
H       10.92460465      -0.32741090       8.24591818       0.00378128      -0.00892303       0.01106236
N        5.74809845       8.58535774       1.98761280       0.00640176      -0.00941625       0.00384818
H        4.91803292       8.83802157       2.51379759      -0.00000458       0.00122134       0.00112537
H        6.19470493       7.84540043       2.52190792      -0.02053005      -0.02868441      -0.00422195
H        5.43162082       8.12715503       1.13878927       0.00841237       0.01894622      -0.00624749
N        3.20027587       2.15122631       6.64594703       0.00452353      -0.00351723      -0.01005236
H        3.20089103       2.99792079       6.07373342       0.00697444      -0.00390113      -0.00958495
H        3.30769215       2.44370034       7.61193460       0.01893360      -0.00416742      -0.01043631
H        2.24685707       1.80723147       6.58644898       0.00100781       0.00547925       0.00044611
N        8.24466502      10.23165403       9.74522032      -0.01093190      -0.00604090      -0.00212821
H        7.75668859      10.76033007       9.02510391      -0.01420587      -0.00434254       0.00219244
H        9.13708207      10.70796284       9.86949514      -0.01032358      -0.00728515      -0.00497209
H        7.71129289      10.37023696      10.59699838      -0.00683340      -0.00695264       0.00238850
N        9.44441779       9.00435181       6.00710387       0.00961388      -0.00269902       0.00323132
H        8.65950706       8.51633665       6.42928818       0.00841512      -0.01882203      -0.00684905
H        9.19596841       9.10510482       5.02026501       0.01119146       0.00509993       0.00265056
H        9.42747251       9.95005144       6.37727295      -0.00220385      -0.01226312       0.01469219
N       11.70181486       5.54748014      -0.59406119      -0.00573745       0.00356853      -0.00132570
H       12.52435433       6.09437022      -0.82539425      -0.00111439      -0.00230086      -0.00694098
H       11.87258308       5.11326907       0.31539742      -0.00119410      -0.00041005      -0.00455147
H       10.95881974       6.21455902      -0.40525108       0.00324181       0.00920289       0.00667847
N        8.57800579       3.85432821      10.39167808      -0.00301763       0.01413789       0.01041903
H        9.45176960       4.35020347      10.25022746      -0.01071978       0.00691298      -0.00402874
H        8.66314268       2.98713751       9.87035067       0.00024157      -0.00604843      -0.00397845
H        8.53881041       3.67049182      11.39391917      -0.00212952       0.00706391      -0.00572546
N        7.49188216       7.42416046       8.13435867      -0.00170413      -0.00545529       0.00105327
H        8.31016543       6.84476381       7.97745288       0.00714674      -0.00914055       0.01094760
H        6.90508620       6.89727929       8.77224943      -0.00229818      -0.00234973      -0.00392102
H        7.80681461       8.24834293       8.64639016      -0.00366358      -0.00357680      -0.00426396
N       10.66237695       0.14852919       5.57542801      -0.00095505       0.00004671       0.00168583
H       11.14668975       1.00889445       5.32570743      -0.00128542      -0.00246811      -0.01299413
H       10.09024958      -0.10243779       4.77569225      -0.00859568      -0.00759188       0.01086035
H       11.37214898      -0.57592735       5.66253197      -0.00079530       0.00079088       0.00316301
N       11.27203109       3.04208701       4.73434910       0.00213791      -0.00131229      -0.01044308
H       11.48136323       3.65797497       3.94133704      -0.00307973       0.00706612      -0.00538258
H       11.22926540       3.65825276       5.54065050       0.01722194      -0.01127801      -0.00143730
H       10.30357546       2.77449705       4.57927735      -0.00063233       0.00638679      -0.00083900
N        1.58546893       8.36922080       9.08835468      -0.00136147      -0.00100783      -0.00102544
H        0.59056610       8.33380770       8.89704459       0.00105020       0.00734303       0.00360079
H        1.69726288       8.48723439      10.09108044       0.00422918      -0.00314422       0.00104442
H        1.96283960       7.45541400       8.83250392      -0.00750663      -0.00519826      -0.00161920
N        4.04041913       7.35244825       4.90822115       0.00321633       0.00287567      -0.00566493
H        4.36589438       7.32447878       5.86771686       0.01897103       0.00499946      -0.01636361
H        4.00675102       8.33425588       4.63810089      -0.00181498       0.00062224      -0.01138488
H        4.75535131       6.90628971       4.33901295      -0.00073488       0.00057650      -0.01955332
