146
Lattice="17.226480113057633 0.0 0.0 0.0 17.226480113057633 0.0 0.0 0.0 17.226480113057633" Properties=species:S:1:pos:R:3:forces:R:3 energy=-1484431.125 stress="-0.0007970634615048766 0.0004465190431801602 0.0002203112599090673 0.0004465190431801602 -0.0009388076141476631 0.00014045876741874963 0.0002203112599090673 0.00014045876741874963 -0.0010974814649671316" pbc="T T T"
Ni      14.88671953      17.51987840       1.57384705      -0.00419584      -0.01418374      -0.00801882
S       14.05308383      12.74197671       0.40737157       0.00637114       0.00234346      -0.01002598
S       15.99578438      13.53610013       4.16129216      -0.00468034       0.00191033      -0.00067464
S       13.16438523      12.22430279       2.48983397       0.00499866      -0.00823722      -0.00913581
S       14.51295771      11.84172202       3.82809344      -0.00332579      -0.00187692       0.00027506
O       15.17608296      11.84769226       0.32964507       0.02191460      -0.01017582       0.00564277
O       15.18020373      14.38503328       5.01034779       0.00040495      -0.00244236      -0.00235665
O       14.31837924      14.15646222       0.45551321       0.01395842      -0.02638698      -0.00083673
O       12.84608475      12.33738314      -0.28815706       0.03750944      -0.00945878      -0.00380719
O       16.97333187      12.72087779       4.83623041      -0.00120974      -0.00312030       0.00146163
O       16.32109218      14.04907802       2.85802632      -0.00110155      -0.00302327       0.00155139
Cl      10.64269977       7.24007672      15.86541002       0.00304319       0.00156176      -0.00056520
Cl       9.87712147       7.44615857      18.63533612       0.00124144      -0.01054114      -0.00045669
Cl       8.30704941       8.79951102      16.59750249       0.00704193       0.00359170       0.00559068
Cl      10.95569392       9.76923225      17.26526943       0.00861174      -0.00712067       0.01167440
C        9.94976271       8.32183245      17.08935090       0.00498176      -0.00330377       0.00422191
Cl       8.74584242       6.18592800       6.48503792       0.01502039       0.00531054       0.00117636
Cl       8.88403389       6.39696060       9.37444822       0.01089869       0.00197327       0.00161159
Cl       8.58523817       8.78813766       7.77963702       0.01606336       0.00296855       0.00398532
Cl      11.08843437       7.32693778       7.73821412       0.01407540       0.00125437       0.00632527
C        9.32471933       7.18204760       7.85090521       0.01412946       0.00237294       0.00311292
Cl       4.78816388       8.63392044      14.31108705       0.02106215       0.00939271       0.00607125
Cl       6.52193554       6.40752837      13.64658177      -0.00253069      -0.00256124      -0.01225164
Cl       4.69006869       7.43736778      11.66653503      -0.01862732       0.00855065       0.00967062
Cl       3.67798416       5.97894128      13.96251761      -0.00040600       0.01733729       0.02192415
C        4.91887644       7.11561825      13.39403081      -0.00020291       0.00831003       0.00638776
Cl      13.67161670      17.14766670      10.29803236       0.01221840       0.02128106       0.01064818
Cl      12.57124322      14.47764733      10.57720632       0.00922734       0.02126464      -0.02934825
Cl      15.00906200      15.19764733      11.97635718       0.01019636      -0.00083258      -0.01691908
Cl      15.03041817      14.89516795       9.09185156       0.01574564       0.03617792      -0.01388079
C       14.07486404      15.42370510      10.48755963       0.01017497       0.01924372      -0.01227821
Cl       9.10894268      11.89702745       2.84197201      -0.00304040       0.00256792      -0.00082543
Cl       6.46644815      10.77570658       3.27270675       0.00045651      -0.00180265       0.00426927
Cl       8.01361225      11.77081329       5.51974990       0.00216789       0.00013629       0.00095391
Cl       8.79170050       9.32999528       4.16500674       0.00518566       0.00267649      -0.00085881
C        8.08984087      10.94188994       3.94473346       0.00127714       0.00088014       0.00099232
Cl       3.27238454       5.01732684       5.10466439       0.00223458       0.00165710      -0.00154999
Cl       4.38811731       3.30226581       7.15611976      -0.01053984      -0.00472052       0.00018120
Cl       6.00013095       4.02299109       4.87800817      -0.00086802      -0.00737600       0.00787900
Cl       3.74515598       2.23312482       4.53830279      -0.00606538       0.00057158      -0.00159767
C        4.35057616       3.65309905       5.41921982      -0.00386866      -0.00235285       0.00086755
Cl       1.77148439      16.10255969       9.58468279      -0.02646077      -0.00587073      -0.00272134
Cl       1.95750031      17.79326190       7.24995459      -0.02849814       0.00248301       0.00776097
Cl       4.20247149      16.11852915       7.98326395      -0.01682931       0.01060915       0.01607685
Cl       3.51804646      18.40114312       9.62750795      -0.03446202       0.00280687       0.00952265
C        2.86725833      17.10364575       8.60106921      -0.02748222       0.00205233       0.00679211
Cl      11.59226771      10.96197935       8.50982693       0.02567321      -0.00138105       0.01554304
Cl      11.72319922      10.50507852       5.65257192      -0.00232187       0.01564327       0.01274067
Cl      13.92810331       9.69025447       7.35134990       0.01130360       0.00108212      -0.01361214
Cl      13.42312581      12.50743880       6.89953083       0.01389068       0.00381440       0.00719480
C       12.66464364      10.92451995       7.10358322       0.01215315       0.00492159       0.00550200
Cl      14.20030887      11.41341376      12.41633902       0.00109500      -0.01057023       0.00398244
Cl      15.53034254       9.32275005      10.91854354       0.00581200       0.00192171      -0.00956917
Cl      16.76918204      10.41224772      13.30423078       0.00462699      -0.00791239      -0.00563115
Cl      16.59411180      12.01491121      10.89900843      -0.00421959       0.00509998       0.00400022
C       15.77166133      10.79735992      11.88360848       0.00176852      -0.00300851      -0.00176837
Cl       8.38831899       2.71204211       8.24903329      -0.01005620      -0.00630996      -0.00421511
Cl      11.08844287       3.43464583       9.03250677      -0.01025498      -0.01083246      -0.00300157
Cl      10.61862198       2.09546743       6.50298969      -0.01097071      -0.00574289      -0.00482291
Cl      10.28796711       0.64996884       8.99674367      -0.01301586      -0.00931174      -0.00763500
C       10.09597285       2.22301028       8.19926587      -0.01087008      -0.00859167      -0.00511771
Cl       2.93905066      13.13081209      10.23259324       0.00278063      -0.00176471      -0.00048807
Cl       5.00116114      11.12485135       9.91127173      -0.00266570      -0.00903322       0.01526868
Cl       2.24617392      10.47194866       9.30482620      -0.00365382      -0.00562668       0.01851824
Cl       3.06105453      10.88151420      12.05164708      -0.00367228       0.01201998       0.01560080
C        3.30836896      11.40258968      10.37560133      -0.00155744      -0.00121420       0.01226024
Cl       6.97613328       0.43538571       5.43283565      -0.01924971      -0.00811399      -0.00831962
Cl       8.33494962       1.63741102       3.16793040      -0.00796416      -0.00997338      -0.00157976
Cl       5.89694051       0.14639438       2.74973901      -0.00985333      -0.00234495      -0.01214778
Cl       8.30741808      -1.25778813       3.50232484      -0.01684582      -0.00941122      -0.00448959
C        7.37390750       0.23373539       3.72077511      -0.01355096      -0.00747719      -0.00666500
Cl      12.15546149      14.90177459      15.34815492      -0.00151389       0.00475633       0.04614231
Cl      13.14725456      17.30073240      16.69060572       0.01650113       0.01775034       0.00536290
Cl      10.42648285      17.20178268      15.63387334       0.01101923       0.01331168       0.01868043
Cl      12.68863488      17.29568502      13.81282397       0.00491215      -0.01714276       0.01047873
C       12.08467198      16.64728146      15.34550639       0.00659196       0.00306985       0.01910397
Cl      17.21488560       9.34669787       5.13115969       0.00326827       0.00407055      -0.01571411
Cl      17.67615338       7.30676641       3.11225848       0.00219664       0.00160775      -0.01339370
Cl      16.80304610       9.95590438       2.32679571      -0.00383866      -0.00135100      -0.01395467
Cl      14.97316795       8.18245491       3.71914641       0.00242889      -0.00256692      -0.00783151
C       16.66721024       8.71936978       3.57436692       0.00093138       0.00043893      -0.01271750
Cl      16.20448953       2.09380970       4.12919336       0.00164736      -0.01555587      -0.01224195
Cl      13.97502698       2.24474396       2.22789672      -0.00251502      -0.01618303      -0.00585019
Cl      15.58694764       4.61643725       2.83841611       0.00127576      -0.01741217      -0.01461349
Cl      13.78111062       3.54368175       4.82453451       0.00504425      -0.01172733      -0.00926168
C       14.93092932       3.15884490       3.55195203       0.00160386      -0.01550011      -0.01066747
Cl      14.81408478       5.55547907      16.34323406      -0.00575084      -0.00293261       0.00367475
Cl      14.36744652       7.65154733      14.39116614       0.00163618      -0.01380265      -0.00769401
Cl      16.84283488       7.59193947      15.91472642       0.00160927      -0.01472899      -0.00811877
Cl      14.35070279       8.28459447      17.21550407       0.00569853       0.00554198      -0.01312435
C       15.08063203       7.28457238      15.96921548       0.00072394      -0.00663267      -0.00619255
Cl      11.86737601      14.97331097       4.54926389       0.00040764      -0.00835592       0.00214408
Cl      13.56916109      17.16442218       5.38062021      -0.00265372      -0.00289376      -0.01056981
Cl      11.42642792      17.62164820       3.48223860      -0.00846156      -0.01403818      -0.00635506
Cl      13.75880247      16.02244408       2.65532790      -0.00787687      -0.01171494      -0.00663400
C       12.62386984      16.48550679       4.08076996      -0.00431103      -0.00894961      -0.00576407
Cl       2.96365963       7.87982021       7.05959704       0.00245789       0.00209817       0.00187778
Cl       5.66320591       7.48627873       6.07537606       0.00400507       0.00677502       0.00411257
Cl       4.65850402      10.15680099       6.48515531      -0.00124349       0.00432652       0.00495689
Cl       3.62078429       8.54408247       4.31420528       0.00418136       0.00369510       0.00333393
C        4.23003654       8.51974400       5.98459625       0.00239389       0.00416362       0.00362421
Cl       8.33213553       4.12981766      11.80988297      -0.00264826      -0.01778516      -0.00002500
Cl       9.14489589       4.13764698      14.59290375       0.00781259      -0.00015566      -0.00385123
Cl      10.99229127       5.02532876      12.54862748      -0.00971156       0.00983930      -0.01412368
Cl      10.28294892       2.22145123      12.73950475       0.01966226       0.00466263      -0.00078699
C        9.69362170       3.87096237      12.91777217       0.00451851      -0.00073519      -0.00489521
Cl       6.39017952      12.67019466      -0.41623143       0.00469375       0.00422990      -0.00082672
Cl       3.60534972      12.48065597       0.36268227       0.00237364      -0.00879788      -0.01521111
Cl       4.67385269      15.02065412      -0.54055434      -0.00354970      -0.00289369      -0.00384513
Cl       5.47986582      13.94528246       2.01496180      -0.01237021      -0.00558425      -0.00286740
C        5.04243235      13.52474629       0.35790141      -0.00213418      -0.00313460      -0.00565758
Cl       2.44930744       1.86799784      16.66724460      -0.00764459      -0.00089484      -0.00099766
Cl       1.00525960       4.27570257      17.26610041      -0.00765145      -0.00181544       0.00180298
Cl      -0.81537705       1.09840021      17.59779435       0.00081080      -0.01340313      -0.00146306
Cl       0.50312499       2.87796515      14.81301554       0.00449109       0.00678924      -0.00564301
C        1.25525468       2.95847769      16.29125121      -0.00476436       0.00200343      -0.00069394
Cl       9.11096916       8.40380892      12.63007549       0.00119212       0.00726137       0.00705708
Cl      11.72331652       8.55287644      11.37687562       0.00882551       0.00939518       0.02239969
Cl      11.17060645      10.08636948      13.77690615      -0.01027799       0.02033007       0.00679791
Cl       9.92198348      10.82848890      11.28464498      -0.00095087      -0.00020570      -0.00431699
C       10.48602921       9.46567590      12.27196128      -0.00100448       0.00943862       0.00796447
Cl       4.84782191       3.09700202      11.94465378      -0.01785711       0.00745028       0.00920196
Cl       5.81678797       2.24250858      14.53550429      -0.01014975       0.01964679       0.01319191
Cl       6.40286119       0.65349497      12.18076802      -0.00797257       0.02090085       0.00939833
Cl       3.69577456       0.76020644      13.22332214      -0.00295323       0.00195663       0.01936252
C        5.20052463       1.68374857      12.96369430      -0.00922137       0.01433408       0.01492599
Cl       2.85404819      12.18909091       4.01203821      -0.00299203       0.00610596      -0.00368285
Cl       4.91676400      13.63963949       5.44209918      -0.00691301       0.01010152      -0.00161766
Cl       2.33304537      13.21992265       6.66831313      -0.00206503      -0.00633505       0.00067937
Cl       2.58540762      15.04345211       4.42739783      -0.01413566       0.00288939       0.00781366
C        3.14952430      13.51953485       5.13476647      -0.00626636       0.00301431       0.00058484
Cl       6.80566895      11.45036953      13.09592271       0.01666091       0.01098925       0.01310098
Cl       8.79159198      13.38822266      13.92243553       0.01122212       0.02819368      -0.01388136
Cl       6.04681552      14.21701745      13.47084391       0.00512582       0.00892884      -0.00235966
Cl       7.71681481      13.49140917      11.22863545      -0.00562056      -0.00056428      -0.00710702
C        7.34087300      13.13251784      12.93625712       0.00718335       0.01209840      -0.00249806
Cl       6.21963787       6.65129207       2.31721468      -0.00449648      -0.00511891      -0.00196925
Cl       4.02229728       7.01707063       0.46997464      -0.00662723      -0.00834900       0.00094478
Cl       4.44478582       4.43210085       1.71028754       0.00710687      -0.01016122      -0.00930169
Cl       6.30159781       5.38535797      -0.28794070       0.00160944       0.00595370      -0.00633687
C        5.25581086       5.87430745       1.05740035      -0.00067472      -0.00407931      -0.00500602
Cl      -0.08164906       3.96667521      11.12313686      -0.00202078      -0.00269502      -0.00300971
Cl      -0.39936801       6.13923017       9.22450283      -0.00074428       0.00081125       0.00187758
Cl       2.25095275       5.18102828       9.89128436      -0.00239968      -0.00636078      -0.00607434
Cl       0.70345222       6.66289687      11.85620130       0.00582186      -0.00651950      -0.00017309
C        0.62568401       5.49856594      10.52745123       0.00013924      -0.00363457      -0.00174242
