147
Lattice="11.623077779098958 0.0 0.0 0.0 11.623077779098958 0.0 0.0 0.0 11.623077779098958" Properties=species:S:1:pos:R:3:forces:R:3 energy=-117081.453125 stress="0.0010103211970999837 0.0006476850539911538 0.00020336274610599503 0.0006476850539911538 0.0007710068603046238 0.0007114196487236768 0.00020336274610599503 0.0007114196487236768 0.0003027334751095623" pbc="T T T"
Ni      12.81142715      11.82343720       0.08888033      -0.00883928      -0.00951004      -0.01164807
B        7.77926016      11.32510757       8.94491592      -0.00029958       0.01513636       0.00761623
F        6.78187746      11.00037249       9.88916113      -0.00260240       0.01855206       0.00731862
F        7.56053224      10.64453770       7.76413299       0.00425346       0.00637007       0.01182276
F        7.74348759      12.70838898       8.71712235      -0.00032867       0.01291788      -0.00213902
F        9.03680013      10.98381928       9.49998002      -0.00207829       0.01954879       0.01454401
B        9.65765782      10.44521451       3.70210241       0.00253730       0.01450041       0.00320005
F       11.00621925      10.09890286       3.52327948       0.00027579       0.00919405      -0.00308901
F        8.85808149       9.29862049       3.63779730      -0.00340062       0.01917279       0.01174468
F        9.48793045      11.09079814       4.92224667       0.01242246       0.01876873       0.00330693
F        9.28594980      11.31881522       2.64432031       0.00118648       0.01532221       0.00371891
N        3.43649302       4.01214240       0.36881885      -0.00624713       0.01896305       0.00055864
H        2.47323659       3.80595197       0.12595729       0.00046941       0.01702258      -0.00231284
H        4.00506251       3.23522896       0.05173238      -0.00455462       0.01513354      -0.00623451
H        3.72106163       4.81185007      -0.18846836      -0.00154620       0.01855878       0.00273586
N       10.92800601       0.67554797       0.43251439      -0.01368065      -0.01065283      -0.01971038
H       10.55223152       0.30740304       1.31026645      -0.01554994      -0.00373787      -0.01596126
H       10.32705520       0.31752743      -0.31064216      -0.00793764      -0.01879520      -0.01894033
H       10.81422282       1.68694042       0.45203316      -0.02280205      -0.01162377      -0.02079170
N        3.23714451       6.35390933       2.82396390      -0.00474454      -0.00203414      -0.00681920
H        3.43163750       5.72253315       2.05047571      -0.00948727      -0.00448254      -0.00706909
H        4.12646113       6.78762634       3.06776818      -0.00248876      -0.00503836      -0.01185861
H        2.66113144       7.10077491       2.45023620      -0.00235417      -0.00005534      -0.00590859
N        6.03467414       3.85611318       8.98206369      -0.00200965      -0.00487625       0.00438807
H        5.69790485       2.90827485       8.83156489      -0.00101474      -0.00287023      -0.00378110
H        6.74758699       4.01610318       8.27606136       0.00174725       0.00119031       0.00782901
H        5.25988071       4.47460791       8.77210927      -0.00080834      -0.00287262       0.00560623
N        3.60007697       8.96283643      -0.36296226      -0.01078384      -0.00421056       0.00066532
H        4.01751318       8.05133991      -0.18179479       0.00534233       0.00201035       0.00370726
H        4.36974523       9.58992195      -0.56624320       0.00036102       0.00662875      -0.00648449
H        3.02453328       8.87522053      -1.19620408      -0.00030766      -0.00435763       0.01595622
N        6.24240224       6.96432460       6.41800744       0.00771746      -0.00113939       0.00967090
H        6.50061997       6.53302458       7.29946355       0.01376124      -0.00899070       0.00432789
H        6.35635926       7.96191014       6.57052909       0.02408217      -0.00369575       0.01240694
H        6.99321493       6.71154872       5.78385577      -0.00442481      -0.00847708      -0.00205785
N        1.48396926       1.41641286      10.25787873       0.00125161       0.00036621      -0.00376299
H        1.56530198       0.80318064       9.42081133      -0.01062545      -0.00016591      -0.00457847
H        2.32923081       1.98426605      10.25282178       0.00606602      -0.00401357      -0.00875234
H        0.73369099       2.07720116      10.06981388       0.00574699       0.00500280       0.00308272
N        1.81781999       9.05182435       4.93120097      -0.01011331       0.00056656      -0.00425542
H        1.37067361       8.51366771       4.19374823      -0.01999113       0.00379148      -0.00171067
H        1.04253159       9.44947550       5.45105829      -0.00262548       0.00699656      -0.00023454
H        2.26449461       8.38066732       5.56510048      -0.01112956      -0.00348709      -0.00712584
N        5.59563533       6.49576272      11.92395326       0.00677887       0.00078407      -0.01260103
H        6.27992631       6.82221187      11.24529827       0.00697258      -0.00477599      -0.01538486
H        5.81517762       5.52516013      12.11181600       0.00534673       0.00288187      -0.00267211
H        5.73756921       7.00566739      12.79135219       0.00818378       0.00910751      -0.01660603
N        0.73179386       4.99791317       9.35083039      -0.00176161       0.00225088      -0.02044318
H        0.00285467       4.74695113       8.69147372      -0.01234964      -0.01888284       0.00118010
H        0.42363070       4.65652747      10.26079959       0.01327669       0.02505603      -0.00500460
H        1.55075680       4.44896812       9.08278697      -0.00543806      -0.00426661      -0.02035409
N        7.00618853       9.66059088       0.94174290      -0.00751337       0.02167438      -0.01776139
H        7.05143187      10.29405326       0.15068715      -0.00258840      -0.01492631       0.01610233
H        7.35250920       8.76260356       0.62673369       0.01595759      -0.00145704       0.01572135
H        7.65059993       9.99357780       1.65068287       0.00427858       0.02030617       0.00964275
N        1.41093170      10.28983906       1.19132111      -0.00856385      -0.00339967      -0.00359832
H        2.27457106       9.80830155       0.88678766      -0.01006708      -0.00334428      -0.00055620
H        0.61653724       9.65343572       1.00595767      -0.00799173      -0.00523026       0.00214069
H        1.43546157      10.44007904       2.19537189      -0.00048929       0.00266609      -0.00185400
N        8.06039348       3.24546550       6.33626568       0.00510187       0.00872090      -0.00959058
H        7.37064030       3.55571494       5.65484265       0.00153060       0.00440699      -0.00100628
H        7.66764107       2.46753284       6.85596373       0.00388558       0.00518860       0.00078614
H        8.83234625       2.86145848       5.79937044      -0.00062878       0.00322855      -0.00678080
N        1.65149413      -0.53814399       8.03793057       0.00754081      -0.00460345      -0.00064126
H        1.55840545      -1.49266114       8.37507671       0.00178868       0.00493749       0.01693884
H        2.26030171      -0.56375315       7.22519672       0.00205649      -0.02480926      -0.00484424
H        0.73795954      -0.19348201       7.73921963       0.00648277      -0.00200168      -0.00227608
N        0.03222340       6.71074298       3.27840704      -0.01079054      -0.00750570       0.01639549
H       -0.50123511       6.68443165       4.14287611      -0.00149792      -0.02147796       0.02046554
H        0.88514755       6.18868101       3.45287253       0.00125365       0.00961652       0.00533717
H       -0.49687516       6.17518853       2.60020659      -0.00609950      -0.01954277       0.01858254
N        2.51407596       4.35385487       5.12648822       0.00466543      -0.00658081      -0.00910683
H        2.69261707       5.03834289       4.38511421       0.00762401       0.00114583      -0.00269832
H        1.77111677       3.74297857       4.80450194       0.00013398       0.00489977      -0.01286218
H        3.33910061       3.76678901       5.18553148       0.00167086      -0.01466362      -0.02445790
N       10.58675615       8.62849633       0.82011276      -0.00003085      -0.01175480      -0.00087186
H       10.32311100       7.78400535       0.31306758      -0.00598648      -0.01052772       0.00143064
H        9.76580798       9.22436875       0.82919295       0.00326459      -0.00687160       0.00064641
H       10.74191611       8.35132037       1.78716246      -0.00167809      -0.01384534       0.00010254
N        3.04254617       7.00609622       6.93859140      -0.00272423       0.01347357       0.02034955
H        4.03391117       6.88646135       6.74465830       0.01105990       0.00549144      -0.00135521
H        2.58940209       6.12898357       6.70297291       0.00742519      -0.01169656      -0.01899786
H        2.92176560       7.17278485       7.93027391      -0.00274172      -0.01688075      -0.02642170
N        3.92339703      11.45694297       5.06266447      -0.00088048      -0.01786710       0.02860272
H        4.85666597      11.22763375       4.74078573      -0.02745989       0.00154828       0.02878608
H        3.56994832      12.18262477       4.45018478      -0.01740392       0.00592172       0.02708757
H        3.33154132      10.63952048       4.89306044      -0.01747589      -0.00565546       0.00990756
N       10.47369441       5.45183949       6.22631110       0.00207836       0.00134486       0.00256692
H       10.76876458       5.97091072       7.04397182       0.00117682       0.00527672       0.00629614
H       11.19464738       4.76508281       6.03563094       0.00554492       0.00708928       0.00440865
H        9.63526360       4.93259837       6.48599790       0.00527196       0.00167065       0.00339212
N        4.55862774       0.74202258       8.34270120       0.00139908       0.00210071      -0.00234213
H        3.76549490       0.20135517       8.67131827      -0.00002706       0.00891060      -0.00368679
H        5.37823776       0.37713389       8.81160919       0.00006418      -0.00632682       0.00627640
H        4.64154813       0.50694351       7.35538826       0.00640924      -0.00340044       0.00241792
N        6.12740461       4.83616688       3.98736873      -0.00281496      -0.00273938       0.00873196
H        6.57847769       5.51642525       3.38389906      -0.01396422       0.00195414       0.00923829
H        5.59163295       5.40011113       4.64186257      -0.01361876      -0.01506613       0.00610569
H        5.45276194       4.35687138       3.40182839       0.00356204      -0.01563798       0.00298105
N        1.47612013       2.49151927       2.47967081      -0.00185274      -0.00332733      -0.02235665
H        1.54844941       1.88973732       3.30760645      -0.00738813      -0.00193511      -0.01732747
H        2.29041298       3.09292786       2.41984511      -0.00558144      -0.00478215      -0.01480611
H        1.50941525       1.87746053       1.66472330      -0.00008702      -0.01013926      -0.01896203
N       10.64998867       1.12945255       7.54168526       0.00341094      -0.00824240      -0.00458480
H       10.08975029       0.74002453       8.29345765      -0.00035550       0.00471836      -0.00162115
H       10.26005543       0.72448061       6.69364233       0.00018177      -0.01181836      -0.00212817
H       10.40551641       2.11385013       7.50894798       0.01315159      -0.00593377      -0.01432860
N        5.78280429       8.32332810       3.37568346      -0.00892115      -0.01034829       0.00885397
H        6.72534936       8.49294200       3.71351473       0.00336790      -0.00922707       0.00926826
H        5.15098542       8.57683744       4.12693066       0.00189111      -0.02205613      -0.00928190
H        5.65913429       8.98837822       2.61466406       0.00435065       0.00083187       0.00269433
N        2.70525285       3.09698918       8.02928768       0.00258990       0.00383226      -0.00894779
H        2.90483456       3.77526051       7.30141176       0.00148231      -0.00085650      -0.01712965
H        1.91917208       2.55630495       7.68191710       0.00064047       0.00319384      -0.00149270
H        3.49295665       2.44684228       8.09985343      -0.00000542       0.00332274      -0.01017648
N        7.31950626       7.99905778       9.47880978       0.00080925       0.00558820       0.00306453
H        7.81234667       7.96141341       8.58294153       0.00927584       0.01435899       0.00680877
H        7.71942374       8.81068989       9.93894512      -0.00653555       0.00230403       0.01425541
H        6.36982625       8.28631669       9.26459347       0.00253265       0.00644477      -0.00544329
N        9.28137045       8.43399418       6.94562386       0.00350049       0.00636910       0.00733034
H        8.87252356       9.18327906       6.39663890      -0.00533001       0.00853678       0.01326272
H        9.84046268       7.87430921       6.31141292      -0.00447821       0.00868272      -0.00198412
H        9.90991919       8.90253114       7.58794514       0.01013725       0.00452423      -0.00044994
N       11.60831469       4.49615275       0.65317098       0.02361771       0.00772001      -0.00348946
H       11.48361564       3.93118229       1.48585330       0.04297263      -0.01058342      -0.02212774
H       10.75122197       4.99364956       0.41976330       0.00655636      -0.00373887       0.00859943
H       12.29389756       5.20018779       0.90137110       0.00822339       0.02133165       0.00645372
N        8.61633547       3.17231019      10.65381304      -0.00185833      -0.00781663       0.01329442
H        8.58329420       3.02635915      11.65523257      -0.02580938      -0.01847231       0.02556390
H        8.58831791       2.25702313      10.21594748       0.00231269       0.00228213       0.01822528
H        7.72201810       3.58880575      10.38758272       0.00560549      -0.00257561       0.00893472
N        9.61500620       6.13554719      10.49108138      -0.00412234       0.00026348       0.00736548
H        9.49064997       5.13558304      10.32697597      -0.01567810      -0.00073928       0.01108707
H       10.30075766       6.46366716       9.82055118       0.00372832      -0.01205662       0.01134454
H        8.72989465       6.57901627      10.24849264       0.00279717       0.00847804       0.00006458
N       12.49217463       0.80223098       4.82135494       0.02062424       0.00863832       0.00275835
H       12.83080114       0.81787022       5.77429170       0.02170539       0.00202226      -0.01219793
H       12.34179956      -0.17205400       4.58231416       0.00282361       0.00448302      -0.00030499
H       11.57318259       1.23481144       4.84460437       0.01556397       0.01261301       0.00648283
N       10.34131609       3.06383175       4.00862786      -0.00379567       0.00493132      -0.00082280
H       11.18352936       2.98681730       3.43869608      -0.00854207       0.00486908      -0.01227116
H       10.04873825       4.03413736       4.00784292      -0.01882739      -0.01853261      -0.00777452
H        9.61437363       2.51829223       3.56091652      -0.00415960      -0.02356981       0.00112808
N        0.85504466       8.15137088       9.28824508       0.01041731       0.00485358       0.00562466
H        0.41571893       8.26241857       8.38021645       0.01031973       0.01429790       0.00736402
H        0.21087457       8.52192367       9.98094318       0.00914600      -0.00186588       0.00991835
H        0.90809152       7.13825992       9.43730482       0.00594689       0.00258297      -0.00656504
