149
Lattice="12.411411284589146 0.0 0.0 0.0 12.411411284589146 0.0 0.0 0.0 12.411411284589146" Properties=species:S:1:pos:R:3:forces:R:3 energy=-209589.71875 stress="-0.0018623282667249441 -0.0006211880536284298 -0.0009189337724819779 -0.0006211880536284298 -0.0006486179190687835 -0.00045601563761010766 -0.0009189337724819779 -0.00045601563761010766 -0.0015512744430452585" pbc="T T T"
Ni      12.30504822      12.39447157      -1.07958386       0.01753966      -0.01242931      -0.02200282
Cl      10.54619840      10.98107591      10.09710477       0.00238025       0.00087896      -0.01204711
O       11.12691484       9.66034744       9.97639281      -0.00619608      -0.00673246       0.00138394
O       11.57579501      12.06054571       9.62425828       0.00406665      -0.01150453      -0.02094199
O       10.64027938      11.43427534      11.58283960       0.00071429       0.02060950      -0.01708746
Cl       5.97097846      11.57682997      11.94183720      -0.01155376       0.01005799       0.01692915
O        7.34114460      11.64933467      11.35049257      -0.01408267       0.00490768       0.00983340
O        5.74467149      12.80982522      12.73901021      -0.00458084       0.01422215       0.01136720
O        5.97952607      10.42414060      12.89748240      -0.00845413       0.01492548       0.02271283
O       12.42314752       7.64738018       1.46721718      -0.00223041      -0.00889377       0.00310412
O       10.62322436       7.08644019       2.63908021      -0.00687590       0.00302320       0.00113524
O       12.67692988       6.58979986       3.43064296      -0.02344877       0.01237595      -0.00408727
C       11.32393231       8.23234932       0.74423100       0.00206316      -0.01580882      -0.00734434
C       10.11235743       7.56273135       1.38107521      -0.00292963      -0.00375000      -0.00220164
C       11.97576354       7.05231272       2.58092720       0.00861412      -0.01069984       0.02574730
H       11.46011699       8.00706064      -0.30929675       0.00500303      -0.03224379      -0.00243169
H       11.33869765       9.30879156       0.90762141       0.00490225      -0.01470798      -0.02164926
H        9.30464160       8.25714841       1.59242826       0.00249067       0.00219628      -0.00781152
H        9.76428268       6.70015597       0.81737702      -0.00747463      -0.00600183       0.00460634
O       11.54325419       3.51287273       2.54768376       0.00939108      -0.00860392       0.00631019
O       10.68185166       2.47763608       0.77565219      -0.00502874       0.00924894       0.00477767
O       10.96878609       4.72029816       0.73917541       0.00715335       0.02609372       0.00757319
C       11.72051273       2.10092132       2.78493046       0.00425977      -0.01151304      -0.00427559
C       10.71100358       1.49991614       1.83528288      -0.00029355       0.00004148      -0.00330967
C       11.06643572       3.67043145       1.29553476       0.00826387      -0.02774870       0.02797666
H       11.56505188       1.89311756       3.83814494       0.00677318      -0.01956999      -0.00274470
H       12.74174460       1.84209531       2.51372727       0.00311130      -0.01483511      -0.00744936
H       11.01118326       0.54073038       1.42194544      -0.00340833       0.00094220      -0.01441737
H        9.70731014       1.43349315       2.26356897       0.00108194      -0.00570758       0.00086135
O        8.30265847       0.87289651       6.60555379       0.00725704       0.00340363       0.01991701
O        8.15104367       3.04277629       6.12685219       0.00857966      -0.00185373      -0.00182211
O        6.36038981       1.94317524       6.96281430       0.01135993       0.01140273       0.02192980
C        9.64407541       1.26157362       6.25843072       0.00558737      -0.00349295       0.00618669
C        9.44323367       2.64056062       5.64148369       0.00438394      -0.00981307      -0.00632542
C        7.49137559       1.94966155       6.59072834       0.01075429       0.00518704       0.01368207
H       10.05320709       0.51291060       5.58688912      -0.00116497      -0.01105177       0.01079589
H       10.24161632       1.28515522       7.16951805       0.01230133       0.00446485       0.00133324
H       10.18144816       3.37060380       5.97039408       0.00809103      -0.00823155      -0.01922897
H        9.40095762       2.62061015       4.55237669      -0.00319961      -0.02109319      -0.00547904
O        9.65828267      10.48562225       2.49461397       0.00962630      -0.00228026      -0.00404108
O        8.42771140      11.81160269       3.78576716       0.02209380       0.00541148      -0.00036511
O       10.38492309      11.00044495       4.55849841       0.02330524       0.00381619      -0.01217008
C        8.58221642      10.95419590       1.64196783       0.00497438      -0.00157247       0.00179648
C        7.59265054      11.52347511       2.63578504       0.01317310       0.00427708       0.00643988
C        9.56146670      11.08708054       3.69584143       0.02104604       0.00252773      -0.00347185
H        8.17627381      10.12951874       1.06885574      -0.00107190      -0.00244549       0.00773291
H        8.97359859      11.69454033       0.95007058       0.00218786      -0.00520146      -0.00328094
H        7.11354325      12.43401683       2.28976560       0.01315247       0.00425103       0.00737511
H        6.83325216      10.80030576       2.93034221       0.01337084       0.00726250       0.01300770
O        3.09730808       0.48346097       4.07991360       0.01502201       0.00164452       0.00459257
O        2.64689609       2.50025147       3.25484845       0.00673777      -0.00784922      -0.01269707
O        1.44538705       1.72635571       4.99327088       0.00808251       0.00281335      -0.00540507
C        4.17863948       0.77842242       3.16744726       0.01428971      -0.00132996       0.00369486
C        3.62054680       1.93043060       2.35805235       0.01359108      -0.00790879      -0.00470629
C        2.32310962       1.58630865       4.19763247       0.01220948      -0.00038474      -0.00720686
H        4.39854935      -0.09937863       2.56831469       0.01631089      -0.00546068       0.01090667
H        5.04442047       1.07955508       3.75510106       0.01379871       0.00304373       0.00203863
H        4.36815924       2.68067557       2.12898477       0.01292104      -0.00727648      -0.00555423
H        3.11321354       1.61781452       1.44608937       0.02022830      -0.01548223      -0.00574866
O        6.35543722       5.63606773       3.73696898       0.00036754       0.00535122      -0.00732264
O        7.54289038       3.84909705       3.14556833      -0.00605962       0.00019239      -0.00303434
O        5.53274940       3.57339605       4.11124100       0.00413465       0.01817924      -0.00413692
C        7.47095664       6.17342611       3.00708614       0.00068818      -0.00046033      -0.01000456
C        8.37958523       4.96519161       2.78580293      -0.00168580      -0.00402127      -0.00289544
C        6.40383059       4.28103994       3.70925968      -0.01785260      -0.00446624       0.00353754
H        7.93020105       6.95782902       3.60569919       0.00174828       0.00119340      -0.01409930
H        7.09987549       6.59164080       2.07059570       0.00167614      -0.00608048      -0.01216444
H        8.67294996       4.83816899       1.74886972       0.00073478      -0.00723325      -0.00135165
H        9.25942108       4.96577808       3.42731083      -0.00478297      -0.00511312       0.00033066
O        7.60191497       2.38233836      10.85822875       0.00579803       0.02192059       0.01001675
O        9.50017525       3.51238395      10.66837813       0.00989568       0.01134321      -0.00479963
O        7.96510618       4.15945249      12.18125487       0.00905982       0.04274243      -0.01808596
C        8.37248426       1.65547111       9.88180472       0.00415164       0.00356007       0.02225586
C        9.46225279       2.65291343       9.51961763       0.00667840      -0.00562769       0.00726321
C        8.32689356       3.40996319      11.31601619       0.00829150       0.02301064      -0.00870824
H        7.71064061       1.39495597       9.06170164       0.00373378      -0.00697877       0.02608368
H        8.74131700       0.75298614      10.36202931       0.00175117       0.01098007       0.03719974
H       10.44287083       2.19952304       9.39600948       0.00530922      -0.00961088       0.01332258
H        9.20212360       3.26951205       8.65567216       0.00765409      -0.01690310      -0.00060895
O       10.67769079       8.17998166       6.89159147      -0.00825813       0.00387460       0.02146261
O        8.55767463       7.55640563       6.64572100      -0.00371031       0.00661442      -0.01465964
O        9.02727183       9.52574849       7.62966168      -0.01875106       0.00088561       0.00652742
C       10.71479876       7.00571402       6.04964728       0.00391990       0.01043885       0.01299953
C        9.34147510       6.40109983       6.28094970       0.00154486       0.00955153      -0.01186121
C        9.40002507       8.52169085       7.09889583      -0.01010117       0.00064117       0.00325781
H       11.54493418       6.37966888       6.36452535      -0.00195238       0.00674492       0.02077381
H       10.87053995       7.32454178       5.02249108       0.01988005       0.01825334       0.01841068
H        8.89444875       5.94906149       5.40106865       0.01534258       0.01755357      -0.02238616
H        9.31223755       5.69949090       7.11221624      -0.01056532       0.00263500      -0.01879475
O        2.42239536       4.81871389       1.07844221      -0.01861504       0.00649273      -0.01489356
O        2.74793274       6.92006015       0.40744295      -0.00354719       0.00179386      -0.01413384
O        1.21397355       5.63708371      -0.64669773      -0.02839482       0.01033401      -0.03543580
C        3.22990574       5.43541521       2.09679009      -0.01569611       0.00284743      -0.01366907
C        3.77594568       6.64805809       1.36716446      -0.00702560      -0.00657186      -0.01215732
C        2.04572060       5.77855859       0.18773852       0.02417171       0.01353946       0.01998639
H        3.98971031       4.73765414       2.43309076      -0.01794127      -0.00558186      -0.00770853
H        2.57866162       5.70177233       2.92932696      -0.01269731       0.00635101      -0.01069239
H        3.90049046       7.52042900       2.00636042       0.00276658      -0.00256649      -0.00933090
H        4.70558411       6.44402193       0.83073636      -0.00363752      -0.01112936      -0.00857231
O        5.12341629       9.41387031       9.76565521      -0.01177996       0.00795978       0.00586408
O        4.32772581      11.32765855       8.95699545      -0.00706605       0.00921535       0.00364938
O        3.14619483      10.18881483      10.49577560      -0.00431037       0.00507425       0.00462866
C        6.16444350       9.89341333       8.90350289      -0.01062104       0.00502783       0.00905174
C        5.53575343      11.10639012       8.21605071      -0.00757051       0.00365758       0.00428897
C        4.11105406      10.29654144       9.79879256      -0.01041573       0.00821254       0.00061882
H        6.44864313       9.09969848       8.21849257      -0.01156857       0.00266582       0.01261947
H        7.01777897      10.17039716       9.51843637      -0.01254004       0.00532542       0.01100457
H        6.14872190      12.00272090       8.27457242      -0.00502530       0.00153518       0.00033595
H        5.27148109      10.92524767       7.17448293      -0.00988460      -0.00106342       0.00647390
O        0.99465312      10.89754524       1.64610487      -0.00882763       0.00730606      -0.00317483
O        2.87812539      11.45827302       0.65066056      -0.00197098       0.00011069       0.00696293
O        1.07140988      12.72087270       0.33039958       0.00267562       0.00185230      -0.01060602
C        2.01299758      10.00224834       2.21604062      -0.01397313       0.00664410       0.00520122
C        3.12064660      10.11903167       1.19135118      -0.00881970       0.00042051       0.01043414
C        1.61745542      11.72704297       0.83430628      -0.00188668       0.00237363      -0.00305190
H        1.57821031       9.01211443       2.28617065      -0.01651332       0.00827926       0.00711225
H        2.26489274      10.39521791       3.19960689      -0.01755399       0.00964016       0.00480235
H        4.13760356      10.11106330       1.56572845      -0.01115492      -0.00265461       0.01562649
H        3.02904335       9.43628936       0.34752443      -0.00812256      -0.00075358       0.01150537
O        4.08351694       5.02972383      10.67960793      -0.00429478       0.00517899      -0.00800449
O        3.55684736       3.77656593       8.91823788       0.01042720       0.00613177      -0.01258737
O        3.17244935       5.99408511       8.84898080       0.00733131       0.00818944      -0.01752532
C        4.71597027       3.75932760      10.91037388      -0.01070631       0.00303340       0.00032479
C        4.01189704       2.85010687       9.91829119       0.00213361       0.00513846      -0.01015216
C        3.56680093       5.02956618       9.42569786       0.00971574      -0.00258178      -0.00701028
H        4.57402799       3.47099630      11.94892968      -0.02890845       0.00395651      -0.00262499
H        5.77312485       3.86693474      10.69472324      -0.00743741       0.00070408       0.01735999
H        4.66661534       2.12225887       9.44529610       0.00851336       0.00699547      -0.00401312
H        3.14396782       2.34572378      10.34830665      -0.00121659       0.00182326      -0.02068861
O        2.79472695       8.72073559       5.20097106       0.00089410      -0.01963520      -0.00792301
O        3.69731137       8.75943339       7.23739848      -0.00830323      -0.00143158      -0.00457111
O        1.91481762      10.06199025       6.79186009       0.00197363       0.00929940      -0.02843022
C        3.77991403       7.68171084       5.17441768      -0.00394562      -0.02406459       0.00915968
C        4.49997064       7.81374413       6.51922196      -0.00710979      -0.00850555       0.00733125
C        2.71973085       9.25771540       6.45510246       0.00303471      -0.00678015      -0.01742506
H        4.44230470       7.85347066       4.32657098      -0.00264874      -0.03926700       0.00878900
H        3.27369625       6.72492925       5.05688713      -0.00563955      -0.02349973       0.02009312
H        4.52941246       6.89227892       7.09477601      -0.00587078      -0.00118321       0.01725742
H        5.50685791       8.21994934       6.41072160      -0.00702935      -0.01073384       0.00794351
O        7.37707301       7.16985051      10.32120638      -0.00521996      -0.01551729      -0.00286674
O        8.89851171       5.89360957       9.32759631       0.00948337       0.00877161      -0.00970620
O        6.71632742       5.46416979       8.99585932       0.02122951      -0.01604491      -0.00030953
C        8.64781445       7.80510346      10.56890456      -0.01321074      -0.00316995       0.00287974
C        9.63981723       6.69260013      10.27250909      -0.00103790       0.00959605      -0.00448340
C        7.57353252       6.12009546       9.50600999      -0.00223702      -0.01696819      -0.01052397
H        8.65189777       8.16578512      11.59367285      -0.01819833      -0.01159252       0.00486282
H        8.75247706       8.64117833       9.87979687      -0.02194875       0.00173143       0.00838235
H       10.55475746       7.03656271       9.79693540      -0.00505930       0.02257937      -0.00118321
H        9.87336654       6.05978892      11.12947844       0.00393765       0.00678653      -0.00806749
