138
Lattice="12.715697471788678 0.0 0.0 0.0 12.715697471788678 0.0 0.0 0.0 12.715697471788678" Properties=species:S:1:pos:R:3:forces:R:3 energy=-1162526.0 stress="7.537781493738294e-05 0.00036704821104649454 0.0003477253776509315 0.00036704821104649454 0.0001644055882934481 9.857236727839336e-05 0.0003477253776509315 9.857236727839336e-05 -0.0011603293241932988" pbc="T T T"
No      12.58208233      12.09771705       3.86923424      -0.03894763      -0.03107774       0.00251499
F       11.27215025      13.48806325       2.99631996       0.00745566       0.00201559      -0.00733814
F        0.68007089      12.06711544       5.83341260      -0.01468793       0.00085848      -0.01141930
O        8.48185752      11.54500767      11.93350582       0.00258812       0.00127992      -0.01202547
O       10.62744511      11.30059965      11.85285206       0.00366008      -0.00182642      -0.00817911
O        9.32180213       9.49315781      11.46330246       0.00216072       0.00599349      -0.00148815
C        7.14321293      10.99265672      11.86489611       0.00185071      -0.00080264      -0.00535497
C        6.18247739      12.14242001      12.01027579       0.00330785      -0.00053909       0.00308461
C        9.45905537      10.66247391      11.72548984       0.00017932      -0.01164734      -0.01024570
C       11.77374378      10.45470800      11.68471078       0.00082252      -0.00630713      -0.00421863
H        7.02376933      10.46984226      10.91673275      -0.00340017       0.00250870      -0.00621235
H        7.03223771      10.25074816      12.65750839       0.00785061      -0.00234622      -0.00689250
H        5.16009467      11.76454151      11.97049249       0.00283837      -0.00056577       0.00781363
H        6.32364559      12.65146956      12.96378065       0.00842882      -0.00353938       0.00389373
H        6.31399612      12.87045514      11.20997502      -0.00130704       0.00168997       0.00465523
H       11.81914495       9.71166872      12.48045050      -0.00570183      -0.00711562      -0.00496304
H       12.63041775      11.11974127      11.73521676       0.00272715      -0.00879127       0.00056182
H       11.73387038       9.93769109      10.72908288       0.00397654      -0.00518028      -0.00456426
O       11.10214293       6.83213630       8.32822046       0.00813549      -0.00106308       0.00334366
O       10.97587420       8.68805980       7.23865787       0.00022893      -0.00325424       0.00177088
O       12.50909495       7.15774493       6.57860272      -0.00499654      -0.00514859      -0.00918454
C       11.62397751       5.49432739       8.51966940       0.00824368      -0.00129089       0.00071225
C       10.56496274       4.69991282       9.23950982       0.01185605       0.00182538       0.00897986
C       11.62377894       7.51291705       7.31927051      -0.00119638      -0.00280100      -0.00012004
C       11.37884296       9.49435069       6.12270214      -0.00642815      -0.00577793      -0.00131578
H       11.85471652       5.07216283       7.54261333       0.00015731      -0.00201023      -0.00096852
H       12.54950451       5.57977922       9.09310991       0.01285052      -0.00164942      -0.00669578
H       10.93870667       3.69503423       9.44009541       0.01012073       0.00098771       0.00714825
H       10.29970721       5.16544834      10.18887675       0.02028570       0.00381878       0.01035373
H        9.66853342       4.62752011       8.62582955       0.00729458       0.00442955       0.01530175
H       12.37319433       9.91488887       6.27083532      -0.00271729      -0.01099153      -0.01030579
H       10.64499300      10.29393481       6.05804720      -0.00320129      -0.00231020       0.00560635
H       11.36109766       8.89841550       5.21372773      -0.01790464      -0.00598192      -0.00134215
O        4.83456543       3.87098350       8.55065931       0.00798710       0.00327007       0.00663892
O        3.39260126       4.85653156       9.81067183       0.00771202       0.00285892       0.00667213
O        5.13273177       3.78701883      10.79855311       0.00748396       0.00340140       0.00585479
C        6.02984089       3.06797031       8.36999300       0.00874604       0.00436130       0.00701642
C        6.28223563       2.98008305       6.88798377       0.00460101      -0.00196407       0.00678605
C        4.51509159       4.13213431       9.82146931       0.00862020       0.00278226       0.00765377
C        2.94839728       5.32520307      11.09351377       0.00604846      -0.00041264       0.00726892
H        6.85462318       3.54676166       8.89934867       0.00933194       0.00828514       0.00236747
H        5.85812872       2.08618059       8.80958127       0.01155046       0.00612605       0.01184647
H        7.12911285       2.31919458       6.70360847       0.00572813      -0.00078437       0.00778720
H        5.41161885       2.57383846       6.37132737       0.00411144      -0.00674520       0.01147212
H        6.51583449       3.95963016       6.47085065       0.00112599      -0.00350517       0.00148068
H        2.53176499       4.49931241      11.66989594       0.00756717      -0.00238952       0.00546883
H        2.19324062       6.07335296      10.87247737       0.00419052      -0.00205424       0.00790924
H        3.77691423       5.76851865      11.64273519       0.00450382       0.00056668       0.00852390
O        2.95845669       8.16685089       7.15087710      -0.00234741      -0.00282957      -0.00256702
O        1.81515091       9.89591891       7.69734231       0.00327104      -0.00267228       0.00623937
O        1.82056358       8.12277493       9.11414503      -0.00711045      -0.01289988      -0.00590611
C        3.41604293       6.81384408       7.36597264      -0.00793248      -0.00510917      -0.00569445
C        4.15907622       6.40376606       6.12229096      -0.00577497      -0.00416484      -0.00415438
C        2.16733399       8.65937713       8.08900488      -0.00229436      -0.00621849      -0.00128561
C        1.00260554      10.60904286       8.63362817      -0.00262260      -0.00727554       0.00400963
H        4.04586979       6.80638968       8.25573969      -0.01149699      -0.00952037      -0.00349313
H        2.55270325       6.18003375       7.56544730      -0.01170444      -0.00150844      -0.01046707
H        4.54270789       5.39198281       6.25335047      -0.00892482      -0.00542201      -0.00476925
H        3.49180148       6.42809834       5.26259646      -0.00335912      -0.00051970      -0.00596093
H        4.99794221       7.07067160       5.92059206      -0.00384849      -0.00547154      -0.00000059
H        0.05610743      10.09064337       8.77727713      -0.00197005      -0.01013669      -0.00210968
H        0.83888172      11.58328980       8.18449965      -0.00262573      -0.00699291       0.00452660
H        1.50991405      10.68738842       9.59526808      -0.00772992      -0.00732152       0.00683406
O        3.11745151       9.52710569       4.56154568      -0.01140380       0.00396812      -0.00753140
O        1.80448815       7.89497840       4.12119267      -0.00360438      -0.00062105      -0.01674367
O        1.08622707       9.98081477       3.66675963      -0.01130144      -0.00354363      -0.00971254
C        3.41824861      10.93595141       4.72684317      -0.01776314       0.00496939       0.00260769
C        4.77626156      11.00098032       5.37712535      -0.01451868       0.00313348      -0.00480604
C        1.93802037       9.20104829       4.09657294      -0.00784355       0.00044754      -0.01048028
C        0.64390744       7.35101451       3.47525301      -0.00588536       0.00085680      -0.01269429
H        3.41611740      11.40183897       3.73677321      -0.02575417       0.01321228       0.00673869
H        2.63120615      11.38260599       5.33661602      -0.01633176      -0.00256287       0.00997892
H        5.02065739      12.03656701       5.61679701      -0.01303987       0.00237551      -0.00345872
H        4.77659062      10.41886247       6.29809101      -0.00890781       0.00055526      -0.00643939
H        5.55591332      10.60426277       4.72669012      -0.01966998       0.00450664      -0.01164266
H       -0.25100821       7.61550272       4.02917490      -0.00381967      -0.00455149      -0.00699757
H        0.79319823       6.27743891       3.50257207      -0.00561361       0.00128636      -0.01500154
H        0.58769128       7.70267513       2.44742762      -0.01151305       0.00465882      -0.01100931
O        7.43784588      11.88196295       8.32162541      -0.00099822       0.00739132      -0.00124365
O        5.36453384      12.42506091       8.51267553      -0.00099544       0.00853702      -0.00050180
O        5.91953223      10.23253503       8.66356686      -0.00221455       0.00959057      -0.00615513
C        8.51232795      10.90463230       8.30338235      -0.00201231       0.00613350      -0.00179834
C        9.79892339      11.68026965       8.38555437      -0.00141644       0.00452563       0.00492594
C        6.21715322      11.39233865       8.50902054      -0.00232299       0.00507104      -0.00267932
C        3.99572630      12.07090025       8.75824288      -0.00081502       0.00916868       0.00199233
H        8.38895340      10.22417909       9.14552924      -0.00548907       0.00291586      -0.00527644
H        8.43097081      10.31902917       7.38505370       0.00013670       0.01012413      -0.00442275
H       10.63538834      10.98436462       8.41801824      -0.00216217       0.00335148       0.00511842
H        9.92549999      12.33127527       7.52048645       0.00219351       0.00774232       0.00801782
H        9.81937804      12.29372301       9.28593714      -0.00324354       0.00095740       0.00726539
H        3.61724157      11.42299811       7.97223271      -0.00358615       0.01200640       0.00095302
H        3.45135368      13.01046871       8.76955768       0.00095498       0.01021218       0.00698575
H        3.90562251      11.56372945       9.71802665       0.00092087       0.00622813       0.00039318
O        8.15081700       6.25228750       7.35765894      -0.00612549      -0.00062759       0.00447395
O        9.38709753       5.68670589       5.69282230      -0.00711672      -0.00491997       0.00460269
O        8.02740653       7.48614062       5.45129257       0.01411417       0.00975442       0.01231647
C        7.19189991       7.10601177       8.03430742       0.00029525       0.00635192       0.00616360
C        7.58138265       7.18771942       9.48574916      -0.00067168      -0.00230995       0.00667310
C        8.46670403       6.57229191       6.10561622      -0.00060904       0.00554657       0.00618654
C        9.72013421       5.78082641       4.29903009      -0.00143935       0.00115895       0.00700022
H        7.17671930       8.07945763       7.54990227       0.01007729       0.00779498       0.00921738
H        6.21471431       6.63912507       7.90658547      -0.00371560       0.01552543       0.00315532
H        6.86224185       7.81314585      10.01530757       0.00349319       0.00063045       0.00883526
H        7.58063884       6.19792987       9.94463972      -0.00848747      -0.00427377       0.00256419
H        8.56958235       7.62911817       9.60682664       0.00236037      -0.00978960       0.00946209
H        8.88782947       5.41990582       3.69677536      -0.00448698       0.01806647       0.00108366
H       10.59244611       5.14801197       4.16269098      -0.00988695      -0.01012114       0.00516215
H        9.93951458       6.80686780       4.01549468       0.01466088       0.00040355       0.01599932
O        3.53776803       5.79586391       2.53855364       0.00250612      -0.00870419      -0.00813082
O        4.09959578       7.85163050       2.18659402      -0.00158102      -0.01367606      -0.00952168
O        5.71152399       6.38425805       2.81102664      -0.00622559      -0.00416523      -0.00032741
C        3.87233791       4.43706510       2.90145195      -0.00111645      -0.00521926       0.00010093
C        2.62186780       3.79260479       3.44266015      -0.00376672      -0.00155616      -0.00439490
C        4.56952454       6.65117228       2.53520657       0.01575994      -0.01205470      -0.00160798
C        5.08420909       8.89866924       2.20142794      -0.00464448      -0.01181386      -0.00626481
H        4.24360645       3.93133238       2.00647286      -0.00680020      -0.01037616       0.00034800
H        4.67292468       4.45913919       3.63958214      -0.00648487      -0.00198525       0.00555113
H        2.81953327       2.74541108       3.67665425      -0.00805518      -0.00607753      -0.00508612
H        2.29874814       4.29013733       4.35750448      -0.01000165       0.00186701      -0.00782378
H        1.80981081       3.83415592       2.71673764       0.00554338       0.00045180      -0.01419398
H        5.66460205       8.85223947       3.12102722      -0.01530592      -0.00465778       0.00090095
H        4.52021831       9.82614014       2.14874126      -0.01086721      -0.01644659      -0.01847075
H        5.75317593       8.79151536       1.35290847       0.00349072      -0.01791742       0.00129744
O        9.56493074       8.15120018       1.89407774       0.02092700       0.00581688       0.00042561
O        9.15555185       6.16280007       1.14785177       0.01021996       0.00478426      -0.00388162
O        7.63249921       7.78771745       0.75581052       0.04300296       0.00232217       0.02136970
C        9.10600630       9.47538680       2.25300594       0.01813227       0.00694984       0.00111549
C       10.31373590      10.31678473       2.58975439       0.02198040      -0.00113396       0.00734118
C        8.67664804       7.40930183       1.21785776      -0.02773714       0.02366149      -0.01648179
C        8.24420569       5.22014072       0.55360643      -0.00033423       0.01421133      -0.00823905
H        8.54867867       9.88981719       1.41591216       0.02452630       0.01231115       0.00273284
H        8.43142467       9.37082610       3.10691889       0.01744214       0.00508260      -0.00057173
H       10.00314491      11.33807942       2.83327274       0.02129781      -0.00218263       0.01711763
H       10.85711210       9.88729781       3.43564029       0.02232653      -0.01126967       0.00139208
H       10.99250631      10.37565839       1.73759401       0.02047683       0.00849591       0.00670394
H        7.33592285       5.15758398       1.15149948       0.00131667       0.01831298      -0.00772089
H        8.77484950       4.27222913       0.55226349      -0.00374928       0.01142792      -0.00974440
H        7.99148466       5.52000669      -0.46067493       0.00390988       0.01857831      -0.00606900
