142
Lattice="12.016225531673472 0.0 0.0 0.0 12.016225531673472 0.0 0.0 0.0 12.016225531673472" Properties=species:S:1:pos:R:3:forces:R:3 energy=-1135713.625 stress="0.0011097058886662126 3.220414600946242e-05 -0.0005975214007776231 3.220414600946242e-05 0.0004637599049601704 -0.0004564996634144336 -0.0005975214007776231 -0.0004564996634144336 0.0014401617227122188" pbc="T T T"
No      11.15115699      11.32082725       1.22154534      -0.00851900       0.01392940       0.02317978
O        9.28445778       9.89050564       7.09832972       0.00264975       0.00343597      -0.00088853
N        8.60885408      12.08292176       6.38180287       0.01016247       0.00107098      -0.01432097
C        8.93522866      10.99951163       6.74887337       0.00579108       0.00405419      -0.00848564
O        9.15503185      12.34099338      12.43691636      -0.02164024       0.01720944       0.03145123
N        7.04064669      11.18404341      12.29521493      -0.00744534      -0.01499590       0.00094101
C        8.07649162      11.73963377      12.34486913       0.01289749       0.01576108       0.01736482
O       11.98528514       2.54227040       4.24706005      -0.00458145      -0.00571033       0.00719523
C       11.69070191       3.12316823       2.99001414       0.00154444       0.00925389       0.01230812
C       11.48850817       2.06140210       1.91721054       0.00204109       0.02038372       0.00182474
H       10.80179193       3.75707651       3.03339980       0.00226504       0.01021731       0.01678033
H       12.53778648       3.75130148       2.70043858       0.00347674       0.01117930       0.02171288
H       11.31240678       2.50281427       0.93283887       0.00012647       0.02952813       0.00628521
H       12.39178181       1.43715939       1.84874189       0.00195566       0.02107603      -0.00609079
H       10.60582670       1.45955840       2.17286152       0.00174358       0.01940354      -0.00231088
H       11.19881819       2.53891352       4.82867601      -0.00442136       0.00056618       0.00757614
O        8.29892475       3.21642766       2.35185433       0.00611347      -0.02969183      -0.01608682
C        8.25283911       2.47028025       3.57015049       0.00150895      -0.01673567      -0.00861660
C        7.07413405       1.52466237       3.63407845      -0.00521505      -0.00811449       0.00123057
H        9.18249074       1.91018449       3.72168797      -0.00244671      -0.02189508      -0.00291250
H        8.20823085       3.21235659       4.36913418       0.00674297      -0.00850913      -0.01565799
H        7.11604257       0.95124304       4.56344864      -0.00672020      -0.00228080       0.00493649
H        6.13242216       2.07237413       3.56727846      -0.00152412      -0.00222760      -0.00059160
H        7.10095135       0.81681663       2.80097717      -0.01167312      -0.01403224       0.00613703
H        8.33799998       2.58363070       1.62607009       0.01348394      -0.03804645      -0.00888424
O        2.72496466       2.10681927       1.04622226       0.00177747      -0.00092953      -0.00052315
C        3.40257104       2.56420099       2.21477976       0.00498186      -0.00212345      -0.00199628
C        3.32714874       1.51446458       3.30635160      -0.00171357       0.00036794      -0.00001475
H        4.43978380       2.81797614       1.97980177       0.00685471      -0.01021416      -0.00310774
H        2.92476005       3.48879955       2.56251340       0.01207322       0.00219947      -0.00350194
H        3.74262081       1.89579862       4.24142817       0.00160336      -0.00097451      -0.00088201
H        2.28809267       1.24229560       3.50149283      -0.00351495       0.00776490       0.00093836
H        3.88549213       0.62096392       3.02419781      -0.00811535      -0.00405911       0.00102486
H        3.32117116       2.13555780       0.27477238      -0.00135000       0.00486301      -0.00303199
O        6.01054084       3.59879766       6.38168157       0.02419418       0.00035107       0.00500458
C        5.15019409       4.46498724       5.64510129       0.01557443      -0.00449947       0.00899762
C        5.84545501       5.14664255       4.48435270       0.00407657      -0.00528097       0.00153810
H        4.26571432       3.91935383       5.29331216       0.01457617      -0.00851518       0.01762152
H        4.80117519       5.20537437       6.36755639       0.01888470      -0.00330505       0.00942403
H        5.15331722       5.81724836       3.97357331      -0.00285433      -0.00987491       0.00462988
H        6.69503671       5.73149243       4.83882476       0.00432971      -0.00054798      -0.00685851
H        6.19962918       4.42690489       3.74497477       0.00134522      -0.00615731       0.00087978
H        6.24840362       2.85353668       5.82054903       0.02162608      -0.00111663       0.00554675
O       10.07223811       2.37601629       6.31001468      -0.00557661       0.01002940       0.00262904
C       10.97205936       2.49105517       7.41971565       0.00392973      -0.00402738      -0.00356424
C       10.72677335       1.47265259       8.51507304      -0.00670284       0.00048798      -0.00159040
H       11.99977129       2.40310731       7.04686590       0.00039721      -0.02131103      -0.00935340
H       10.85828284       3.50273868       7.81532580       0.02200778      -0.00156528      -0.00483070
H       11.35245932       1.71407036       9.37757819      -0.00178504      -0.00744331      -0.00302224
H        9.68366966       1.47851644       8.83147190      -0.00599405       0.01476997       0.00038140
H       10.97066750       0.46027122       8.19227232      -0.02105020      -0.00293683      -0.00149821
H        9.55582520       1.52147899       6.36829837      -0.00075786       0.00634602      -0.00586493
O        6.72031607       2.48438456       9.85712128      -0.00489959       0.00150630       0.00242203
C        7.18492948       3.41499167      10.84211546      -0.00145334       0.00377822      -0.00058599
C        8.69381767       3.51304521      10.89444171      -0.00130957       0.00161219      -0.00357916
H        6.74196598       4.39941442      10.66298604      -0.00028303       0.00378382      -0.00311281
H        6.78244859       3.04881017      11.78930262      -0.00003017       0.00725399       0.00145948
H        8.99271922       4.20564151      11.68514890       0.00081060       0.00188406      -0.00460383
H        9.13102510       2.53546341      11.10221549      -0.00246391       0.00131515      -0.00252941
H        9.08973533       3.88772437       9.94831709      -0.00231380      -0.00023741      -0.00494024
H        6.94308909       2.81906872       8.97994760      -0.00796342      -0.00003964       0.00107704
O        9.04271095       5.05977895       7.51620334       0.00766353      -0.00317210       0.00715059
C        8.80389840       6.31479924       6.88254807       0.00126719      -0.00679132       0.00290287
C        9.52081299       6.45964321       5.55703279       0.00129271      -0.00729163       0.00257462
H        7.72793723       6.48660652       6.75805252       0.00039142      -0.01283673       0.00159681
H        9.16202282       7.07756622       7.57374256      -0.00292729      -0.00245550       0.00048107
H        9.35676217       7.46502151       5.16517352      -0.00365664      -0.00938936      -0.00101506
H       10.59421406       6.31190163       5.67869892       0.00196490      -0.00132161       0.00370112
H        9.15149540       5.73827590       4.82260888       0.00537547      -0.01177870       0.00480707
H        8.93130858       4.35045511       6.86926429       0.00709811      -0.00656638       0.01065065
O        4.69755497       5.52965304       1.20090388      -0.00493234       0.00376484       0.00819221
C        3.48220143       6.24639050       1.02495987      -0.00676849       0.00073460       0.00769964
C        2.97444025       6.85886220       2.31435502      -0.00689553       0.00334899       0.00652432
H        3.60620534       7.01437277       0.24855807      -0.00926298      -0.00113377       0.00535977
H        2.76853883       5.51473393       0.64397557      -0.00552741      -0.00201890       0.01047080
H        2.04620547       7.41114049       2.14898974      -0.00828755       0.00094572       0.00579489
H        2.78405700       6.08137191       3.05502964      -0.00475393       0.00517260       0.00907366
H        3.70577129       7.55728289       2.72696746      -0.00795202       0.00625432       0.00389557
H        5.39009213       6.15687339       1.42871227      -0.00661650       0.00557619       0.00896078
O        6.36483558      10.04231016       9.81919899      -0.00094914       0.00418842      -0.00168958
C        5.09066148      10.43736411       9.35959425      -0.00315952       0.00488354       0.00182080
C        4.10905253       9.27854729       9.43321601      -0.00317755       0.00491440       0.00198723
H        4.72155141      11.29474959       9.93391924      -0.00130774       0.00373778       0.00507429
H        5.18245575      10.76145739       8.31768435      -0.00559876       0.00757682       0.00258189
H        3.12671174       9.56334445       9.04724145      -0.00374879       0.00572998       0.00379241
H        4.48326193       8.44417380       8.83750818      -0.00412452       0.00557092       0.00011824
H        3.99886971       8.93588877      10.46531512      -0.00201639       0.00353317       0.00159031
H        6.55339081      10.48713364      10.66788386      -0.00043568      -0.00221395      -0.00085108
O        1.32552802      10.22750144       0.49014406      -0.01539391       0.00370276       0.01250580
C        2.57822564      10.97672409       0.49040545      -0.01286066      -0.00129941      -0.00409219
C        3.65235829      10.28476658       1.28942132      -0.00804803       0.00141674      -0.00780803
H        2.88880602      11.13633765      -0.54422629      -0.02099978      -0.01087296      -0.00796649
H        2.32521576      11.94837376       0.91353702      -0.00490293       0.00318202      -0.00955796
H        4.56816102      10.87846976       1.27287699      -0.00687616      -0.00056003      -0.01795320
H        3.33644817      10.13931627       2.32377637      -0.00066142       0.00877019      -0.00454232
H        3.90172283       9.31187223       0.85951085      -0.01323172      -0.00198621      -0.00309117
H        1.46832334       9.36657680       0.08433398      -0.02312197      -0.00058162       0.01887816
O        3.99868420       2.36956403      10.59106360      -0.00042501       0.00870478       0.00684336
C        3.66452186       3.75836190      10.49555306      -0.00279216       0.00725412      -0.00494382
C        3.86578891       4.33188416       9.10892058      -0.00880194      -0.00752243      -0.01161033
H        2.61391500       3.82299845      10.78755145      -0.00165647       0.00851305      -0.00138899
H        4.24892550       4.32483220      11.22758852      -0.00097141       0.01504746      -0.01246861
H        3.57675346       5.38611318       9.10374210      -0.01087357      -0.00831017      -0.02300739
H        4.91060531       4.26782222       8.80160120      -0.00969493      -0.00893433      -0.01434832
H        3.26427280       3.80230126       8.36969775      -0.01012574      -0.01712674      -0.00361657
H        4.92374384       2.27075845      10.29187368      -0.00035794       0.00714464       0.00682638
O        6.03625324       8.93072670       6.26325209      -0.00186789      -0.01278967       0.00075445
C        4.99293222       8.64189012       5.34762162      -0.00287569       0.00243666      -0.00314622
C        3.75373487       9.49768866       5.52480710       0.00396651       0.01151890       0.00122383
H        5.35469173       8.71007982       4.31180443      -0.00059387       0.00736096      -0.00208801
H        4.74324617       7.59497959       5.52892997      -0.01192823       0.00326031      -0.01142699
H        2.95266708       9.14384863       4.87083185       0.00196230       0.02215435      -0.00210710
H        3.39192049       9.43986617       6.55070776       0.00238744       0.00753624       0.00054249
H        3.95266316      10.54425145       5.28412609       0.01265626       0.01151578       0.00831873
H        6.37288619       9.82087832       6.11121979       0.00515461      -0.01430237       0.00813913
O        9.10402667       8.06020707      10.78613147      -0.01058507       0.02586085      -0.00044195
C        7.97575228       7.38419953      10.18156226      -0.00046685       0.00900806      -0.00098309
C        6.93335663       7.14492507      11.24123829      -0.00286454       0.00009678      -0.00502709
H        7.56839958       8.01837547       9.39553584      -0.00490275       0.00104338      -0.00496343
H        8.31949752       6.43861645       9.75144352       0.01257378       0.01156396       0.00405663
H        6.06705504       6.64597964      10.80385439       0.00347003      -0.00797446      -0.00863604
H        7.32319744       6.50766956      12.03824525      -0.00131957       0.00382416      -0.00280367
H        6.60317544       8.09742270      11.65548446      -0.01345439      -0.00273564      -0.00689250
H        9.56866364       8.52128863      10.08127329      -0.02313835       0.04024899       0.00088668
O       10.03671542       9.08341993       1.09290847       0.00290361       0.00574934       0.00717103
C        9.30585436       9.17437708       2.33761931      -0.00278543      -0.00303026       0.00468447
C        8.02098995       8.39137611       2.36838369       0.00376660      -0.01424864      -0.00481626
H        9.99269475       8.83675265       3.11662726      -0.00341877       0.00023630       0.00649336
H        9.07542737      10.23531772       2.52728685      -0.01288045      -0.00553966       0.00680401
H        7.58560527       8.48690269       3.36533540      -0.00315716      -0.02207274      -0.00713131
H        7.31340982       8.79228740       1.64308830       0.00473483      -0.01763457      -0.00771908
H        8.19848672       7.33300305       2.17557599       0.01412667      -0.01183252      -0.00847219
H        9.48868412       8.73861165       0.34614393       0.00309467       0.01290394       0.00416456
O       11.76816064       9.49028178       5.93203772       0.00098535      -0.00149024      -0.00019810
C       12.02502797      10.83141767       5.57149721       0.01385301      -0.00574553      -0.00597334
C       11.40166066      11.19702821       4.23015839       0.02833772      -0.01029560      -0.01394743
H       11.65210922      11.52650759       6.33087300       0.01298100       0.00218174      -0.01358086
H       13.10981560      10.95523484       5.51756138       0.01520568      -0.01425234       0.00176444
H       11.68891589      12.21713894       3.95337404       0.04278064      -0.01560800      -0.02062622
H       11.76059895      10.46621252       3.48657209       0.02526146      -0.02234227      -0.00365578
H       10.31123983      11.14317708       4.29369055       0.02686849       0.00370406      -0.02082971
H       10.88568862       9.47811989       6.35050560       0.00078195       0.00620106      -0.00009997
