139
Lattice="12.112333358344948 0.0 0.0 0.0 12.112333358344948 0.0 0.0 0.0 12.112333358344948" Properties=species:S:1:pos:R:3:forces:R:3 energy=-1130593.75 stress="0.0011364526581019163 0.00026283586339559406 0.0002057909150607884 0.00026283586339559406 0.00031376653350889683 0.00014778215700061992 0.0002057909150607884 0.00014778215700061992 0.000838005798868835" pbc="T T T"
No      11.39530822      11.24658609       1.28054254       0.00314826      -0.00260966       0.00655251
O        7.46201830      11.19771514      11.00198140       0.00515759       0.01532557      -0.00486505
N        6.41221856      10.90531396       8.84452405       0.00060856      -0.00486369      -0.01115119
C        6.91711280      11.02593370       9.90030708       0.02316847       0.01064923       0.03382695
O        3.49449087      12.62725639       1.68934093      -0.00047928       0.00907779      -0.00371063
N        1.59458476      11.17680894       1.69252059       0.00563490       0.00078627      -0.00686985
C        2.54793911      11.91690424       1.68554878       0.00301354       0.00527825      -0.00504942
O        2.13992398       8.88253991       7.87110855      -0.00321633       0.00308448      -0.02022094
C        3.37846386       9.61800018       7.78882688      -0.00013858      -0.00080827      -0.00642297
C        4.43053821       8.81455350       7.04876962       0.00254303       0.00089085      -0.00467619
C        3.14499734      10.97375063       7.14580488       0.00925772       0.00456345       0.00177628
H        3.69474012       9.75509528       8.82453796      -0.00704251      -0.00939874      -0.00296903
H        5.37582850       9.35733806       7.06735710       0.00441098      -0.00271207       0.00623520
H        4.57309297       7.84382599       7.52479668      -0.00471601      -0.00349188      -0.01143770
H        4.11982496       8.66597034       6.01073695       0.00942715       0.01010491      -0.00809442
H        4.07168236      11.54829073       7.14912933       0.01127942       0.00128606       0.01205351
H        2.38315207      11.53289864       7.69249720       0.00725712       0.00342485       0.00022502
H        2.81548375      10.84287152       6.11163264       0.01569123       0.01282704      -0.00140978
H        1.85001904       8.73611024       6.96442355       0.00002834       0.01489773      -0.02328903
O        7.11246273       1.89553139      11.11314055      -0.00729376       0.01474667       0.01063520
C        6.18539748       2.39950785      10.15318063      -0.00275850       0.00380999       0.00180107
C        4.77025991       1.92730235      10.44357048      -0.00300193       0.00060111      -0.00342140
C        6.32027350       3.90813705      10.19189525      -0.00881184       0.00470281      -0.00912677
H        6.46405617       2.03097024       9.15295683       0.00462106      -0.00257289       0.00576681
H        4.06807616       2.37755535       9.73931720      -0.00073058      -0.00818205      -0.01113687
H        4.69985389       0.84240077      10.35203287       0.00195614      -0.00046629       0.00523398
H        4.47553158       2.21335807      11.45507213      -0.00992866       0.00766169      -0.00741166
H        5.66749199       4.38508339       9.46150197      -0.00685827      -0.00318678      -0.01587620
H        7.35540320       4.20710371      10.00995790      -0.00893325       0.00727793      -0.00611970
H        6.02855218       4.27851015      11.17613378      -0.01534680       0.01120856      -0.01338878
H        7.10406188       0.92203150      11.09666488       0.00235303       0.01272421       0.01080502
O       10.02630042      10.77684329      11.39180427       0.00880411       0.00396991       0.00284097
C       10.81197154      11.13784994      10.21887499       0.00949208      -0.00035584       0.00326362
C       11.90520457      10.10652042      10.06950739       0.00865087      -0.00264800       0.00791829
C        9.92412523      11.24490553       9.00162003       0.01183367      -0.00271513       0.00096506
H       11.25941230      12.12547660      10.41934295       0.01108170      -0.00044602       0.00085182
H       12.55508915      10.32517911       9.22140295       0.00937270      -0.00695154       0.00716056
H       12.53407775      10.05797138      10.96536608       0.00795746       0.00039271       0.00859684
H       11.46480100       9.12259839       9.90675099       0.00720449      -0.00257039       0.01152500
H       10.52805856      11.47967704       8.12467464       0.01359391      -0.00594135       0.00133646
H        9.17712158      12.02675411       9.12437666       0.01250590      -0.00143129      -0.00229172
H        9.39687259      10.30713033       8.82288516       0.01097473      -0.00267585       0.00310983
H        9.05072477      10.93789880      11.21461048       0.00658408       0.00929505       0.00205216
O        9.81819514       5.56103012       8.39560076      -0.00122017      -0.00261509       0.00231183
C        9.41691926       6.90479368       8.13550230       0.00525561      -0.00018615       0.00430602
C       10.43296929       7.59986678       7.23808521       0.00665623      -0.00477788       0.00219581
C        8.01153280       6.96868924       7.56012481       0.00390434       0.00748196       0.00811777
H        9.41993017       7.40170265       9.11240801       0.01028104      -0.00100058       0.00478667
H       10.18153569       8.65514380       7.11339031       0.01168675      -0.00327593       0.00346352
H       11.43306436       7.53125048       7.66765061       0.00752915      -0.00990480      -0.00040972
H       10.44589696       7.13253796       6.25047416       0.00177889      -0.00419782       0.00190380
H        7.67628882       8.00229380       7.45944900       0.00897698       0.00928433       0.00940321
H        7.30645241       6.44482796       8.20629416       0.00286189       0.01096734       0.00993429
H        7.98418718       6.49530200       6.57481111      -0.00126105       0.00802922       0.00792888
H        9.41987996       4.98507455       7.72285698      -0.00432009      -0.00005724       0.00193549
O        2.69922841       9.35801897       3.82279897      -0.00678681      -0.00116438      -0.00276410
C        2.64011442       8.01581012       3.34616923      -0.00769530      -0.00242722       0.00040966
C        1.20134434       7.53664314       3.22784487      -0.00822163      -0.00040285      -0.00305546
C        3.40317753       7.86031810       2.03849516      -0.00370663      -0.00745686       0.00325578
H        3.14125431       7.41884220       4.11450778      -0.01125550      -0.00122210       0.00374109
H        1.17110464       6.48827402       2.92901377      -0.00864411      -0.00150931       0.00034688
H        0.68800640       7.64217139       4.18539276      -0.01188932       0.00393375      -0.00542130
H        0.66685412       8.13770342       2.48308302      -0.00458435      -0.00235587      -0.00739636
H        3.43344275       6.80850294       1.74347149      -0.00578673      -0.00827534       0.00562945
H        4.42700051       8.22016671       2.14980214      -0.00299893      -0.01017737       0.00571817
H        2.92608655       8.43605846       1.24257575       0.00047486      -0.00787389       0.00030619
H        2.28167214       9.92548890       3.15278302      -0.00084234      -0.00123216      -0.00683867
O        8.35427515       3.61828738       6.88592309      -0.00436470      -0.00177439       0.00080431
C        8.95184784       2.46135706       6.26601742      -0.00033389       0.00044933       0.00051838
C       10.36285671       2.24876004       6.78474922      -0.00166869       0.00144242       0.00468814
C        8.05868192       1.25174147       6.44899551       0.00131819      -0.00196511      -0.00519735
H        9.00404467       2.72057796       5.20485404       0.00251538       0.00283082       0.00113469
H       10.84780999       1.43641664       6.23989458       0.00120816       0.00291993       0.00486089
H       10.95822240       3.15358584       6.65832841      -0.00235359       0.00254761       0.00841864
H       10.34736521       1.99652094       7.84671778      -0.00481096      -0.00065279       0.00415966
H        8.47852603       0.37492568       5.95547852       0.00481463       0.00021327      -0.00615871
H        7.06553179       1.43688882       6.03656557       0.00220841      -0.00288279      -0.00792325
H        7.93718699       1.00475932       7.50617498      -0.00142776      -0.00507123      -0.00605866
H        7.97602554       3.33456298       7.72722254      -0.00427739      -0.00332674       0.00040731
O       10.41246609       0.75818114       3.00468612       0.00335753      -0.00518981      -0.00611873
C       10.30034389       1.93904805       2.15798070       0.00112015       0.00308091       0.00476608
C       11.71440820       2.36221934       1.81488956      -0.00116715       0.00763142       0.00574507
C        9.43570420       1.63225985       0.92910112       0.00108156       0.01497468       0.00222790
H        9.83228380       2.72707351       2.75574048       0.00171542      -0.00439826       0.01449803
H       11.69300435       3.16050822       1.07465051      -0.00579962       0.03431034       0.03552657
H       12.26128408       2.71512793       2.68822134       0.00989729      -0.02620698       0.01170617
H       12.29036598       1.53256085       1.38125104      -0.01128069       0.02159505      -0.03259853
H        9.90795934       1.94770283      -0.00252874       0.00489628       0.01789711       0.00501287
H        8.45968129       2.10911107       0.95833451       0.00355953       0.02026474       0.00288987
H        9.23873151       0.55807873       0.84428504      -0.00352480       0.01639079      -0.00474063
H        9.51335849       0.45302141       3.24474345       0.00366142      -0.00922065      -0.00833993
O        4.92385938       4.15745429       2.12603807      -0.00519306      -0.00244999      -0.00459093
C        6.02686913       4.82339853       2.76449411      -0.00589040      -0.00167854      -0.00389290
C        6.83515163       3.85089673       3.60265655      -0.00766820      -0.00034839      -0.00032079
C        6.88555570       5.55013616       1.74476361      -0.00382137      -0.00412062      -0.00403386
H        5.54690363       5.55593339       3.41930714      -0.00675571      -0.00019330      -0.00607175
H        7.62765619       4.37111215       4.14303694      -0.00912419       0.00077015       0.00104615
H        6.20680050       3.34557793       4.33570631      -0.00951320       0.00073434      -0.00108413
H        7.29860405       3.09511873       2.96084792      -0.00580901      -0.00126663       0.00205094
H        7.66583854       6.12422652       2.24919864      -0.00282571      -0.00536357      -0.00404677
H        6.28253193       6.23402439       1.14757449      -0.00215177      -0.00333588      -0.00493930
H        7.37019538       4.83794679       1.07258304      -0.00504913      -0.00579095      -0.00329790
H        5.25496026       3.38382517       1.65429997      -0.00434273      -0.00207174      -0.00486851
O        8.15863796      11.43979765       3.51564709       0.00686753      -0.00219987      -0.00610140
C        8.53035599      10.13324154       3.03732103      -0.00224144      -0.00761953       0.00003724
C        8.66779757       9.15396651       4.18324872      -0.01153489      -0.00231293       0.00551260
C        7.60820428       9.67220802       1.93279529      -0.00554815      -0.00526078       0.00212854
H        9.53964748      10.29681896       2.61807463      -0.00031322      -0.01788392       0.00003275
H        9.07924673       8.20919312       3.82155217      -0.01867651      -0.00775704       0.01161464
H        9.33810153       9.54738194       4.94655380      -0.01035458      -0.00362842       0.00496206
H        7.69732404       8.95358355       4.64030512      -0.01435617       0.00792798       0.00455574
H        7.98632862       8.75579021       1.47763245      -0.01379286      -0.01126416       0.00745919
H        7.51484264      10.42199466       1.14760720       0.00153824      -0.00860322      -0.00207816
H        6.61433107       9.45944323       2.33569098      -0.00768064       0.00608497       0.00311130
H        7.20302365      11.46714227       3.63929862       0.00653934       0.00755563      -0.01295699
O        3.34356920       5.72124701      10.74268841       0.00212979      -0.00787425       0.00200987
C        1.94955643       5.65423090      10.42543354       0.00249434      -0.00697556      -0.00031832
C        1.30800275       4.43823070      11.07252247       0.00035772      -0.00521410       0.00096729
C        1.23347824       6.93916488      10.80128180       0.00342628      -0.00537437      -0.00363287
H        1.92629534       5.54614743       9.33801994       0.00399860      -0.00884940      -0.00019538
H        0.26078858       4.35558116      10.77497206       0.00025842      -0.00418257       0.00084417
H        1.83290851       3.52619451      10.78762067      -0.00072783      -0.00638777       0.00220583
H        1.34945444       4.53021653      12.16197870       0.00031199      -0.00397352       0.00087863
H        0.18437781       6.88515087      10.50248502       0.00370400      -0.00453030      -0.00497625
H        1.69471782       7.79024508      10.30212649       0.00517486      -0.00660498      -0.00464794
H        1.26776251       7.09040834      11.88431064       0.00248613      -0.00314163      -0.00394008
H        3.41969455       5.76109282      11.70179237       0.00091541      -0.01339142       0.00231969
O        2.43109062       4.32393455       3.45556607      -0.00479257      -0.00450444      -0.00295728
C        2.35874125       3.74645822       4.75788278      -0.00202477      -0.00211045      -0.00163954
C        2.67602076       2.25939365       4.72237245       0.00060208      -0.00176686       0.00112373
C        3.24708312       4.49179640       5.74569923      -0.00174093       0.00120509      -0.00430703
H        1.31497080       3.88139509       5.06206528      -0.00191432      -0.00328021      -0.00044237
H        2.56340450       1.81237742       5.71214451       0.00351548       0.00044362       0.00252497
H        2.01961324       1.73650285       4.02688811       0.00023530      -0.00490197       0.00371124
H        3.70435709       2.09544082       4.39061138       0.00022022      -0.00066905      -0.00080505
H        3.12729045       4.09219600       6.75501869       0.00066387       0.00260768      -0.00335220
H        3.00135631       5.55382720       5.76537542      -0.00362012       0.00086163      -0.00556332
H        4.29900671       4.38596523       5.46879155      -0.00198647       0.00260291      -0.00588473
H        3.30089404       4.12421230       3.06922398      -0.00488348      -0.00391427      -0.00378028
