149
Lattice="11.35039258569793 0.0 0.0 0.0 11.35039258569793 0.0 0.0 0.0 11.35039258569793" Properties=species:S:1:pos:R:3:forces:R:3 energy=-636373.4375 stress="0.0008997498662211001 -0.00010573642066447064 -0.0005133864178787917 -0.00010573642066447064 0.0021022295113652945 0.000590761163039133 -0.0005133864178787917 0.000590761163039133 0.0005873861373402178" pbc="T T T"
Os      11.49635719      10.86697184      -0.22198206      -0.00366479       0.00739121       0.00462574
S        3.17583660       9.95632491      10.53182762      -0.00813860       0.00662196       0.00216311
S        4.51925791      11.37712284      11.34740428      -0.00570276       0.00303842       0.00246584
O        2.85810967      10.51191350       9.21756057      -0.00452653       0.00047833       0.00573047
O        2.02522127       9.99651964      11.48925131      -0.00558174       0.00311206       0.00444815
O        3.74783166       8.63475723      10.48818533      -0.00545841      -0.00111160       0.00600846
S        4.79356772      10.20761524       2.62374219      -0.01218796       0.02744171       0.03374831
S        6.67201246      10.68770699       2.83867889      -0.00143969       0.00022766       0.00068539
O        4.58403473       8.94207838       1.95388467      -0.00702030      -0.01793420      -0.00733811
O        4.10937812      11.37837112       1.58517438      -0.00226872       0.00069077       0.00361693
O        3.95624351      10.44045097       3.78619830       0.01100746      -0.00173397      -0.01229200
O       10.31876814       4.03027515       7.57155497       0.00860156      -0.00937980       0.00257856
H       10.50063520       3.61217261       6.70860544       0.01051470      -0.00896475       0.00232217
H        9.92914002       4.90309749       7.39379303       0.01115730      -0.00829209       0.00203975
O        2.96393095       6.02064543       3.07511100      -0.00496288       0.00286512      -0.00221513
H        3.64809980       5.57702625       2.51858428      -0.00380955       0.00384586      -0.00122812
H        3.45908565       6.45006185       3.79123125      -0.00606801       0.00474649      -0.00219324
O        1.68736179       2.78360784       2.15611639      -0.00182425      -0.00294214      -0.00714085
H        1.55860877       1.82741037       2.09121858      -0.00247005      -0.00306537      -0.00695380
H        2.12406097       2.93602628       3.02744340       0.00066052      -0.00374831      -0.00776806
O       10.73458602       0.70375027       9.93323176       0.00182495       0.00589710       0.00007272
H       10.56429623      -0.16811695       8.61291648       0.00671331      -0.00020523      -0.00107893
H       10.12159699       1.52773523      10.02292736      -0.00164881       0.00359409      -0.00201456
O        8.42874582       9.95178680      -0.10136197      -0.00371936       0.01073759       0.00305146
H        9.36199729      10.32789401      -0.04780092      -0.00441678       0.01219318       0.00490675
H        8.05277411      10.04474090       0.78776169      -0.00427317       0.00757509       0.00360191
O        3.48507163       4.63971682       6.91986740       0.00792491      -0.00205794      -0.01449114
H        2.72255998       4.45220826       7.50090997       0.00890578       0.00329811      -0.01167647
H        4.27089906       4.30745379       7.41069581       0.00772143      -0.00359633      -0.01504038
O        6.68131868       9.41231474       9.29648579       0.01177379      -0.00865749      -0.00726864
H        7.17302984       9.80630385      10.05202449      -0.00398768       0.00059920      -0.00274411
H        6.79433969       8.46468870       9.46471973       0.04773581      -0.00497669      -0.01332781
O        9.11465984       6.65798081       7.25246461       0.00073621      -0.01485591       0.00465280
H        8.18364260       6.44654219       7.12093481       0.00489292      -0.03376385       0.00975347
H        9.43363786       6.90597375       6.36034105      -0.00769279      -0.01026522       0.00257620
O       10.76696495       4.44846742       2.01265980      -0.00257722      -0.00372343      -0.00392850
H       10.63380471       4.73528269       1.08890390      -0.00475457      -0.00312033      -0.00304205
H       11.55670536       3.87385113       2.01493554      -0.00231346      -0.00404065      -0.00545344
O        9.24241279       2.74781059       9.93209007      -0.00511929       0.00027576      -0.00248322
H        9.66843939       3.60745154      10.18884075      -0.00725309       0.00104980      -0.00195607
H        9.07811885       2.81927871       8.97159862      -0.00175878      -0.00097258      -0.00332606
O       10.20590068       5.13244688      10.72548625      -0.01081161       0.00160727      -0.00084916
H        9.53296420       5.83378019      10.59647126      -0.01079920       0.00099945       0.00062200
H       11.01431627       5.51352068      10.31908901      -0.01021565       0.00230178       0.00013636
O       10.15030072       0.71846631       3.39804440      -0.00227490       0.00397912       0.00761405
H       10.68241052       1.17631836       4.07463075      -0.00151617       0.00661279       0.00569364
H        9.54902304       1.45564657       3.09896665      -0.00317926       0.00242506       0.00590075
O        8.82966821       2.91865175       2.92759007      -0.00394105       0.00172970       0.00066265
H        9.49844486       3.53756343       2.52391367      -0.00253443      -0.00030279      -0.00074707
H        7.97035412       2.99368056       2.45757496      -0.00282144       0.00027567      -0.00136839
O        1.10306047       6.40087275       9.74242591      -0.00716203      -0.00700209       0.00556761
H        1.51787152       6.56506580      10.62382902      -0.00832087      -0.00532052       0.00555460
H        1.60602175       5.67771853       9.34239481      -0.00763211      -0.00918792       0.00776354
O        4.07419605       6.91546387       5.63324744      -0.00120097       0.00511445      -0.00535939
H        3.91718647       6.11357151       6.18841391       0.00451315       0.00192948      -0.00842359
H        4.43253326       7.60696154       6.21481143      -0.00254388       0.00454407      -0.00314056
O        2.14750779       1.29201374       7.57488978       0.01226611       0.00236419       0.00026668
H        1.60016938       0.82036687       6.91161592       0.01215695       0.00497398      -0.00195613
H        2.27881715       0.65542334       8.29557499       0.00678364       0.00135178       0.00024053
O        4.37906021       0.30526688       6.18962635       0.01373723      -0.00130768       0.00846316
H        4.07826572       0.02295680       5.30724998       0.01081075      -0.00560399       0.00575001
H        3.63822590       0.78936741       6.61074024       0.01511153      -0.00142209       0.00548135
O       10.12673925       9.68143049       4.87845478       0.00172314       0.00179052       0.00384310
H        9.77536783       8.78547442       4.73080699      -0.00308715       0.00389510       0.00522003
H        9.69354259      10.30587296       4.27508261       0.00184348       0.00444179       0.00617360
O        0.90251544       9.08730778       3.18036778      -0.00149286       0.00172178       0.00653768
H        1.55470024       8.67732756       3.76730300      -0.00157903      -0.00262748       0.00380392
H        0.14045221       9.23071986       3.77711179      -0.00050510       0.00130982       0.00822419
O        6.64043439       2.45464909      10.75294787      -0.00335558      -0.00599474      -0.00607166
H        7.58747432       2.55836797      10.51445870      -0.00317850      -0.00314353      -0.00503860
H        6.35126196       1.66820215      10.28364001       0.00320227      -0.01368789       0.00290399
O        9.33390080       8.12801303       2.00080549      -0.00771436       0.00434849       0.00303803
H        8.50348686       7.70104568       1.72573380      -0.00782426       0.00501230       0.00394539
H        9.63774194       7.64084322       2.78829698      -0.00723670       0.00462054       0.00344192
O        0.67875509       5.48336578       4.61921964      -0.00866756      -0.00531726      -0.00568781
H        0.99832302       6.22776455       5.17734409      -0.00663985      -0.00794753      -0.00233489
H        1.32823650       5.47791147       3.89129734      -0.01004098      -0.00274800      -0.00641709
O        4.77691842       5.05692686       1.29253891      -0.00053448       0.00405207       0.00019127
H        4.18258461       4.73577706       0.58386543      -0.00047462       0.00515911      -0.00069255
H        5.27273215       4.26178376       1.59202723      -0.00110484       0.00278757      -0.00096919
O       10.47660907      10.56831661       7.82290977       0.00660966      -0.00105301       0.00046629
H        9.39644940      10.39630584       7.56693522       0.00245120       0.00178105      -0.00204112
H       11.03555413       9.75160732       7.99643372       0.00337559      -0.00207365       0.00297192
O        1.03026856      11.30310715       5.46792866       0.00473753       0.00860041      -0.00161061
H        0.27059320      10.69983115       5.52574192       0.00818889       0.00630857       0.00356789
H        1.66800518      10.83895598       4.91259789       0.00170816       0.01329255      -0.01111813
O        2.83822714       2.97777550       4.63477849       0.00494723      -0.00481463      -0.00946108
H        3.78738279       2.74636294       4.53874044       0.00484469      -0.00677813      -0.00991250
H        2.87757229       3.67862347       5.30929185       0.00719671      -0.00474055      -0.01013838
O        7.78569485       2.12724155       7.54577285       0.00509999      -0.00333026      -0.00601974
H        7.73404850       1.20356674       7.26919271       0.00748047      -0.00382609      -0.00545493
H        7.91696207       2.65260635       6.72964875       0.00429505      -0.00283791      -0.00566584
O        7.25640707       6.22655004       4.27192132      -0.00814867       0.00495248       0.00233429
H        6.98245014       7.03177162       4.75207252      -0.00561993       0.00530958       0.00397496
H        6.97423151       6.39997480       3.34270158      -0.00764829       0.00608939       0.00325515
O        1.44829035       3.75375611       8.60731063       0.01183042       0.00358851      -0.00488518
H        0.52140893       3.91209003       8.30291044       0.00999102      -0.00215375      -0.00278856
H        1.66175975       2.85571838       8.27049079       0.01485179       0.00299205      -0.00298325
O        8.12748093      10.36145269       7.29529811       0.00766847       0.00446251       0.00013267
H        7.90351936       9.80566827       6.50570214       0.00467561       0.00404291       0.00052062
H        7.58782060       9.97343712       8.04251281       0.00845391       0.00497247       0.00198819
O        1.59252753       7.84310884       5.60256614      -0.00823762      -0.01398471       0.00428337
H        1.34921536       8.18194985       6.48193641      -0.00727622      -0.01345959       0.00436137
H        2.53943028       7.56347455       5.67158607      -0.00615862      -0.00749442       0.00162593
O        4.90210594       9.17916702       7.06432356       0.00217549      -0.00621071       0.00797969
H        5.16825795       9.25208350       7.99227703       0.00663337      -0.01211216       0.00627667
H        4.61630333      10.09364992       6.81338845       0.00603432      -0.00297023       0.01138499
O        9.79688580       6.95013551       4.51349984      -0.00779999       0.00049646       0.00444304
H       10.54906456       6.31768923       4.38616363      -0.00934119      -0.00060858       0.00117828
H        8.93877943       6.49166129       4.34424776      -0.00868906       0.00306678       0.00221726
O        0.60743540      -0.12155846       1.77939664      -0.00465492       0.00174809       0.00615542
H       -0.18475857       0.20703068       2.33004329      -0.00371562       0.00221648       0.00755781
H        0.92314385      -0.95044629       2.26026538      -0.00364656       0.00132406       0.00502576
O        6.66686933       7.01649723       1.71966425      -0.00443172       0.00634016       0.00252207
H        6.09490006       6.31558684       1.34117971      -0.00308673       0.00294606       0.00130033
H        6.05885257       7.77295630       1.79257418      -0.00193115       0.00225456       0.00006732
O        1.99608560       7.21407407       0.80493697      -0.01026505       0.00285822       0.00125375
H        2.21908747       6.81369828       1.67361799      -0.00828426       0.00221484       0.00100110
H        2.79994077       7.68903580       0.53957778      -0.01144496       0.00135392      -0.00125153
O        6.29242219       2.93378204       2.02016479      -0.00156491       0.00051764      -0.00606499
H        5.92199134       2.34062441       2.69865206      -0.00012921      -0.00118558      -0.00583001
H        6.32551957       2.49045031       1.14799642      -0.00177162       0.00131118      -0.00635381
O        7.01001954       8.76558155       5.44480533       0.00239176       0.00693744       0.00424966
H        6.87673875       9.30085284       4.63552915      -0.00170884       0.00669686       0.00521943
H        6.19359773       8.90611382       5.98718394       0.00211145       0.00230034       0.00647371
O        5.47797540       2.27775451       4.55641926       0.00640838      -0.00281045      -0.00406232
H        5.36128164       1.57047858       5.21380725       0.00748285      -0.00309471      -0.00254659
H        6.22848589       2.82438793       4.87383435       0.00292423      -0.00019407      -0.00319440
O        5.73432655       3.94382750       8.30140150       0.00502816      -0.00659547      -0.01017974
H        6.33756291       3.23930814       8.00572703       0.00352754      -0.00868955      -0.00957033
H        5.69815371       3.81678334       9.25832941       0.00098295      -0.00820409      -0.01076025
O       -0.12655360       8.87482759       0.38251123      -0.00836354       0.00673962       0.00368136
H       -0.87280856       8.64389367       1.01546612      -0.00835608       0.00761468       0.00421935
H        0.68641708       8.39647270       0.69391190      -0.00926119       0.00499589       0.00243969
O        8.56318709       7.24999236       9.99575292      -0.00446974       0.01124749      -0.00645429
H        8.75239707       8.07884601      10.46520480       0.01145506       0.00619084      -0.00477453
H        8.95869978       7.32453146       9.11230225       0.00521132       0.00320145      -0.00287452
O        0.88886659       8.69147896       8.20113706       0.00072181      -0.00904453       0.00375289
H        1.64271558       9.23827474       8.48694447       0.00219601      -0.00944367       0.00174418
H        0.90616076       7.88856342       8.77412952       0.00049420      -0.00833841       0.00403416
O        2.85144551       3.83530338      -0.20336819      -0.00266801       0.01044885       0.00020579
H        2.28850365       3.70014581      -0.97987465       0.00424387       0.00281284      -0.00362912
H        2.40892814       3.41619164       0.55606920      -0.00144874       0.00379302      -0.00244057
O       11.29534885       2.81724749       5.17967782       0.00548404      -0.00036858       0.00316887
H       12.17963884       2.43242110       5.26842109       0.00410089      -0.00475017       0.00037354
H       11.48802768       3.71832544       4.85403786       0.00762587       0.00001100       0.00436854
O        7.74641247       3.67185645       5.26238566       0.00003269       0.00590307      -0.00025778
H        8.27052333       3.38957209       4.47299599      -0.00106834       0.00668930      -0.00148153
H        7.48069357       4.58580064       5.04898181      -0.00377150       0.00453843      -0.00004328
