131
Lattice="12.497665106363996 0.0 0.0 0.0 12.497665106363996 0.0 0.0 0.0 12.497665106363996" Properties=species:S:1:pos:R:3:forces:R:3 energy=-597247.75 stress="-0.0013100964715704322 -0.00010154485426028259 0.00024208555987570435 -0.00010154485426028259 0.0001563035766594112 8.799490387900732e-05 0.00024208555987570435 8.799490387900732e-05 0.00019017732120119035" pbc="T T T"
Os      13.00699601      12.09997128       0.95192815      -0.00610310       0.01207769       0.01093841
O        5.35070935      12.50417861      11.09904745       0.02702999       0.02582228      -0.01620221
O        7.62310774      11.27468045      11.84600483       0.01928997      -0.00534302       0.01026630
O        7.48619761      12.55436770       9.50241467       0.04013383       0.02499771       0.00856900
O        6.15479389      10.26874293       9.84706905       0.02299225       0.01322865      -0.00208449
Cr       6.64621304      11.64617540      10.58286276       0.01567737       0.01676986      -0.01820330
O        5.08658458      10.07929018       3.75785798       0.00012171       0.01140571      -0.00814009
O        5.27243012      12.74965480       4.14204248       0.00257647       0.01020956       0.00240952
O        7.44939178      11.33218950       3.43093604       0.00316405       0.01291552       0.00553870
O        6.42410804      11.05575462       5.86058876      -0.00711608       0.00192234       0.00061631
Cr       6.06258757      11.30688874       4.28766637      -0.00009549       0.00927325       0.00010537
C        2.23296674      11.48017097       6.21759267      -0.00725007       0.00165638       0.00539038
C        2.52795323      11.57242619       4.73043847       0.00267357       0.00116002       0.00483306
C        3.48567895      11.53143088       7.08859859      -0.00386977       0.00037131       0.00339187
C        1.30598795      11.59962917       3.81836798       0.00368166       0.01420720       0.00501186
C        3.17097190      11.45326374       8.57462441      -0.01081544      -0.00583313       0.00088829
C        1.75078571      11.80770043       2.36910997       0.00501469      -0.01002577       0.00246406
H        1.56698823      12.30164488       6.50558723      -0.00681706       0.00025436       0.00501992
H        1.68094201      10.55676815       6.43456034      -0.00627404       0.00157589      -0.00016692
H        3.19614290      10.75825213       4.42591953       0.00213534       0.01045388       0.01040560
H        3.13593209      12.46325156       4.54683022       0.00221622       0.00980219       0.01248391
H        4.17481767      10.73136100       6.80741523      -0.00826260      -0.00527278      -0.00044672
H        4.03897503      12.44803042       6.87005239      -0.00513664      -0.00488964       0.00274441
H        0.73189087      10.66902155       3.88574905      -0.00236122       0.00837097       0.01093678
H        0.62349654      12.40517617       4.10908439       0.01252066       0.01088083      -0.00094256
H        2.53017058      12.27981607       8.89359667      -0.00494186      -0.00342245      -0.00086208
H        4.07766225      11.48822715       9.17649544      -0.00584203      -0.00899833       0.00545853
H        2.65635252      10.52065578       8.82169229      -0.01376306      -0.00108318      -0.00436932
H        2.50501322      12.60956814       2.32674376       0.01166633      -0.01342106      -0.00143933
H        2.29015957      10.90838414       2.01488866       0.00147940      -0.01127723       0.01103176
H       -0.70792791      11.25877154       1.47110153      -0.01243001       0.00526488      -0.01000762
C        6.13099256       2.89155269       2.78443000       0.01448876      -0.00000602      -0.02020088
C        7.21787822       3.87911113       3.17456468       0.01503280      -0.00335741      -0.01036248
C        4.74539630       3.51574768       2.82892537       0.01392642      -0.00025475      -0.01353730
C        8.61525102       3.28062565       3.11440572       0.01429041      -0.00613183      -0.01245642
C        3.64616390       2.51720614       2.50560437       0.01254863       0.00174317      -0.01697902
C        9.70551782       4.27621373       3.48343963       0.01385590      -0.01134470       0.00442475
H        6.32743416       2.49444644       1.78372571       0.01431807       0.01010675      -0.02366778
H        6.14416048       2.01832160       3.44782482       0.01490388      -0.00496513      -0.02730301
H        7.02650856       4.24348210       4.19143728       0.01459099      -0.01284987      -0.00769660
H        7.17004994       4.76405812       2.52578510       0.01782612       0.00221106      -0.00290447
H        4.58019320       3.92493641       3.83105500       0.01578691      -0.00720248      -0.01067567
H        4.69841054       4.37035576       2.14319509       0.01221858       0.00356209      -0.00800201
H        8.65275330       2.40679116       3.76960074       0.00936856      -0.01249838      -0.02160212
H        8.79466366       2.91114680       2.10032809       0.01719860       0.00230110      -0.01464963
H        3.76599233       2.12690239       1.49255116       0.00806314       0.00791192      -0.01948351
H        2.65378576       2.96672444       2.59075544       0.01330963       0.00367408      -0.01141224
H        3.71841279       1.67068741       3.19038218       0.01236165      -0.00143805      -0.02181473
H        9.74638192       5.09452079       2.76287686       0.02177379      -0.00454132       0.01311620
H        9.52001656       4.72280965       4.46277771       0.00771616      -0.02192663       0.00754136
H       10.68941383       3.80486609       3.50848753       0.01314002      -0.01429155       0.00725466
C        2.55328578       6.41209498       5.44572403       0.00471032       0.00085604      -0.00139230
C        3.16058771       6.62683616       4.06549497       0.00596249       0.00176591      -0.00119586
C        3.21420834       5.27777921       6.22404563       0.00284746      -0.00300050      -0.00510216
C        2.52276419       7.75836348       3.27014863       0.00549519       0.00370887       0.00082196
C        2.60271420       5.05110608       7.59967866       0.00238553      -0.00367892      -0.00531548
C        3.19806834       7.95841585       1.92059328       0.00720191       0.00620401       0.00190330
H        2.62613836       7.33954799       6.02486317       0.00910190      -0.00081292       0.00056042
H        1.48227833       6.20204203       5.33859598       0.00465351       0.00500855      -0.00096566
H        3.07765983       5.69813623       3.49193100       0.00419187       0.00257114      -0.00218563
H        4.23176190       6.82869586       4.16823254       0.00528339       0.00018990      -0.00068796
H        3.14999783       4.35349501       5.64137372      -0.00201891      -0.00158697      -0.00769635
H        4.28044233       5.49742803       6.32604578       0.00276703      -0.00743333      -0.00630079
H        1.45588120       7.54861572       3.13323523       0.00641868       0.00378671       0.00041196
H        2.59745432       8.68675685       3.84253717       0.00579140       0.00250289       0.00277682
H        2.61663572       5.96882775       8.19135529       0.00964948      -0.00535735      -0.00254592
H        3.14025080       4.28637776       8.16154936      -0.00066333      -0.00845593      -0.00781898
H        1.56228134       4.73370255       7.51829569       0.00124958       0.00292851      -0.00445767
H        4.21645052       8.32244605       2.06378622       0.00379834       0.01208620       0.00246027
H        3.22841464       7.02371079       1.35451775       0.01136197       0.00701138       0.00170767
H        2.67028150       8.69277391       1.31116803       0.00247198       0.00418858       0.00090770
C       11.58086678       8.94224654       7.40432634      -0.01615185       0.00571383       0.00845482
C       10.85639241       7.63916182       7.71393824      -0.01352131       0.00309870       0.01230313
C       10.62759540      10.12523542       7.26467078      -0.02152842       0.00490397       0.01866802
C       11.77825090       6.44134583       7.89332293      -0.00593835       0.00597883       0.00793824
C       11.34485278      11.42033156       6.92301596      -0.02075933       0.00263947       0.00658596
C       11.02413267       5.14581433       8.15918382      -0.00453758       0.00319532       0.00341353
H       12.31670765       9.15262002       8.18920833      -0.01446605       0.00781477       0.00718305
H       12.15851042       8.82211684       6.47875940      -0.02247690       0.00774915       0.00824764
H       10.15229693       7.42842324       6.90318427      -0.01422662       0.00171033       0.01539099
H       10.24357303       7.76935234       8.61230806      -0.00879702      -0.00046472       0.01460707
H        9.89142114       9.90215922       6.48883418      -0.02516752       0.00170316       0.01793170
H       10.06164832      10.24735831       8.19113577      -0.01466826       0.00356387       0.01514351
H       12.39266146       6.33013534       6.99560879      -0.00769679       0.01098231       0.00608784
H       12.48019875       6.63863438       8.70985326      -0.00756186       0.00505852       0.00651708
H       12.06523401      11.68584140       7.69894531      -0.01869896       0.00491782       0.00592498
H       10.64426923      12.24618360       6.81305683      -0.02498662       0.00517164       0.01273098
H       11.89870338      11.32341424       5.98824952      -0.02997708       0.00400148       0.00796975
H       10.40973628       5.22240020       9.05758430      -0.00315149      -0.00165941       0.00357668
H       10.35449259       4.90457119       7.33205845      -0.00182387       0.00259013       0.00388557
H       11.69793045       4.29793612       8.29341475       0.00043398       0.00375313       0.00176735
C        6.12159489       3.85873652       9.30173960      -0.00075716      -0.01710042       0.01776831
C        7.40879315       3.34725238       8.66735938       0.00257689      -0.01021925      -0.00659648
C        6.35993708       4.93569959      10.35553587       0.01584417       0.02783465      -0.02013853
C        7.17489266       2.34855978       7.54108504      -0.01389766      -0.00990215      -0.00795209
C        5.07890447       5.49787878      10.95809558       0.00503618      -0.02156785       0.01851913
C        8.47134244       1.81151062       6.95428739      -0.01258951      -0.01667577      -0.00439462
H        5.47657971       4.27255849       8.51713036      -0.00586855      -0.00932464       0.00206956
H        5.58165855       3.01396283       9.74355614       0.00973664       0.00318873       0.01502240
H        8.02238734       2.86512201       9.43600164      -0.00918236      -0.01845878      -0.00839648
H        7.98382490       4.20417742       8.29135119       0.00677297      -0.02276835      -0.00503373
H        6.98686260       4.52472052      11.15283957       0.01656011      -0.00589944       0.00578687
H        6.93442241       5.75255240       9.90565586      -0.01080094       0.00276321       0.00969251
H        6.61314704       1.50034969       7.93715395      -0.01818499      -0.00424761      -0.01088318
H        6.56591778       2.80819575       6.75478014      -0.00619358      -0.00409554      -0.00712511
H        4.42606847       5.89968453      10.18096948       0.00556037       0.00844881       0.00213602
H        5.28249491       6.30226615      11.66545589       0.00909340       0.00696099      -0.00012927
H        4.52388437       4.72075010      11.48834106      -0.00760206       0.00644501      -0.00347582
H        9.07723949       2.60977842       6.51248323      -0.00962387      -0.01952018      -0.00397158
H        9.05214939       1.33053291       7.74235215      -0.01812116      -0.02071351      -0.00290450
H        8.26956773       1.06453813       6.18593717      -0.01584884      -0.01673116      -0.00417997
C        7.85795429       8.43870979       4.67290759      -0.00363857       0.00098550       0.00085420
C        9.07297154       8.03672715       3.85465849      -0.00959177      -0.00192875       0.00106017
C        7.34351191       7.37686704       5.63681500      -0.00783744       0.00713497       0.00130741
C        9.58606574       9.13293199       2.92508973      -0.00269297      -0.01311445      -0.00082508
C        6.15543692       7.87933591       6.45075534      -0.00089186       0.00783485       0.00878817
C       10.79843304       8.66457855       2.13198384      -0.00635305      -0.00535941      -0.01026472
H        8.06669900       9.35382662       5.23141762       0.00170804       0.00338355       0.00058523
H        7.04738624       8.71511977       3.99447198      -0.00452572       0.00853010       0.00141191
H        8.82944110       7.15464341       3.25122932      -0.01462734      -0.00812775       0.00464031
H        9.89262862       7.72687441       4.51976638      -0.00937861      -0.00850174       0.00270715
H        7.06321131       6.47821761       5.07296171      -0.01444210       0.00813827       0.00008789
H        8.14393540       7.06709916       6.31894416      -0.00520366      -0.00022097      -0.00376621
H        8.78515552       9.46079454       2.25625197      -0.00971860      -0.00673227       0.00183603
H        9.82951230      10.02465814       3.50876729      -0.00078148      -0.00983739      -0.00127038
H        6.42434484       8.75246540       7.04653330       0.00736999       0.00602892       0.01150662
H        5.77282235       7.10824540       7.12386571      -0.00215707       0.01014078       0.00700180
H        5.35219754       8.20080919       5.78548201      -0.00169766       0.01759563       0.01366478
H       11.63289453       8.42601219       2.79781611      -0.00381374      -0.02000751      -0.00559302
H       10.56835923       7.76512515       1.55555151      -0.01614638      -0.01116729      -0.01069276
H       11.15447441       9.41824116       1.42880580      -0.00306197      -0.01185289      -0.00429399
