145
Lattice="12.209137445090043 0.0 0.0 0.0 12.209137445090043 0.0 0.0 0.0 12.209137445090043" Properties=species:S:1:pos:R:3:forces:R:3 energy=-644574.125 stress="5.606610284303315e-05 -0.0003446802875259891 -0.00022443351190304384 -0.0003446802875259891 0.0002548474003560841 0.0009511058742646128 -0.00022443351190304384 0.0009511058742646128 0.0001616796653252095" pbc="T T T"
Os      11.09831087      11.64254956      -0.73644022      -0.00610471      -0.00286770       0.00167322
S        2.99791181       6.42650635       5.35267916       0.00990105       0.00532925       0.01261884
O        2.11652034       5.51650806       4.61224428       0.00424099       0.00833869       0.01570892
O        4.31002923       5.80128026       5.65354082       0.00936353       0.00069064       0.00604427
O        2.38674814       7.02415988       6.52450854       0.01658130       0.00546467       0.01602721
C        3.37731559       7.75198713       4.23598245       0.01097038       0.00443542       0.01293707
H        2.44964282       8.25785479       3.98226818       0.01253416       0.00870864       0.01665426
H        4.04440323       8.43943810       4.74906860       0.01565703       0.00071604       0.01205520
H        3.84513770       7.34580801       3.34220266       0.00688744       0.00319520       0.01142307
S        8.14662776      11.48853640      10.90504756      -0.00804311       0.00961947      -0.00092542
O        8.12113295      12.89622493      10.62221654      -0.00584508       0.00857794      -0.00586462
O        7.80589500      11.06642059      12.24631707      -0.00678369       0.01590905       0.00163424
O        9.59120874      10.91856234      10.55027121      -0.01065344       0.00449217       0.00093540
C        7.23670972      10.55401620       9.73318918      -0.01173788       0.00777915       0.00318623
H        7.44103552      10.95644392       8.74495295      -0.00998113       0.00302829       0.00171444
H        7.60902107       9.53103071       9.80964542      -0.01589903       0.00669912       0.00791755
H        6.18626445      10.63463259      10.00740855      -0.01148796       0.01198366       0.00270188
S       10.69320662       7.42310100       1.42537697       0.00082070       0.00864863      -0.00240290
O        9.42335866       8.13360076       1.32937468      -0.00091052       0.00657892       0.00457108
O       11.57820795       7.66711805       0.25284961      -0.00697780       0.00994718      -0.00808680
O       10.55073680       5.99988562       1.70997722       0.00413483       0.00864410      -0.00078577
C       11.58297126       8.10616936       2.80064272       0.00721782       0.00849354      -0.00710285
H       10.98487957       7.95371461       3.69512464       0.01235446       0.00589234      -0.00421082
H       12.52349403       7.56650131       2.88106255       0.00904694       0.01064947      -0.01343339
H       11.74641116       9.16414679       2.62827253       0.00400604       0.00919992      -0.00651756
S        8.17188142      10.93777804       4.33856837       0.00645900       0.00300884       0.00134107
O        9.61391619      10.91145676       4.21156309       0.00611520       0.00387885       0.00271457
O        7.45822932      11.66900867       3.29227995       0.00787747       0.00714457       0.00310123
O        7.75611467      11.42130322       5.69500397       0.00410378      -0.00078124       0.00257289
C        7.61232646       9.25731262       4.21028630       0.00566888       0.00402820      -0.00354140
H        8.01827967       8.70801107       5.05543701       0.00517289       0.00145272      -0.00501892
H        6.52506388       9.24628514       4.21726034       0.00556315       0.00523622      -0.00327722
H        7.99248520       8.86320558       3.26752373       0.00502171       0.00637245      -0.00473040
O        4.97206328       0.47304249       2.82299755       0.00732803      -0.00499618       0.01768216
O        5.55470936       2.64546835       2.85750484       0.00484622      -0.00444996      -0.01355055
C        3.23088272       2.04088210       2.88857884       0.00577223      -0.00689176      -0.00226072
C        4.71112562       1.77976962       2.85949474       0.00599599      -0.00529221      -0.00041677
H        2.90300353       2.21851308       1.86349881       0.00797864      -0.00264109      -0.00226648
H        2.68605797       1.18790609       3.28592611       0.00569029      -0.00868778      -0.00614514
H        3.02447244       2.94984661       3.44756646       0.00377340      -0.00890951       0.00054501
H        5.93944656       0.28290757       2.88841266       0.00795466      -0.00446884       0.01568965
O        6.54012042       5.32889823       4.33504589       0.01165765      -0.00005061      -0.00062454
O        5.70913772       5.85110422       2.32627514       0.00203228      -0.00415611       0.00256205
C        7.82589329       4.73754158       2.46909804       0.00550830       0.00108171      -0.00497577
C        6.58535587       5.34645094       3.01804586       0.00636983      -0.00137708      -0.00107015
H        8.69037694       5.36771712       2.69243668       0.00342545       0.00814001      -0.01698682
H        7.97501981       3.75600442       2.91378591       0.01497530       0.00634401       0.00260973
H        7.75547999       4.65103240       1.39080549      -0.00175808      -0.00883550      -0.00348746
H        5.64947832       5.61499616       4.67863302       0.01299880      -0.00016924       0.00124946
O       10.53313244       1.38804691       8.02089276       0.00102745      -0.00394905      -0.00426139
O       11.21149846       0.74426722      10.02711372      -0.00629160      -0.00913113      -0.00384152
C       10.83632828       3.07032249       9.65133637      -0.00074084      -0.00781363      -0.00008821
C       10.88235095       1.65915819       9.23355654      -0.00219139      -0.00694289      -0.00268181
H       11.08042053       3.72175312       8.81219537      -0.00537661      -0.00591668       0.00029555
H        9.80863945       3.27391863       9.96504938       0.00109240      -0.00960268       0.00693778
H       11.48858454       3.24568711      10.49996853       0.00513835      -0.01038990      -0.00438610
H       10.34350973       0.41064039       7.84027378      -0.00045266      -0.00405830      -0.00509325
O       11.70455344       5.73552353       5.05240196       0.00464892       0.01375657       0.01119709
O       11.70429705       4.54485272       6.95283347       0.00059783      -0.00103796       0.00196099
C        9.72215160       5.73321789       6.30134216      -0.00116742      -0.00368226       0.00130290
C       11.13802866       5.26518792       6.15185286       0.00113153       0.00334835       0.00446495
H        9.71153334       6.81833282       6.42543223      -0.00613777      -0.00460246       0.00803912
H        9.14386146       5.49793522       5.40864631       0.00420852       0.00008861      -0.00319472
H        9.26328906       5.26738066       7.16807755      -0.00305468      -0.01157969      -0.00409989
H       12.67504554       5.51654011       5.00507174       0.00477563       0.01418740       0.01236540
O        3.44368886       4.76140279       1.61641241      -0.00099123      -0.00099736       0.00474751
O        2.48158640       6.74852812       1.23498735       0.00428237       0.00254869       0.01273887
C        1.18513966       4.72596914       1.02662844       0.00119686       0.00742030      -0.00446536
C        2.41162635       5.54056511       1.29376042       0.00205231       0.00348687       0.00492387
H        1.41802204       3.98533616       0.26031608       0.00604283       0.00065706       0.00406378
H        0.92458968       4.19232443       1.94241799      -0.01315670       0.01638888      -0.00376879
H        0.34755144       5.35152975       0.74069175       0.00859262       0.01046287      -0.01836592
H        4.23130958       5.30017109       1.87740884       0.00034097      -0.00391735       0.00697776
O        4.51452164       7.75545169       9.25470572      -0.00672096      -0.01346970      -0.01629482
O        4.10219553       9.77815568       8.39574521      -0.00702536      -0.00932932      -0.00759304
C        2.44859191       8.74676794       9.80684053      -0.00318420      -0.01352159      -0.00555825
C        3.75155270       8.85597309       9.09012122      -0.00667286      -0.01366115      -0.00877732
H        1.77516068       8.17851297       9.16181951      -0.00371975      -0.01793203      -0.00140755
H        2.54750893       8.21867425      10.75159563       0.00155492      -0.00998692      -0.00375102
H        2.03628539       9.73751923       9.96680832      -0.00514775      -0.01417236      -0.00693301
H        5.27777927       7.86169817       8.67002587      -0.01016538      -0.01394249      -0.02045172
O        5.43752691      10.08632096       1.45266098       0.00704479       0.00418131      -0.00979173
O        4.65922326      10.12602248      -0.65075080      -0.00569752      -0.00954448      -0.00605369
C        3.09728023      10.03056669       1.16546232       0.00626361      -0.00566967       0.00454825
C        4.45746425      10.09666018       0.54395732       0.00141805      -0.00407175      -0.00231504
H        2.81136937       8.97989011       1.26369176       0.00981032      -0.00531659       0.01217478
H        3.08236268      10.49356066       2.14953479       0.01024583       0.00036928       0.00181246
H        2.38055771      10.50432900       0.49959343       0.00115220      -0.00998150       0.00647850
H        6.29097376      10.20959322       0.99578540       0.00352068       0.00731149      -0.01504812
O        3.39658557       3.04592164      11.07647716      -0.00880635       0.00480541      -0.00020605
O        4.92083557       1.44015118      11.45751425      -0.02950007      -0.01406264      -0.00993282
C        5.60360139       3.74866028      11.48991153      -0.00246608      -0.02455163       0.01336558
C        4.64805077       2.60698429      11.33909203      -0.01399297      -0.01258838      -0.00041765
H        5.41351884       4.49794777      10.72454839       0.01106022      -0.01803577       0.01648328
H        5.45674653       4.21820758      12.46294355      -0.00245787      -0.02993941       0.01631714
H        6.62017982       3.37238723      11.43019169      -0.00722909      -0.03764337       0.01553060
H        2.86745922       2.29490064      10.76690990      -0.01618271       0.01426250      -0.01016819
O        2.45611938      12.66799852       6.26484062      -0.01125294       0.00407904       0.00875238
O        2.09738008      11.05363503       4.76051100       0.02320588       0.01707667       0.03093487
C        4.34459436      11.42616616       5.54146849      -0.00378406       0.01000559       0.02035031
C        2.87894820      11.66347550       5.44455424      -0.02817625      -0.01449993      -0.00747478
H        4.90432291      12.35324702       5.63298886      -0.00735752       0.01212385       0.02215386
H        4.52689937      10.83208888       6.43958943      -0.00645329       0.00971951       0.02165565
H        4.68056630      10.88833337       4.66240761       0.00172232       0.00955512       0.02245593
H        1.48913746      12.68031526       6.20839131      -0.01150632       0.00164360       0.00163259
O       10.33307592       6.29152354      10.74275424      -0.01215148       0.00138700      -0.00131461
O        9.39004191       8.16546732       9.92816444      -0.02479455      -0.00146508       0.00798589
C        7.98700742       6.36557019      10.64036319      -0.01369357      -0.01699466      -0.01342085
C        9.29887397       7.04369250      10.37824944      -0.01719761      -0.00502133      -0.00095066
H        8.00461985       5.32588319      10.32034056      -0.00141038      -0.01817950      -0.00783780
H        7.84941028       6.37947622      11.72390644      -0.02771831      -0.01381557      -0.01566449
H        7.16649017       6.90095959      10.17275583      -0.01240814      -0.02621341      -0.02562706
H       10.99386313       6.87916850      11.25503041      -0.01465173       0.00651372      -0.00442877
O        9.69758600      12.32756042       1.71394830       0.00251579       0.01412577       0.00245516
O       11.18430645      10.69104237       0.88520938       0.00853904       0.01589048       0.01017424
C       11.98722109      12.63225529       2.04958157       0.00137877       0.03487572      -0.01538426
C       10.88495373      11.98733131       1.24420871       0.00177795       0.01859480      -0.00249621
H       11.79111991      13.68958064       2.19301633      -0.00861160       0.03341457      -0.02113689
H       11.98294017      12.12565321       3.01787458       0.01548605       0.04168944      -0.01212940
H       12.96446419      12.48487655       1.59334557      -0.00125134       0.04248742      -0.02291892
H        8.96908276      11.80192336       1.32612491       0.00309351       0.00986107       0.00771343
O        5.87893413       3.84059281       6.82744236      -0.01849025      -0.01577646      -0.03494763
O        4.77593628       2.96590412       8.57600701       0.02249849       0.03870235       0.01429009
C        6.84291517       1.97695657       7.90667256      -0.00112045       0.00694257      -0.01539347
C        5.71797083       2.96334162       7.81629589       0.00532663       0.01244605      -0.01141113
H        7.48002735       1.98614982       7.02863593      -0.00409122       0.00587841      -0.01768489
H        7.43115927       2.19532051       8.79866563       0.00115687       0.00051799      -0.01559457
H        6.42305957       0.98609064       8.06419579      -0.00537145       0.00793165      -0.01853570
H        5.10320837       4.43771618       6.73941130      -0.01182406      -0.00525202      -0.02616992
O        2.42040669       3.40957043       7.05813865       0.00385898      -0.01993448       0.00576580
O        1.50920163       2.48582258       8.87957802       0.01000834      -0.01368177       0.01172459
C        1.94111214       4.85673931       8.84104023       0.00072879      -0.01215887       0.00013348
C        1.91899552       3.47065657       8.29356574       0.00487633      -0.01444554       0.00627697
H        2.98027230       5.15334820       8.98347988       0.00089452      -0.01757011       0.01062420
H        1.50824882       5.54322435       8.11759124       0.01283565      -0.01306942      -0.00744319
H        1.41859002       4.89719871       9.79115307      -0.00845361      -0.00699542      -0.00545600
H        2.50329975       2.47411260       6.81293023       0.00399184      -0.02045818       0.00890748
O        9.68083821      11.25973102       7.27900208       0.00135490      -0.00357234       0.00296813
O        9.41572667       9.07817843       6.88131620       0.00538838      -0.00425398       0.00117069
C       11.47075315       9.80215834       7.86452234       0.00176883      -0.00120899       0.00756177
C       10.09477536       9.97901367       7.30451494       0.00352621      -0.00254965       0.00406027
H       12.19471543      10.20574901       7.15291733       0.00334875      -0.00723284       0.00567690
H       11.58256021      10.33344062       8.80787699       0.00185103       0.00543536       0.00378209
H       11.66418645       8.74670065       8.01722692       0.00028037      -0.00040703       0.01439630
H        8.84169803      11.32845537       6.62702784       0.00186341      -0.00350813       0.00185174
