147
Lattice="12.27949877307329 0.0 0.0 0.0 12.27949877307329 0.0 0.0 0.0 12.27949877307329" Properties=species:S:1:pos:R:3:forces:R:3 energy=-572670.5625 stress="-3.601635398808867e-05 0.0003666008560685441 -0.0003551748377503827 0.0003666008560685441 0.0005378543864935637 0.0003952682454837486 -0.0003551748377503827 0.0003952682454837486 -0.00026888499269261956" pbc="T T T"
Os      11.25457747      11.20006859      -0.04433282       0.00357847      -0.00408602      -0.00467968
O        4.69108735      10.13519772       3.97802688      -0.00948749      -0.02069306       0.01273870
O        4.74476409      11.94081271       5.22938006      -0.00702909      -0.00035843      -0.01785791
O        2.89320474      11.50729176       4.05571985      -0.00228703      -0.00979650      -0.02131879
C        4.02559219      11.22798263       4.40529312      -0.00579888      -0.01046190      -0.01005945
H        4.11818145       9.55421098       3.44972713      -0.00598022      -0.02627489       0.01422599
O        8.47749875      10.95150288       8.64888404      -0.00053504       0.00043371      -0.00175047
O       10.50086632      11.58080850      10.79453244       0.00107604      -0.00297537      -0.00308066
O        7.98005132       9.85085986      10.63126701      -0.00202915       0.01406971      -0.01512778
C        8.22168704      10.42049544       9.65119877      -0.00551562      -0.00333184       0.00881969
H        8.43141600       9.45045737       6.81383281      -0.01141268      -0.00434327      -0.01022151
O       11.99335655       8.84550491       2.75250653      -0.00216675      -0.00127202      -0.00044826
O       12.26559924       9.55076101       0.64946208       0.00328452      -0.00330286      -0.00071526
O       10.94991928      10.69869191       1.92972029       0.00206785      -0.00079083      -0.00410116
C       11.72730592       9.67111891       1.81279067       0.00116667      -0.00152706      -0.00200030
H       11.55826451       9.06634594       3.67724675      -0.00301677       0.00192407      -0.00226259
O        6.77517937      10.70038917       6.04691283      -0.00736862       0.00607248      -0.00350058
O        8.74630909       9.64428440       5.92299788      -0.00890777       0.00315368      -0.00756329
O        8.13422420      10.99781553       4.26118952      -0.00661039       0.01090944      -0.00176835
C        7.81429738      10.53300536       5.33410238      -0.00738168       0.00687486      -0.00388855
H        5.63311022      11.46099105       5.46918047      -0.00853043       0.00176139      -0.00959390
O        2.19574525       2.37320479       2.97385127       0.02081943      -0.02935416       0.02087837
C        3.01639182       2.40585855       1.81525375       0.00557649      -0.01762992       0.01097205
C        4.27771348       1.58803777       1.98108059       0.01285553      -0.01013952      -0.00856926
H        2.45108525       2.06138706       0.93630067      -0.00230747      -0.01627424       0.01521665
H        3.26143953       3.45853257       1.64280860      -0.00348623      -0.01496226       0.01440540
H        4.93560321       1.69283049       1.11769163       0.00280146       0.00039477      -0.01477085
H        4.81908445       1.91460745       2.86845971       0.01927622      -0.01239664      -0.01182355
H        4.02780328       0.53392697       2.10136287       0.02114443      -0.01255637      -0.01328744
H        2.24389416       1.48236930       3.34326283       0.02647103      -0.03311917       0.01197854
O        6.78373129       3.79987612       2.24353247       0.00362723       0.00265515       0.00372232
C        6.74031839       5.08736133       2.84896207       0.00406715       0.00216764       0.00461155
C        5.95926273       5.10318981       4.14891442      -0.00527281       0.00385938      -0.00108606
H        7.75365342       5.46781566       3.01341156       0.00405830      -0.00104292       0.01165880
H        6.26513379       5.73106206       2.10257189       0.01135167       0.00455570       0.00210032
H        5.93604824       6.11235658       4.57139888      -0.00589015       0.00384821      -0.00110773
H        4.93839217       4.74378782       3.99924549      -0.00485283       0.00607718      -0.00900032
H        6.42953894       4.46360943       4.89764111      -0.01235786       0.00265040       0.00223476
H        7.20168038       3.19112477       2.86053961      -0.00165565       0.00059341       0.00526404
O       12.28118144       1.00361557       8.38247499       0.01258236       0.00564817       0.00272353
C       11.05830098       1.73800828       8.38201080       0.00785780      -0.00227201       0.00181705
C       11.27829010       3.23215899       8.46858984      -0.00239350      -0.00081193       0.00224666
H       10.46247128       1.49050051       7.49383704       0.01034319      -0.00593767       0.00124234
H       10.50938944       1.37297688       9.24989587       0.00941342      -0.00613604       0.00118339
H       10.32797578       3.76093473       8.54757233      -0.00644876      -0.00780664       0.00023131
H       11.86855698       3.48894099       9.34766981      -0.00615990       0.00375601       0.00343080
H       11.78986743       3.61530457       7.58204392      -0.00330231       0.00269847       0.00321347
H       12.83812357       1.36776756       7.68869840       0.01093717       0.00944814       0.00325767
O        6.89482376       3.13728355      10.62741781      -0.01036114      -0.00345343       0.00925151
C        8.12887162       3.12730041      11.35642356      -0.00718817      -0.00212592       0.00334910
C        8.47523599       1.71013362      11.73394300      -0.00490399      -0.00277507      -0.00159323
H        8.92203037       3.56700304      10.74055502      -0.01060030       0.00003794       0.00050229
H        8.01609098       3.73649017      12.25697820      -0.00447162      -0.00373915       0.00473356
H        9.45092150       1.67504763      12.22297269      -0.00566797      -0.00335767      -0.00048222
H        7.72813062       1.28801651      12.40641783      -0.00567412      -0.00600877      -0.00448376
H        8.52719390       1.07458773      10.85044918      -0.00327265       0.00068915      -0.00408126
H        6.37192621       3.92348639      10.86973772      -0.00962909      -0.00208076       0.00761424
O       11.05945000       6.29736846       5.72255492       0.00583363       0.01100641      -0.00466509
C        9.66143254       6.12756781       5.51619403       0.00678045       0.00044025      -0.00118780
C        8.87202073       6.18641583       6.81105349       0.00844306       0.00206290      -0.00033975
H        9.28853913       6.87565568       4.81138662       0.00041068      -0.00614524      -0.00499788
H        9.53458817       5.14917272       5.04311778       0.01302827      -0.00311798       0.00469784
H        7.79988673       6.08858661       6.62896876       0.00923228      -0.01055071       0.00216664
H        9.18814176       5.39407330       7.48927050       0.01764925       0.01020072       0.00464991
H        9.02869420       7.14206676       7.31313347      -0.00085081       0.00722189      -0.00743926
H       11.24821404       7.24272587       5.67659935      -0.00163755       0.01267236      -0.00338937
O        3.80560229       7.62775816       2.96399974      -0.01023906      -0.00059038       0.00038959
C        2.50894466       7.30045498       3.49869038      -0.00732780      -0.00450882       0.00604245
C        1.85926288       6.14235273       2.78005989      -0.00827301      -0.00416005       0.00658751
H        2.59134014       7.10114490       4.57175103      -0.00120831      -0.00659053       0.00513834
H        1.91795580       8.20575702       3.37067705      -0.00959027      -0.00539729       0.01058763
H        0.84240853       5.99972377       3.14733467      -0.00523096      -0.00832429       0.01326677
H        1.81138648       6.34442339       1.70857733      -0.01639172      -0.00080965       0.00767174
H        2.40117179       5.20960166       2.94404435      -0.00402033      -0.00288559      -0.00012532
H        4.43621506       6.96983622       3.27302058      -0.00676968       0.00153333      -0.00196083
O        6.01651866      12.08851799      10.40069372      -0.00625226       0.00940216      -0.00585869
C        5.10027007      11.35982771       9.58073132      -0.00824779       0.01200075      -0.00577037
C        3.70658886      11.94803896       9.62145579      -0.00690746       0.01510200      -0.00492166
H        5.46718184      11.30761763       8.54877517      -0.00880340       0.01212510      -0.00600296
H        5.10465882      10.34086252       9.97249138      -0.01016269       0.01166689      -0.00670484
H        3.00395142      11.32134478       9.07109455      -0.00791341       0.01942462      -0.00853884
H        3.35619695      12.02847686      10.65118553      -0.00813113       0.01206919      -0.00507078
H        3.69533740      12.94215493       9.16855016      -0.00354293       0.01698758      -0.00099578
H        5.96104510      13.02453385      10.17424866      -0.00637987       0.00998365      -0.00324458
O        4.60109357       8.26665969      -0.31889795       0.01258117      -0.01028156       0.01032963
C        4.55112599       9.47455738       0.44721408       0.00785461      -0.00393367       0.00030193
C        3.13552675       9.92113845       0.73050283       0.00655764      -0.00232750      -0.00981432
H        5.09714758       9.33825502       1.38326284       0.00293389       0.00395770       0.00432134
H        5.09403167      10.22027126      -0.13406327       0.01081979      -0.00861442      -0.00290623
H        3.13483832      10.80621791       1.37073575       0.00379487       0.00160331      -0.01545162
H        2.59012536      10.14722596      -0.18412032       0.01083210      -0.00837818      -0.01382628
H        2.58559485       9.13911588       1.25550302       0.00445119       0.00140226      -0.00649875
H        4.19271995       7.58123724       0.22023066       0.00497315      -0.00475119       0.01154774
O        4.88902440       4.96073096      11.02930914      -0.00404811      -0.00344443       0.01680765
C        3.92434631       3.92646114      10.75001226      -0.00519475       0.00239012      -0.00023496
C        2.50109001       4.42831387      10.80076310      -0.00422478       0.00488111       0.00157283
H        4.14658874       3.46324713       9.78394610      -0.00200301       0.01443450      -0.00523859
H        4.10049716       3.17756286      11.52202552      -0.01001894      -0.00806251      -0.00940132
H        1.81092236       3.59131596      10.67968921      -0.00576161       0.00821701      -0.01164072
H        2.29018618       4.91171970      11.75502459      -0.00606393      -0.00759257       0.00737561
H        2.29861623       5.14037192       9.99825188      -0.00001187       0.01615274       0.01074448
H        4.77994668       5.67255645      10.38928495       0.00305627       0.00272992       0.02251256
O        5.84419353       8.40298807       7.23294983       0.01200736       0.00536758       0.00518048
C        4.61616902       7.97793895       6.67031377       0.01262909      -0.00616889       0.01312425
C        3.40821099       8.50267529       7.43039915       0.01173902       0.00871772       0.00098187
H        4.55355944       8.28876670       5.62215617       0.01303614      -0.02668375       0.00722152
H        4.61318066       6.88276106       6.69129787       0.01380999      -0.00533986       0.03457834
H        2.48234449       8.10396965       7.00692661       0.01167126       0.00554267       0.00412466
H        3.46093271       8.21146387       8.48044957       0.00750364       0.02487038       0.00544481
H        3.36294717       9.59167586       7.37901126       0.01566838       0.00801471      -0.01597464
H        6.09427972       9.25631707       6.82371250       0.00185306       0.00681644       0.00170364
O       10.65755183       5.92506825      10.66341248      -0.00794616      -0.00481862       0.01088911
C        9.72143059       6.99369154      10.52472690      -0.00411087      -0.00187226       0.00597575
C        8.28497252       6.50911585      10.52491960      -0.00571465       0.00282958       0.00344470
H        9.87902615       7.74679473      11.30372862      -0.00350807      -0.00071567       0.00457865
H        9.96410108       7.46051378       9.56836976      -0.00021815      -0.00495800       0.00545728
H        7.59335569       7.33448365      10.35720418      -0.00256395       0.00522053       0.00228343
H        8.13413579       5.75879784       9.74810033      -0.00684048       0.00327216       0.00312720
H        8.02386011       6.05331239      11.48396245      -0.00892974       0.00353751       0.00300057
H       10.61809038       5.61103365      11.57067645      -0.01007646      -0.00123543       0.01196284
O        9.35298238       7.13361884       2.03238855      -0.00832847       0.00716418      -0.00887769
C        8.54684554       8.20623879       2.53723699      -0.00478300       0.00650200      -0.00193186
C        7.92994019       9.02779591       1.43632820      -0.00561193       0.01286682       0.00334209
H        7.77147617       7.81285212       3.20966917      -0.00414494       0.00492823      -0.00203744
H        9.20341807       8.82400101       3.14691483      -0.00202641       0.00215566      -0.00051448
H        7.38230501       9.86542473       1.86733538      -0.00499053       0.01036926       0.00888331
H        8.70097207       9.42819871       0.78091577      -0.00631507       0.01650598       0.00470324
H        7.24210904       8.43009576       0.83117714      -0.00621206       0.01611660       0.00092348
H        8.84658255       6.71247067       1.33142793      -0.01199658       0.01086771      -0.00846453
O       11.26795361       9.25380545       5.08909558      -0.00609016       0.00664394      -0.00196323
C       12.15828333      10.29109324       5.58246170      -0.00548001       0.00518030      -0.00031693
C       11.58468609      11.66822846       5.35423155      -0.00161585       0.00575304      -0.00544735
H       12.34774276      10.10643651       6.64200256      -0.00996496       0.00688232       0.00081253
H       13.09645459      10.16368761       5.04040566      -0.00381929       0.00187727       0.00325194
H       12.33868150      12.41607548       5.59902042      -0.00218484       0.00511438      -0.00144880
H       11.29055184      11.79522509       4.31303906       0.00393783       0.00355741      -0.00717056
H       10.71125030      11.83705274       5.98379491      -0.00566174       0.00808208      -0.01171900
H       10.33925611       9.47284745       5.34883329      -0.00632730       0.00748533      -0.00389796
O        5.86330587       2.78552945       8.05465928       0.02960822      -0.00975925       0.00952020
C        6.57263468       1.65580034       7.54869838       0.01397720      -0.01009080      -0.00930667
C        7.34694422       1.98374444       6.28801328       0.00489658      -0.00244370      -0.01269841
H        7.25181357       1.26906979       8.31518070       0.01710808      -0.02718578      -0.02092260
H        5.84656147       0.87108430       7.32746697       0.00465202      -0.00064537      -0.01199752
H        7.92979665       1.11992008       5.96393549      -0.01118582      -0.00545697      -0.03240679
H        6.65563375       2.23606674       5.48308942      -0.00060768       0.01897123      -0.00089318
H        8.01919518       2.82785578       6.45779054       0.01840813      -0.01419637      -0.00917292
H        6.32557915       3.05928980       8.86224532       0.02632224      -0.02992991       0.01876095
