143
Lattice="12.176146137078907 0.0 0.0 0.0 12.176146137078907 0.0 0.0 0.0 12.176146137078907" Properties=species:S:1:pos:R:3:forces:R:3 energy=-692261.1875 stress="-0.0030461892019957304 0.0001464668966946192 0.0006640296487603337 0.0001464668966946192 0.0004807580844499171 2.8714408472296782e-05 0.0006640296487603337 2.8714408472296782e-05 -0.0014393097953870893" pbc="T T T"
Os      10.90299605      11.44821649      -0.00854742       0.00278632      -0.00572762      -0.00315386
S        1.56847264      10.96465025       4.74961816      -0.00825539      -0.00685430      -0.00446749
F        0.85782811      12.09597031       7.02927100      -0.00718725       0.00434232      -0.01052427
F        2.92518637      12.42303234       6.47989234      -0.00533980      -0.00553817      -0.00723474
F        2.30386103      10.49024752       7.23823716      -0.01375088       0.00007248      -0.00128871
O        2.79775512      10.30495722       4.34591008      -0.01017189      -0.01491463       0.00076914
O        1.30583345      12.22466470       4.05690534       0.00033334      -0.00868940      -0.00981474
O        0.42018409      10.09511634       4.89973495      -0.01212907      -0.00027883      -0.00330777
C        1.94548678      11.51768589       6.47495947      -0.00889677      -0.00156909      -0.00619459
S        7.52162321      11.36562944       6.86411165       0.00818288       0.00376827       0.00050020
F        8.99933054       9.94163074       5.17304334       0.00641720      -0.00275195       0.00536695
F       10.02727629      11.62227297       6.06285358       0.00742626       0.00119430      -0.00328547
F        8.52119192      11.96577004       4.53874570       0.00602682      -0.00578827      -0.00272751
O        7.64376168      12.78927639       7.16125218       0.00595811       0.00662732      -0.01025122
O        7.93997704      10.48352390       7.93144800       0.00939584       0.01398826       0.00740600
O        6.34398178      10.98782387       6.11625810       0.00734425      -0.00253129       0.00525427
C        8.84164828      11.19288297       5.60802561       0.00741959      -0.00106671      -0.00026894
S        4.68065533      11.24806817      10.13501974      -0.01478571       0.02204204       0.00457458
F        6.58301525       9.39823332      10.16304385      -0.02796626       0.00835669      -0.00252882
F        4.94508427       8.95359643       8.82214326      -0.04154359       0.01389432       0.01284254
F        4.68722811       8.72414724      10.96049626      -0.02673319       0.02801907       0.01587129
O        3.25096631      11.11900059      10.34850869      -0.01501870       0.03898121       0.00086004
O        5.09601651      11.83608823       8.88508476      -0.00679809       0.01577306       0.00236273
O        5.41149719      11.73859292      11.30396259      -0.01065958       0.01435900       0.00416684
C        5.25956847       9.48902334      10.00973044      -0.02824467       0.01783013       0.00725660
S       11.12503196       9.30743828      10.59536425      -0.00232676      -0.00938202      -0.00243640
F       12.38028404       8.93084992       8.37313522      -0.00615251       0.00270015      -0.00624962
F       10.92222754      10.52738831       8.31896593       0.00290889       0.01102298       0.00878233
F       10.26449707       8.45682121       8.28444277      -0.00822279       0.01551256      -0.00914516
O        9.87779774      10.02737455      11.03529716       0.00019193      -0.00889650       0.00356114
O       12.17078423      10.31590471      10.99389129       0.00042567      -0.01423520       0.00378096
O       11.30067387       7.96177354      11.02961755      -0.00518637      -0.01232618      -0.01338635
C       11.16933281       9.30706138       8.73860786      -0.00398517       0.00586497      -0.00225616
O        7.83223347       6.15651927       8.06197857      -0.00836116       0.00481170      -0.00668538
O        6.21973288       6.79865896       6.66981336      -0.01482564       0.00067779       0.00004418
O        8.37358294       7.09124665       6.08392345      -0.03289914      -0.02323282      -0.00396955
C        6.60529070       5.99630721       8.80320323      -0.00346822       0.01712892       0.00421458
C        5.55057472       6.06712187       7.71664696      -0.01100892       0.01143870       0.01015186
C        7.54416646       6.73091267       6.86183669       0.00517488       0.00281021      -0.02643514
H        6.53263051       6.80480129       9.52953796       0.00574308       0.02510560      -0.00493592
H        6.61151149       5.02751165       9.29369803      -0.00282623       0.02256274       0.01225768
H        5.28600806       5.08447863       7.33045952      -0.01461308       0.00964785       0.01915680
H        4.65730184       6.60986728       8.00547681      -0.00627825       0.01694292       0.01036966
O        6.64949312       3.86577049       2.93959745       0.01529032      -0.01208187      -0.00144052
O        8.16102428       4.01164320       1.32197824      -0.00013891      -0.01383527      -0.01528239
O        8.84188584       3.88936038       3.45492568       0.01765192      -0.02732008      -0.02135813
C        5.85978107       4.05242735       1.74354452       0.00329030      -0.00136591       0.00892550
C        6.90317344       4.03759490       0.62740158      -0.00893286      -0.00569608      -0.00094479
C        7.95056568       3.93279659       2.65133202       0.01674008      -0.01648525      -0.01142848
H        5.35045692       5.00768704       1.82511310       0.00671472       0.00094253       0.01398676
H        5.14702328       3.23566506       1.68440487       0.00089696       0.00102675       0.01810323
H        6.84866148       3.14535453       0.00694733      -0.01940554      -0.00411615      -0.00070371
H        6.86884944       4.93848017       0.02115156      -0.00983212      -0.00509673       0.00148602
O        1.32699660       5.69314302       4.64596325      -0.00377032       0.01154393      -0.00681263
O        3.04769299       5.67144858       6.04151397      -0.00713623       0.00822464      -0.00260012
O        1.47599176       4.06948928       6.19527022      -0.01043171       0.01392508      -0.00673574
C        2.21190575       6.73266877       4.15825845      -0.00024387       0.00726526      -0.00750166
C        3.17265110       6.92235809       5.31477320      -0.00314242       0.00381631      -0.00619978
C        1.92746848       5.04964775       5.66930674      -0.00941795       0.00843495      -0.00394744
H        1.62680039       7.62364866       3.94594427       0.00416806       0.00930047      -0.00875687
H        2.70462249       6.36560948       3.26203342       0.00030199       0.00525546      -0.00645155
H        4.20398847       7.04884172       5.00198905      -0.00346994       0.00382623      -0.00245456
H        2.87794798       7.73404120       5.97907109       0.00623178       0.00901800      -0.01120988
O       11.97540969       8.06691737       2.18200766       0.00761086       0.00110868       0.00598542
O        9.93111996       8.31413079       1.39461321       0.00846834      -0.00358567       0.00254380
O       11.31175242      10.08253502       1.53098407       0.00721140      -0.00158700      -0.00128433
C       11.52042447       6.71078685       1.93463958       0.00675273      -0.00014800       0.01368112
C       10.02632895       6.89497951       1.71711835       0.00656068      -0.00249237       0.01156897
C       11.07506915       8.88912895       1.69157253       0.00760879      -0.00163388       0.00253040
H       11.77117362       6.10772578       2.80039473       0.00793741       0.00562073       0.01722857
H       12.04177539       6.35664117       1.04660585       0.00687785      -0.00495808       0.01614097
H        9.62213712       6.34330507       0.87630548       0.00570996      -0.00918096       0.01799813
H        9.42257638       6.71964559       2.60259683       0.00888109       0.00743634       0.01482040
O       11.79118410       2.42245592       2.49645641       0.02067001      -0.00891879      -0.01097247
O       10.68485729       0.80315767       3.49092008       0.00304213       0.00767559      -0.00541655
O       10.89362780       0.80182071       1.27658570       0.00587606      -0.00530457      -0.00505561
C       11.87030358       2.77368523       3.91524618       0.01995322      -0.00126165      -0.01292104
C       11.04695711       1.68297074       4.59569359       0.01277950       0.00730121      -0.00850856
C       11.13267041       1.30211963       2.38531862       0.00973722      -0.00175631      -0.00615118
H       11.43039566       3.76054227       4.01645354       0.02576905       0.00175807      -0.01975050
H       12.91830529       2.77404409       4.19087014       0.01922685      -0.00460713      -0.01107286
H       11.61836509       1.08751815       5.29562433       0.00956002       0.00459504      -0.00829703
H       10.11183122       2.03323745       5.02449002       0.01665038       0.01642586      -0.00810069
O        8.50697399       0.75698813      10.81870098      -0.00245748      -0.00802557       0.00171472
O        9.59304240       2.03175677       9.38123545      -0.00745445      -0.01784388      -0.00996563
O       10.74352970       0.64116284      10.67703234      -0.00324483      -0.00956327      -0.00590980
C        7.44856591       1.40351314      10.02366662      -0.00438923      -0.01345593       0.00110670
C        8.21442802       2.51668262       9.34157652      -0.00841041      -0.02018380      -0.01353741
C        9.65503187       1.10727132      10.30871572      -0.00315955      -0.01175979      -0.00467871
H        6.67443444       1.71030476      10.71252936      -0.00100580      -0.00627401       0.00118095
H        7.05734034       0.67260203       9.32528242      -0.00983903      -0.02126464       0.01213300
H        7.92984744       2.63572046       8.30492800      -0.00924762      -0.04365135      -0.01546234
H        8.20391778       3.46494197       9.88101993      -0.00969636      -0.01427409      -0.02835479
O        7.42360959       8.52843612       2.87649283       0.00911206      -0.00395358      -0.00426292
O        6.89803543       8.63001259       0.72443264       0.00249487      -0.00725088      -0.00262880
O        7.05434659       6.63891778       1.73394074       0.00836997      -0.00757194      -0.00010867
C        7.38432718       9.93692107       2.58500162       0.00497176      -0.00451301      -0.00515699
C        7.22056922       9.98913433       1.06911822       0.00229234      -0.00660278      -0.00474638
C        7.09365344       7.83986456       1.78225555       0.00721233      -0.00292313      -0.00166472
H        8.31592149      10.37464252       2.92300337       0.00423169      -0.00167437      -0.00670071
H        6.54952355      10.36591453       3.13333930       0.00452524      -0.00617278      -0.00461277
H        6.41851571      10.63219567       0.72143874       0.00128531      -0.00711620      -0.00355870
H        8.14419534      10.25104279       0.55368751       0.00118858      -0.00656410      -0.00637436
O        3.33984509       2.16076357       8.93836136       0.00125632       0.02691680      -0.02202226
O        3.92974002       3.87009491      10.22355595       0.01078925      -0.02761608       0.03872922
O        5.39415082       3.04661558       8.73951408       0.01697910       0.01273684       0.01290166
C        2.16280479       2.42755872       9.72087555       0.00340527      -0.00111753      -0.01059064
C        2.61431194       3.51814537      10.69810891      -0.00101203      -0.02017066       0.01015693
C        4.30627890       3.01411484       9.24768675      -0.00492460       0.00293433       0.01626453
H        1.87093137       1.49696762      10.20312869       0.01349680      -0.01408225      -0.02889919
H        1.37979346       2.76750277       9.04538434      -0.00343412       0.00531755       0.00110060
H        1.98679443       4.40550949      10.65533534       0.00903955      -0.01269436       0.01077551
H        2.71608776       3.16308509      11.72345432      -0.02088425      -0.03558281       0.00612932
O        4.36372669       2.76712499       5.34890285      -0.00409262      -0.00320847       0.00999063
O        4.41733065       1.65656061       3.43308929       0.00050551      -0.00199950       0.00975204
O        3.20830224       3.54381315       3.58371559      -0.00093341      -0.00507402       0.00932574
C        5.35069797       1.72858468       5.56304765      -0.00380684      -0.00237247       0.01134819
C        5.15282039       0.81712359       4.36167879       0.00072774      -0.00135487       0.00976044
C        3.93123379       2.72455664       4.08829304      -0.00348949      -0.00171018       0.00816453
H        5.16310710       1.24915986       6.51620889      -0.00655527      -0.00379264       0.00998116
H        6.33230286       2.19673223       5.58035042      -0.00456309      -0.00177443       0.01458410
H        6.08768251       0.52727649       3.89128352       0.00214285       0.00165555       0.01131777
H        4.55764602      -0.06627863       4.57596819       0.00279227      -0.00294363       0.00760202
O        4.39353653      10.13811008       1.95488850       0.00581992       0.01015466       0.01136991
O        2.55855548       8.95363483       1.58825131       0.01436484       0.00394467      -0.00692996
O        4.38381421       7.93933070       2.40793033       0.01125801       0.00814915       0.00753736
C        3.43369706      11.12266189       1.52950357       0.00463223       0.00766623       0.00917192
C        2.17227554      10.30584915       1.28075944       0.01282752       0.00255719      -0.01059987
C        3.82400701       8.92985208       2.02639099       0.00924128       0.00945950       0.00359911
H        3.82167122      11.59419564       0.63030712       0.01124790       0.01766634       0.01754463
H        3.30611407      11.83908655       2.33563840      -0.00838886       0.00052279       0.01301181
H        1.36588951      10.58194693       1.95281992       0.00246036      -0.00225736      -0.02169210
H        1.85211835      10.34094989       0.24320497       0.02715769       0.00311537      -0.01482069
O       12.15952999       6.24089051       7.46078426      -0.00257787       0.00499430       0.00414407
O       11.46142122       4.53353373       8.70144753       0.01103786      -0.00398430      -0.00173165
O       13.08412153       5.88386808       9.47852044       0.02989173      -0.01072586      -0.00454462
C       11.07894550       5.65756075       6.70745197      -0.00676578       0.00758064       0.00796515
C       10.82669315       4.33879641       7.42461233      -0.00545323       0.00678039       0.00529633
C       12.30991433       5.58324060       8.61812907       0.00123018      -0.00821584      -0.01588500
H       11.42109110       5.52890269       5.68571178      -0.01188925       0.00867486       0.00498539
H       10.22827260       6.33401910       6.73212687      -0.00646704       0.00857300       0.01117415
H        9.77084951       4.14254016       7.58407832      -0.00568759       0.01214171       0.01764323
H       11.31207313       3.49278065       6.94134819      -0.01850986       0.00501171      -0.00466561
