147
Lattice="12.704056605505745 0.0 0.0 0.0 12.704056605505745 0.0 0.0 0.0 12.704056605505745" Properties=species:S:1:pos:R:3:forces:R:3 energy=-622949.6875 stress="-0.0015887221088632941 0.0002397737916908227 0.0002966695319628343 0.0002397737916908227 -0.0006425390602089465 -0.00011869154695887119 0.0002966695319628343 -0.00011869154695887119 -0.0012852713698521256" pbc="T T T"
Os      12.72438936      12.46534931       0.62486850       0.02946553       0.01502270       0.01433411
Cl       3.09223833      10.84718441       5.52697578       0.00576800       0.00350010      -0.00332689
O        1.64465767      11.04966630       5.30174356       0.00549293       0.01261824       0.00777048
O        3.44537043       9.43320780       5.26671981      -0.00952148      -0.00429058       0.01753724
O        3.84945731      11.72373515       4.60956274       0.00363266      -0.01897240      -0.02655029
Cl       7.37364438      11.90264652      11.32040939      -0.00341058       0.00518167       0.00167370
O        8.67330007      12.63175693      11.38782462      -0.02489114       0.00133812      -0.00323308
O        7.46519236      10.69842426      12.17507807      -0.01478368       0.01117778       0.00376606
O        6.31202677      12.79365504      11.88096894      -0.00210738       0.00975895      -0.01654637
Cl      12.13725115      10.73861941       1.82516210       0.00828528       0.02205861       0.00908041
O       10.97753786       9.80711201       1.40552828       0.02601767       0.00341046       0.00094974
O       13.88627311      12.09568837      -0.55311714       0.03065181       0.02414721       0.03032559
O       12.22028600      13.98045255       1.20243022      -0.02628478       0.01741958      -0.02008051
Cl       6.59230744       9.43769261       6.60383181      -0.00748992      -0.00174737      -0.00411248
O        6.03694072      10.75587113       6.23250384       0.01269376       0.00327539      -0.01640648
O        6.89946575       8.65764207       5.37198468       0.00720918      -0.00537169       0.00219321
O        7.86768459       9.67464155       7.33555793      -0.01798034      -0.01458323       0.01812088
O        7.88859869      12.88833374       3.30768941       0.00901560       0.01280725       0.00007381
C        8.86597687      10.89043302       4.08973011       0.00616872       0.01208377       0.00033323
C        8.01520467      10.55166178       2.87013883       0.01132832       0.01305568      -0.00335708
C        8.24933374      12.20918491       4.51803717       0.00404766       0.01098764       0.00010118
C        7.81306611      11.91887683       2.23727118       0.00860395       0.01420832      -0.00079544
H        8.79365179      10.14292734       4.87747439       0.00369042       0.01066378      -0.00123546
H        9.91354446      11.02035483       3.80770849       0.00691319       0.01223826       0.00334598
H        8.48706212       9.85503832       2.18130949       0.01685366       0.01644547      -0.00278515
H        7.07300991      10.11724580       3.20781456       0.01151457       0.00881957      -0.00877631
H        7.35421717      12.02339593       5.12387216       0.00182414       0.00856578      -0.00415057
H        8.92126969      12.85455242       5.08808804       0.00081646       0.01075304       0.00390050
H        8.59722610      12.14190904       1.50738977       0.00665146       0.01731618      -0.00205666
H        6.86175543      12.03695407       1.71593679       0.00717115       0.01261032       0.00141448
O        4.49648981       3.16876942      10.64447339      -0.00771123       0.00568025      -0.01684034
C        2.20854258       2.69657895      10.79541631      -0.00109583      -0.00881685       0.01592737
C        2.43003702       4.11707025      11.31811975      -0.00531214      -0.00676903       0.01158339
C        3.59560571       2.10044690      10.96261663       0.00455165       0.00125437       0.00216639
C        3.83655324       4.42394162      10.80661587      -0.01073217       0.00192812       0.00066437
H        1.44597372       2.14132309      11.33936733       0.00814541      -0.01303519       0.02445118
H        1.93459926       2.72026502       9.73648790      -0.01172546      -0.01265378       0.01868194
H        1.69484948       4.83705817      10.95960650      -0.01255472      -0.01198573       0.01635780
H        2.41666687       4.12285766      12.40851683       0.00284410      -0.00504996       0.01153305
H        3.76791257       1.76674475      11.99111469       0.01960857       0.00868624       0.00203311
H        3.81402234       1.26560372      10.29735750       0.00228046      -0.00096172       0.00459814
H        3.81115019       4.92663295       9.83163968      -0.02039108       0.00971977       0.00535119
H        4.41101285       5.04958732      11.49589052      -0.00731093      -0.00180757       0.00123835
O        3.60894643       3.30797616       1.95674639       0.00288722      -0.00464106      -0.01222831
C        2.91513030       1.50839372       3.35100861      -0.00511393       0.00628421      -0.00360328
C        4.44021339       1.60608102       3.35439514      -0.00460547      -0.00625253      -0.00968570
C        2.54346549       2.35676280       2.14431830      -0.00013333      -0.00057030      -0.00951207
C        4.64479079       3.04122421       2.90926547       0.00564881      -0.01001942      -0.01656264
H        2.55652130       0.48532855       3.28371520      -0.01396948       0.00882620       0.00542231
H        2.50496735       1.92534755       4.27418778       0.00098333       0.01855071      -0.00649723
H        4.88369869       1.37906465       4.32051918      -0.00194164      -0.00632188      -0.01102564
H        4.87424060       0.91571947       2.63000247      -0.01421663      -0.01299179      -0.00889924
H        2.46533146       1.74661698       1.23766365       0.00080126      -0.00659439      -0.00544900
H        1.59795380       2.89212766       2.26192361       0.00135744       0.00324890      -0.01567702
H        4.54585263       3.73334569       3.75960168       0.01547821      -0.00543410      -0.01934522
H        5.60391049       3.22968422       2.42489192       0.00499117      -0.02083320      -0.02185386
O        8.10385261       6.73940016       2.69393172       0.01190664       0.00423932       0.00706740
C        8.00371872       4.71349768       3.87406871      -0.00117566       0.00230628       0.00119799
C        8.67588233       4.44550092       2.52854431       0.00463223       0.00230384       0.00432679
C        7.24901438       6.00029631       3.56539587       0.00403642       0.00467575      -0.00051600
C        9.05211708       5.85575475       2.08638614       0.00887609       0.00182354       0.00632596
H        7.35805056       3.90147356       4.20760071      -0.00493096       0.00363238      -0.00310107
H        8.75633541       4.89170601       4.64764555      -0.00472161      -0.00083843       0.00516032
H        9.53152976       3.77506276       2.57959632       0.00342539       0.00122924       0.00852171
H        7.96215085       4.01243626       1.82690847       0.00780508       0.00341598       0.00065425
H        6.30487528       5.77103214       3.04867875       0.00690138       0.00814117      -0.00713325
H        7.02168791       6.63283031       4.42522833       0.00049786       0.00356841      -0.00080830
H       10.05413566       6.13631052       2.43349913       0.00946248      -0.00123960       0.00665992
H        9.01938857       5.97626757       1.00263468       0.00972014       0.00319710       0.00642943
O       10.47458593       0.68958617       7.58541726      -0.00325623      -0.00251484       0.00342661
C       11.37640686       1.98253791       9.34573016       0.00411569      -0.00683343       0.00210655
C       11.79313300       2.59320407       8.00875280       0.00754076      -0.00996968       0.00174999
C       10.97740291       0.57343443       8.92984570      -0.00449768      -0.00442743       0.00294793
C       10.74776439       1.98880395       7.07910751       0.00433716      -0.00422657       0.00202718
H       12.15934418       1.98701707      10.10058255       0.00404274      -0.01146301       0.00192420
H       10.51588231       2.51694711       9.75250397       0.00723702      -0.00176120       0.00163040
H       11.78698927       3.68274466       7.99826400       0.01362118      -0.00993752       0.00121273
H       12.79153583       2.25267966       7.72492183       0.00550842      -0.01573661       0.00186922
H       11.85267859      -0.08718951       8.91831932      -0.00901330      -0.01014918       0.00347973
H       10.20951846       0.13149973       9.56637267      -0.00752532       0.00082430       0.00294232
H        9.82629036       2.59012569       7.09254132       0.00798374       0.00097090       0.00106663
H       11.07794653       1.90371381       6.04051572       0.00442274      -0.00685453       0.00234616
O        8.25527479       4.17493410      12.01000504      -0.01461014      -0.00071894       0.00179708
C        7.57123091       3.97595855       9.77015959      -0.00101954       0.00690825      -0.00180799
C        7.55029993       2.58511293      10.39274463      -0.00304189       0.00402820      -0.00834352
C        8.49949867       4.71730956      10.72273588      -0.00447726       0.00192426       0.00485200
C        7.58479967       2.89330542      11.87938988      -0.00855991      -0.00279516      -0.00664228
H        7.92213976       3.98914024       8.73849952       0.00199920       0.01150521      -0.00051489
H        6.57204199       4.41232954       9.79763852      -0.00114885       0.00660948      -0.00259498
H        6.67173591       2.00281154      10.13597810      -0.00156340       0.00516751      -0.01469069
H        8.42961626       2.00610571      10.11330166      -0.00136432       0.00602375      -0.00812436
H        9.55248576       4.55611530      10.44472872      -0.00346452      -0.00092514       0.01048167
H        8.32710720       5.79730930      10.75953808      -0.00115263       0.00208235       0.00708056
H        6.57579411       2.99369435      12.28652396      -0.00985491      -0.00894023      -0.00927943
H        8.12347571       2.13884192      12.45033654      -0.00711292      -0.00367790      -0.00890848
O       11.66797382       7.55834681       7.03652080       0.00639349      -0.00222182       0.01841158
C        9.38299159       7.07719518       6.74873922       0.00895858      -0.00389688      -0.00436972
C        9.96874478       6.08266812       7.74200888       0.00172582      -0.00484729      -0.00091828
C       10.62822903       7.56989232       6.03856526       0.01488757       0.00015967       0.00899912
C       11.23648979       6.81250866       8.16475897      -0.00566226      -0.00143915       0.01417807
H        8.64250337       6.66367736       6.06887311       0.01739880      -0.00464677      -0.01284921
H        8.90861593       7.90904726       7.26981593       0.00035620      -0.00711161      -0.00709668
H        9.31270743       5.87670698       8.58304313      -0.00621907      -0.01004504      -0.00855383
H       10.20835670       5.13307356       7.25354460       0.01078936      -0.00223455      -0.00143223
H       10.92479109       6.90754755       5.21540289       0.02411354       0.00395614       0.00981688
H       10.53243693       8.57988412       5.64130952       0.01712424       0.00141221       0.01196617
H       11.02883015       7.49466591       8.99957006      -0.01869313      -0.00116295       0.01065952
H       12.04719406       6.14340947       8.47509374      -0.00767025       0.00152183       0.02515158
O        1.05873781       7.12680906       5.18339539      -0.02887613      -0.01197374      -0.02168363
C        2.14444419       5.64962517       3.72296758      -0.00355814      -0.00573134      -0.00452155
C        2.33362548       5.13997712       5.15120912      -0.00074619       0.00360325      -0.00168552
C        1.84087318       7.11405886       3.98936184      -0.01314780      -0.00698435      -0.01067978
C        1.23334256       5.90503450       5.88363737      -0.00416762       0.00147116      -0.00323902
H        3.00363007       5.48812878       3.07635140      -0.00256413      -0.00450230      -0.00340544
H        1.28167688       5.16011647       3.26222270      -0.00129265      -0.01204318      -0.00189590
H        2.23560880       4.06017837       5.25539895       0.00462652       0.00378639       0.00461116
H        3.31798929       5.43330655       5.52357693      -0.00157258       0.00978655      -0.00482269
H        2.75540805       7.69661138       4.15063671      -0.01711756      -0.00344706       0.00019827
H        1.25874194       7.60524631       3.20649398      -0.00608462      -0.00979903      -0.01723346
H        0.28823790       5.34234372       5.85948068       0.00239682      -0.00938988       0.01481901
H        1.46868185       6.11479273       6.93109616       0.00380926       0.02050984      -0.00901103
O        3.40456052       9.46446453      10.43934411      -0.00967187      -0.00879750      -0.00387183
C        5.10454364       7.89269841       9.98784885      -0.00189167       0.00009018      -0.00662206
C        5.67930612       9.29706943       9.83857304      -0.00587320       0.00327165       0.00752348
C        3.61472153       8.18117932       9.85896791      -0.00244910      -0.00487405      -0.00969427
C        4.67822375      10.12416148      10.61932403      -0.01242775      -0.00699758       0.00974271
H        5.46122913       7.19344946       9.23087088       0.00357907       0.00730106      -0.01051369
H        5.34304488       7.49249574      10.97719492      -0.00429039      -0.00702647      -0.00895137
H        6.69469456       9.40396465      10.20770242      -0.00872403       0.00295798       0.01496665
H        5.65792096       9.59541777       8.79341946       0.00070852       0.01249442       0.01007456
H        3.32042048       8.20837120       8.80265412       0.00067233      -0.00042611      -0.01023507
H        2.97217643       7.45909577      10.37465671      -0.00097769      -0.01026219      -0.01553968
H        4.92717557      10.15341103      11.68247509      -0.01807508      -0.01723751       0.01107401
H        4.59018296      11.14982464      10.25830233      -0.01394856      -0.00390238       0.01958987
O        4.72407290       8.82094527       1.28198692      -0.00226474      -0.00338399      -0.00693846
C        2.43819923       9.19157201       0.85852157      -0.00273621      -0.00387076      -0.00079778
C        2.88253661      10.17619803       1.93703784      -0.00215995      -0.00587192       0.00065303
C        3.52658597       8.13477431       0.95972806      -0.00245965      -0.00381123      -0.00415114
C        4.40315836      10.10809577       1.85038057      -0.00201887      -0.00747851       0.00248796
H        1.44283663       8.78023122       1.02570031      -0.00271708      -0.00386833      -0.00112460
H        2.45677105       9.65628143      -0.12792653      -0.00330350      -0.00241873       0.00007004
H        2.50960348      11.18415627       1.76641425       0.00104524      -0.00460505       0.00167532
H        2.54815883       9.86736769       2.92836522      -0.00370583      -0.00597775      -0.00002468
H        3.29293223       7.40318457       1.74538860      -0.00013955      -0.00440714      -0.00402623
H        3.68869900       7.58494373       0.02790707      -0.00392434      -0.00299552      -0.00471538
H        4.82199373      10.87199918       1.18589402       0.00041252      -0.00320858       0.00898731
H        4.87127149      10.20124285       2.83073378      -0.00356060      -0.01493001       0.00379360
