137
Lattice="12.491709620530314 0.0 0.0 0.0 12.491709620530314 0.0 0.0 0.0 12.491709620530314" Properties=species:S:1:pos:R:3:forces:R:3 energy=-556333.5 stress="0.0008177683921530843 -0.0002243043709313497 0.00019370963127585128 -0.0002243043709313497 -0.0006931826937943697 -0.0006651424337178469 0.00019370963127585128 -0.0006651424337178469 0.00044538354268297553" pbc="T T T"
Os      13.30413889      11.59273494      -1.84404214      -0.00356191      -0.01594579       0.01694560
O        4.27018034       8.42145044       7.94379175       0.00418425      -0.00291190       0.00416493
O        6.01292653       7.86468145       6.62608183       0.00553679       0.00629234       0.00304466
C        4.70199008       9.74267513       6.03193882      -0.00296590       0.00057304       0.00471997
C        5.37444451       9.89432290       4.82220900      -0.00388981       0.00347625       0.00448360
C        3.76058860      10.70003135       6.40236276      -0.00591442      -0.00264542       0.00576821
C        5.14599132      10.99698545       4.00974333      -0.00710767       0.00365154       0.00573756
C        3.52608349      11.80717868       5.59410774      -0.00923303      -0.00266248       0.00683688
C        4.22615420      11.96490437       4.40118209      -0.00969843       0.00076786       0.00690314
C        5.01654401       8.55601769       6.95453897       0.00316113       0.00114119       0.00321877
H        6.07412875       9.12193944       4.53500236      -0.00159392       0.00582156       0.00344425
H        3.21802440      10.55613308       7.32811293      -0.00603672      -0.00424635       0.00562918
H        5.67967639      11.09983826       3.07199905      -0.00719230       0.00588120       0.00594324
H        2.78805378      12.54091360       5.89374804      -0.01152822      -0.00518373       0.00760882
H        4.05078304      12.83155036       3.77514746      -0.01163256       0.00124757       0.00798862
O       -0.86497227       5.75148908       1.49504881      -0.02502179       0.02493370      -0.01670671
O        0.39507225       5.44710777       3.34461772      -0.02132881       0.00983739      -0.02140713
C        0.68692122       7.42670578       2.10132811      -0.01681077       0.01528180      -0.01115993
C        1.53643401       7.95923297       3.06709169      -0.00985193       0.00598548      -0.01201063
C        0.42372463       8.15827126       0.94589263      -0.01792888       0.02325758      -0.00643046
C        2.10103993       9.21666187       2.89806591      -0.00572520       0.00498562      -0.00700706
C        0.99259073       9.41396647       0.77383764      -0.01159526       0.02082171      -0.00244791
C        1.82924817       9.95055009       1.74571903      -0.00661938       0.01258552      -0.00212754
C        0.00897919       6.06656958       2.33167338      -0.02184123       0.01661432      -0.01700675
H        1.72719689       7.36547154       3.95208687      -0.00731062      -0.00073311      -0.01697086
H       -0.23142472       7.71164648       0.20942259      -0.02313858       0.03104067      -0.00641999
H        2.74762889       9.63143766       3.66125709      -0.00090249      -0.00192618      -0.00709298
H        0.77925061       9.98866821      -0.14168118      -0.00931470       0.02660111      -0.00117501
H        2.27012057      10.93101214       1.61187998      -0.00278566       0.01154457       0.00173149
O        2.69663951      11.88701015      11.01592295      -0.01299554       0.00885096       0.04160316
O        2.45169006       9.81395676      10.41689611      -0.01217639       0.03118956      -0.02567321
C        4.70143541      10.61979940      10.83443351      -0.01148045       0.01074786      -0.00512236
C        5.38495730       9.42839833      10.57807786      -0.02281201       0.00732681      -0.02248544
C        5.41046244      11.78121927      11.14887780      -0.00042054       0.00041932       0.01070885
C        6.77144254       9.42083690      10.65427937      -0.02331596      -0.00723326      -0.02012551
C        6.79272882      11.77206070      11.18826800      -0.00008884      -0.01462004       0.01389540
C        7.47502782      10.58519776      10.94567819      -0.01193854      -0.01898068      -0.00062868
C        3.24349080      10.70292698      10.73807772      -0.00799578       0.02114564       0.00212027
H        4.83727172       8.54440295      10.28199657      -0.02714418       0.01453684      -0.03771414
H        4.85651170      12.68647447      11.34097248       0.00849959       0.00399064       0.02194109
H        7.31209176       8.50042833      10.47456343      -0.03363647      -0.01052117      -0.03465843
H        7.33642620      12.68509801      11.39669810       0.00877580      -0.02292484       0.02808930
H        8.55705652      10.57520755      10.98102098      -0.01218826      -0.03314282       0.00342861
O       12.28991350      10.65722871       9.37112324      -0.00021404      -0.01309425       0.00822949
O       13.02530016      11.53194091       7.42639394       0.00528252      -0.02871823       0.01786059
C       10.97072738      10.33154719       7.46880494       0.01210874      -0.01024759      -0.00309792
C       10.77877948      10.46200053       6.09374236       0.00904155      -0.00820985      -0.00416192
C        9.98716402       9.71830397       8.25182227       0.00682545      -0.01201949      -0.00449860
C        9.62184100       9.97692829       5.50837699       0.00442327      -0.00074090      -0.00399867
C        8.83392809       9.23540855       7.65692134       0.00301841      -0.00381837      -0.00554764
C        8.65165749       9.35684877       6.28439449       0.00272658       0.00376332      -0.00346632
C       12.19932005      10.89949417       8.04680556       0.02498698      -0.00447834      -0.00506306
H       11.55112148      10.94188104       5.50749577       0.00949560      -0.01230979      -0.00956944
H       10.14195375       9.62224805       9.31692634       0.01227039      -0.01752574      -0.00716586
H        9.47921923      10.07471615       4.44106076       0.00203583       0.00209532      -0.00278459
H        8.05752891       8.74910976       8.23235192       0.00455111      -0.00106694      -0.00556599
H        7.74361391       8.93737069       5.86937081      -0.00154826       0.01094694      -0.00206747
C        7.01878561       8.14389082       1.50879513      -0.00131422      -0.00322089      -0.00331527
C        6.14736092       7.02636799       2.06800229       0.00038175      -0.00506702      -0.00392938
C        8.22739118       8.50532865       2.36315054       0.00462802      -0.01221487      -0.00759971
C        5.00059734       6.66157581       1.12966603      -0.00698788       0.00102881       0.00261384
C        9.08664798       9.58217940       1.71252594       0.00456807      -0.01026782      -0.00449927
C        4.16404431       5.48716503       1.61578987      -0.00527886       0.00032058       0.00410566
H        7.37242597       7.84956313       0.51512730      -0.00810675       0.00210366      -0.00740314
H        6.40361199       9.03755401       1.34830821      -0.00065623      -0.00090855       0.00604893
H        5.74222420       7.31591918       3.04339054       0.00807066      -0.00972472       0.00079155
H        6.76834044       6.14146392       2.25028287       0.00060284      -0.00688681      -0.01331398
H        7.88768915       8.84281410       3.34703074       0.01094423      -0.01846862      -0.00314191
H        8.83545412       7.61335245       2.53808667       0.00347665      -0.01512778      -0.01785251
H        4.35639835       7.53580008       0.99218561      -0.00645664       0.00274006       0.01051027
H        5.41622315       6.43499470       0.14096307      -0.01454395       0.00416148      -0.00131670
H        9.45807408       9.24031201       0.74485469      -0.00247092      -0.00443611      -0.00940542
H        9.95946563       9.83540406       2.31538905       0.00949810      -0.01887000      -0.00794627
H        8.51118825      10.49579350       1.54286617       0.00724903      -0.00666192       0.00591132
H        4.78299670       4.59606491       1.74733855      -0.00551827      -0.00103110      -0.00357833
H        3.68725233       5.70392525       2.57206467       0.00181910      -0.00263668       0.00838175
H        3.36704097       5.24444480       0.91252960      -0.01064919       0.00387830       0.00896709
C       11.44014289       1.69936271       8.63872402       0.01357365      -0.01740935       0.00851821
C       10.46660261       1.47798651       7.47662418       0.01235449      -0.00648098       0.00873099
C       10.98134242       1.07114764       9.95970461       0.00549912      -0.01747369       0.00501336
C       11.09121409       1.75492181       6.10943140       0.00895375       0.00027731       0.00918420
C       12.08593291       0.75693953      10.98830491       0.00542718      -0.01259848       0.00506514
C       10.19462669       1.38118307       4.93446278      -0.00039339       0.00442387       0.01558685
H       12.40340395       1.27239548       8.34833577       0.00974458      -0.02684437       0.00883038
H       11.61530448       2.77195482       8.77796276       0.02399342      -0.01918814       0.01243688
H        9.56602553       2.08855454       7.61044467       0.01408783      -0.00468722       0.01392888
H       10.12486923       0.43807905       7.49581356       0.00912713      -0.00587216       0.00150420
H       10.24667903       1.73399786      10.43554068       0.00299141      -0.01877490       0.00229529
H       10.43562618       0.14636180       9.73787641       0.00778908      -0.01834166       0.00248504
H       11.37761725       2.80615698       6.03003880       0.00809955       0.00075036       0.01274630
H       12.01855649       1.17811668       6.04422575       0.00890580       0.00068176       0.00210179
H       13.61140313       0.01067304       9.43333139       0.01358611      -0.03808130       0.00334182
H       11.60461888       0.55634718      11.95276379       0.01224454       0.01031891       0.01339507
H       12.72025184       1.63754786      11.12787441       0.01637238      -0.01763001      -0.01805666
H        9.91715592       0.32662297       4.97175870       0.00657418       0.00257099       0.01241907
H        9.27116503       1.95989258       4.92989708      -0.00415854      -0.00135878       0.03278110
H       10.70169207       1.56420471       3.98527909      -0.01407482       0.01476800       0.01048021
C        7.22993947       4.12294158      10.96259910       0.00573619       0.00940426      -0.00198394
C        6.27229838       3.65479849       9.87378924       0.00538687       0.01256435      -0.00312245
C        8.31186317       5.07162570      10.46160664       0.01031554       0.00552648       0.00017464
C        5.15680896       2.77070975      10.41626217       0.00118931       0.01762982      -0.00319338
C        9.27765678       5.51196790      11.55399684       0.00896451       0.00221828       0.00281841
C        4.29422206       2.13240868       9.33588748       0.00215042       0.01592819      -0.00287220
H        6.66099935       4.61208436      11.76193828       0.00634409       0.01145498      -0.00275055
H        7.70275387       3.24832499      11.42713231       0.00128914       0.00735715      -0.00147332
H        6.83573824       3.09682250       9.11738933       0.00405382       0.01030850      -0.00249062
H        5.84522748       4.51913443       9.35521006       0.00884843       0.01376981      -0.00391769
H        8.86264586       4.58735162       9.64711292       0.01016466       0.00319846       0.00148955
H        7.82620695       5.94245372      10.00772165       0.01428631       0.00706750      -0.00110255
H        5.61544060       1.99118475      11.03046257      -0.00353038       0.01781544       0.00089216
H        4.52980526       3.35349228      11.09816984       0.00132793       0.02277482      -0.00733690
H        8.75052999       5.98710737      12.38373136       0.00863595       0.00188261       0.00296107
H       10.01199908       6.22711154      11.18255555       0.01163337       0.00138806       0.00657295
H        9.83634898       4.67867294      11.98078813       0.00638634       0.00041893       0.00253615
H        3.79643614       2.89362000       8.73277993       0.00892629       0.01467058      -0.01011836
H        4.89643853       1.52076621       8.66054570       0.00172111       0.00816396       0.00377151
H        3.52551193       1.48633225       9.76191855      -0.00330548       0.02328902      -0.00107338
C        9.60286450       6.00227603       5.92227060       0.00611866      -0.00409424       0.00093361
C        8.81785412       4.69978910       5.88873620       0.00076246      -0.00063550      -0.00760945
C       11.11103250       5.78036370       5.97776829       0.00501820      -0.01004571       0.00436783
C        7.30373516       4.86714627       5.87121622       0.00158966       0.00711387      -0.00500251
C       11.90231331       7.07813033       6.02920491       0.00874388      -0.01263100       0.00862046
C        6.58102509       3.52537794       5.85970975      -0.00571096       0.01115322      -0.00742190
H        9.35470767       6.59776921       5.03670405       0.01142576       0.00118159       0.00298735
H        9.27763297       6.59505715       6.78338049       0.00615242      -0.00681952       0.00286976
H        9.09896195       4.09841894       6.76237798      -0.00132292      -0.00813740      -0.01201800
H        9.13436759       4.12300970       5.01383417      -0.00276397       0.00418802      -0.01205549
H       11.34296034       5.17681227       6.86299304       0.00066697      -0.01231784       0.00403270
H       11.43948995       5.21497426       5.10106778       0.00466686      -0.00908698       0.00367320
H        6.97686263       5.46778648       6.72401505       0.00615758       0.00633499      -0.00267211
H        7.00996038       5.45176427       4.99533946       0.00343876       0.01124561      -0.00290748
H       11.73703794       7.66327061       5.12345195       0.01145241      -0.00990909       0.00991148
H       12.97542946       6.89282266       6.10018413       0.00784683      -0.01640302       0.00889754
H       11.60444134       7.69180745       6.88085425       0.00984704      -0.01404886       0.01000683
H        6.83019975       2.94625035       4.96702324      -0.01018569       0.01200067      -0.00927870
H        6.86398778       2.91826604       6.72327669      -0.00781192       0.00764225      -0.00916862
H        5.49751161       3.64667872       5.88619146      -0.00501025       0.01722871      -0.00545142
