150
Lattice="12.369873150275824 0.0 0.0 0.0 12.369873150275824 0.0 0.0 0.0 12.369873150275824" Properties=species:S:1:pos:R:3:forces:R:3 energy=-614181.25 stress="0.000393585825804621 -0.000573197117773816 -0.00045536391553469 -0.000573197117773816 0.0014987722970545292 0.0003587337996577844 -0.00045536391553469 0.0003587337996577844 0.00044978081132285297" pbc="T T T"
Os      11.60101363      11.77628533       0.35160942      -0.00535339      -0.01488125       0.01280084
S        5.15856379      11.80950301       7.13022986       0.00143707       0.00571090      -0.00321332
O        6.20243918      10.81606123       7.38590753      -0.00046539       0.00171113      -0.00199658
O        5.36290394      12.56257382       5.89575661       0.00365368       0.00169587      -0.00510955
O        4.84952622      12.64814628       8.28678164       0.00633889       0.00897300      -0.00482178
C        3.67215588      10.85074039       6.82947002      -0.00179565       0.00985712       0.00148594
H        3.45578455      10.25796353       7.71625483       0.00016567       0.00980808       0.00204071
H        2.85843130      11.53824640       6.61009370      -0.00098850       0.01214932       0.00550717
H        3.85392026      10.21312375       5.96705900      -0.00728557       0.00963181       0.00025443
S        1.96125183      10.95573654       1.71396745      -0.00345634      -0.00509691      -0.00035377
O        0.41569122      10.87706771       1.77428413      -0.00265622      -0.01301184       0.01045020
O        2.45872780      11.34432092       3.01030426       0.00599682      -0.01009899      -0.00329757
O        2.35862952      11.75234310       0.57359046      -0.01823401       0.00575250      -0.00018811
C        2.39096157       9.26890004       1.43878758       0.00534180       0.00000787      -0.01704495
H        1.95463966       8.95951089       0.49216422      -0.00326014       0.00302939      -0.01411238
H        3.47683986       9.16026052       1.38761705       0.00539732       0.00618523      -0.02789989
H        1.97357076       8.69507467       2.26269471       0.01847049      -0.00849838      -0.01629242
S        5.94636283       8.69399934      11.60119562       0.00992870      -0.02662963      -0.00302714
O        7.00026101       9.61638020      12.02908234       0.02497554      -0.03685832      -0.01362026
O        5.10306629       8.23337756      12.71131584       0.00875688      -0.01071060       0.00191855
O        6.43266930       7.60196590      10.75491559      -0.01119673      -0.03755808      -0.00133431
C        4.85232654       9.66290014      10.56122424       0.02338529      -0.01199985      -0.00094694
H        5.42357426      10.10281668       9.74734853       0.02683277      -0.02615225      -0.00570358
H        4.08743085       8.98945767      10.17562479       0.00796091       0.00236859       0.00641700
H        4.39246580      10.44209395      11.16678239       0.04245754      -0.00001511      -0.00291676
S       10.89056723      10.92159451      10.25397139      -0.00546378      -0.01541522       0.00632104
O        9.99044556       9.87555490       9.91440987      -0.01028001       0.00823912      -0.00448693
O       12.00042422      10.48898478      11.22665156      -0.01860137      -0.02059984       0.01569706
O       10.34959168      12.13288150      10.92689307      -0.00730212       0.00046036       0.01496750
C       11.66972508      11.47521181       8.77535071       0.01303956      -0.00096472       0.02301466
H       10.85832019      11.80945896       8.13084375       0.02625942       0.01178622       0.01492928
H       12.34801160      12.29116810       9.00426081       0.02055597      -0.01220250       0.03729977
H       12.18659237      10.63485476       8.32045961       0.01200385      -0.00593039       0.02249354
O       10.31327875       6.89744081       5.94419542      -0.00162899       0.00267771       0.00657248
C        9.24369475       7.20618540       8.03852124      -0.00628114       0.01167523       0.00340128
C        9.01336837       8.44603877       7.17581769      -0.00180505       0.00889611      -0.00206164
C       10.43288833       6.56702895       7.33623773      -0.00603703       0.00657215       0.00813687
C        9.30518038       7.90667162       5.78464971      -0.00056353       0.00281885       0.00055584
H        9.43665642       7.43609233       9.08372005      -0.00916545       0.01518236       0.00320777
H        8.37316558       6.54982765       7.99977643      -0.00768214       0.01319112       0.00380880
H        8.02179306       8.88559886       7.27678854      -0.00102484       0.01185948      -0.00545830
H        9.73942251       9.21553330       7.44319867      -0.00037181       0.00814837      -0.00382223
H       11.37917789       6.97424490       7.71569591      -0.00587600       0.00508785       0.00891848
H       10.47283278       5.47901029       7.42861788      -0.00844959       0.00651562       0.01202125
H        8.41380858       7.44873968       5.33941717      -0.00044763       0.00199577       0.00107759
H        9.68029079       8.66077272       5.08912194       0.00146598      -0.00079337      -0.00255921
O        4.71745973       7.64356948       4.29116772      -0.00484452       0.00575671       0.00528711
C        4.65900797       6.12627702       6.10543601       0.00077409       0.00434774       0.00501496
C        3.40255904       6.99513910       6.13656034      -0.00211376       0.00038231       0.00494218
C        5.56995853       6.95653155       5.21206562      -0.00211842       0.00601172       0.00346649
C        3.36108726       7.51306827       4.70429888      -0.00446773      -0.00173284       0.00421995
H        5.09263657       5.95558576       7.08902397       0.00194545       0.00649269       0.00498939
H        4.45677642       5.15559228       5.64748392       0.00347490       0.00327596       0.00614266
H        2.49823888       6.45391790       6.41307202      -0.00029020      -0.00224753       0.00626611
H        3.53782024       7.82427052       6.83361034      -0.00446698       0.00190699       0.00370428
H        6.12388336       7.69771684       5.80047070      -0.00183895       0.00676036       0.00229865
H        6.28237480       6.35019407       4.64750150      -0.00237516       0.00681454       0.00211960
H        2.84842227       6.79600898       4.04739268      -0.00002655      -0.00595218       0.00521424
H        2.87257206       8.48458829       4.60158832      -0.00992395      -0.00475258       0.00219369
O        6.87738327       3.15621779       9.62776076      -0.00323215       0.02305865       0.00305271
C        8.31620026       3.69999564      11.40763950      -0.00081474       0.00426170       0.00700730
C        8.22796777       2.17843664      11.29799021      -0.01605321       0.00532097       0.00248837
C        7.05438837       4.11862467      10.67487695       0.00289130       0.01800748       0.00770772
C        7.69301137       2.00341127       9.88348999      -0.01577690       0.01355577       0.00104254
H        8.34511716       4.08069260      12.42704730       0.00194822       0.00116779       0.00809637
H        9.20039603       4.07961875      10.88982780       0.00297880      -0.00233434       0.00812599
H        9.17297718       1.66351699      11.43684886      -0.02150938      -0.00491048       0.00223216
H        7.51936852       1.78231617      12.02904459      -0.02142438       0.01057124       0.00010514
H        6.18952802       4.07757598      11.35059625       0.00252146       0.02229934       0.00760680
H        7.09039600       5.12189513      10.24834675       0.00951667       0.02005935       0.01307523
H        8.52514082       1.99385617       9.16383284      -0.01451141       0.00780719       0.00185695
H        7.09905160       1.10278430       9.71990747      -0.02259439       0.01553440       0.00094869
O       10.17556877       6.40209537      -0.07629412      -0.00070029       0.00412813      -0.00624728
C       11.26335497       6.74032207       1.98201563      -0.00936438       0.01049064      -0.00204647
C       10.55086426       8.03713567       1.59383496      -0.01414490       0.00658911      -0.00627697
C       11.36359390       6.05676616       0.62596730      -0.00224292       0.00892341      -0.00102478
C        9.54825872       7.54266899       0.55758917      -0.00909331       0.00002789      -0.00773484
H       12.23484961       6.89129202       2.45240617      -0.01163273       0.01567779       0.00058155
H       10.64639133       6.15494972       2.66896061      -0.00901046       0.00875652      -0.00302649
H       10.06951326       8.54046726       2.43119581      -0.01845914       0.00720265      -0.00908041
H       11.26386257       8.73754315       1.15104094      -0.01567349       0.00806239      -0.00644828
H       12.24265360       6.42104475       0.07543263      -0.00175017       0.01103973       0.00145036
H       11.43614100       4.96672268       0.67941291       0.00119250       0.00919569       0.00079109
H        8.61669594       7.21033447       1.02587538      -0.00819206      -0.00610363      -0.00930765
H        9.28080395       8.27557810      -0.20242719      -0.01377544      -0.00191742      -0.00757742
O       11.13937271       1.88646976       3.89936876      -0.00039970      -0.00454427       0.00131023
C       10.36788914       2.09568814       1.71253179       0.00214517      -0.01099843      -0.00000608
C       11.12767245       0.77646532       1.78853715       0.00121274      -0.00996483       0.00497745
C       10.94365945       2.86708722       2.89058344       0.00016198      -0.00707649      -0.00181961
C       11.57609941       0.69547748       3.25252472       0.00292955      -0.00490358       0.00509256
H       10.47669965       2.60200886       0.75432192       0.00309533      -0.01435992      -0.00210589
H        9.30329318       1.90135854       1.87433906       0.00193244      -0.01119429      -0.00095992
H       10.40056350      -0.19498662       1.46586365      -0.00482422      -0.01510906       0.01187150
H       12.10166856       0.86274713       0.99856271       0.00410843      -0.01323420       0.00240275
H       11.90062062       3.33834962       2.61574145       0.00050098      -0.00736415      -0.00179210
H       10.28247285       3.63524840       3.28924508      -0.00067264      -0.00627339      -0.00446910
H       11.12614552      -0.16114154       3.75687355       0.00705698      -0.00525871       0.00779390
H       12.66363825       0.57713408       3.31445013       0.00348264      -0.00090037       0.00336010
O        6.37971201       3.09745131       5.15860016       0.00438106       0.02110026      -0.00386134
C        8.64456186       3.77512453       5.44861542       0.00882405       0.00540820      -0.00099238
C        7.82520229       3.95421367       6.73168339       0.01025593       0.00245458       0.00068808
C        7.59240037       3.27174920       4.43280250       0.00782400       0.00653541      -0.00119072
C        6.72367339       2.93051972       6.52957060       0.00267217       0.01158684      -0.00430524
H        9.13429599       4.69864848       5.13801561       0.00703494       0.00702018       0.00076461
H        9.42052819       3.02092207       5.58646420       0.01010582       0.00626388      -0.00419417
H        8.39150557       3.80205790       7.64705276       0.00981152      -0.00697141      -0.00058454
H        7.38296377       4.95251366       6.76814860       0.01725255       0.00515237       0.00778506
H        7.38378418       3.98115507       3.62813169       0.01577763       0.00156656      -0.00736433
H        7.89107570       2.32161469       3.97474535       0.00244224       0.00073969       0.00725102
H        7.07419568       1.90773972       6.71299108      -0.00552708       0.00781471      -0.00996866
H        5.82846492       3.08064149       7.12848322       0.00384974       0.01589404      -0.00343969
O        8.48045308      12.02188288       3.03925625       0.00408298      -0.00519919      -0.01274453
C        6.38358013      10.90806717       2.81784506      -0.00024730      -0.00062538      -0.00288820
C        7.12018169      10.37408608       4.04593422       0.00424665       0.00056517      -0.00486606
C        7.50837351      11.58921319       2.05478624      -0.00388044       0.00079688      -0.00774781
C        8.08153284      11.51296586       4.32866862       0.00533402       0.00073779      -0.00994632
H        5.91664927      10.13158970       2.21292335      -0.00126317      -0.00237927      -0.00003019
H        5.62782001      11.62996658       3.13353311      -0.00040236      -0.00183591      -0.00072822
H        6.47421813      10.18627207       4.90079796       0.00663081       0.00185933      -0.00259891
H        7.65964380       9.45689695       3.79124604       0.00343959       0.00041020      -0.00557417
H        7.98658148      10.89611620       1.35857109      -0.00926998       0.00339323      -0.01415026
H        7.17379104      12.46239994       1.48911954      -0.00672343       0.00443333      -0.00091588
H        7.56493330      12.29185399       4.89831845       0.00649256       0.00351977      -0.01237604
H        8.98471808      11.21486219       4.86945484       0.00578415       0.00244422      -0.01011790
O        1.46450474       3.87122039       9.92856676      -0.00218672      -0.00671622       0.00348133
C        3.67155986       3.01936852       9.93533460       0.00045288      -0.00149798      -0.00623888
C        3.70629347       4.46513906       9.44397750      -0.00550449      -0.00146684      -0.00657913
C        2.21627929       2.66864873       9.69221113      -0.00009567      -0.00537013       0.00161853
C        2.36670061       4.98712092       9.94292109      -0.00425148      -0.00495832       0.00079314
H        4.35228332       2.34682863       9.41835675      -0.00087339      -0.00024098      -0.01014781
H        3.89360997       2.98417341      11.00347039       0.00682567      -0.00104089      -0.00753367
H        4.54121948       5.05304900       9.82263718      -0.00447881       0.00008276      -0.01121834
H        3.74208692       4.47980197       8.35251450      -0.01175793      -0.00145889      -0.00665706
H        2.07164202       2.35030711       8.65150659      -0.00489236      -0.00734983       0.00318819
H        1.83363399       1.88544352      10.35062116       0.00576322      -0.00539497       0.00494140
H        2.45606299       5.36518022      10.96868369       0.00002480      -0.00599587       0.00089371
H        1.94773328       5.78660234       9.32579883      -0.00936723      -0.00537190       0.00377023
O        5.07163718       2.27276090       2.50633561       0.00273311      -0.00211693      -0.00543863
C        2.71931467       2.49175391       2.75099002       0.00181925      -0.01335286      -0.00181676
C        3.11036916       2.71797540       1.29103589      -0.00107241      -0.00913894      -0.00198379
C        4.06026548       2.61272820       3.47126320       0.00228029      -0.00883757      -0.00296561
C        4.45218827       2.00074225       1.25182645       0.00187117      -0.00335202      -0.00466985
H        1.99110192       3.21108881       3.12786769      -0.00079098      -0.01726206       0.00042831
H        2.31514920       1.48674115       2.87464798       0.00642064      -0.01534146      -0.00301527
H        2.39766645       2.30482045       0.57838891      -0.00006868      -0.01132080      -0.00176682
H        3.24025372       3.78445414       1.08484358      -0.00581531      -0.00827307      -0.00061718
H        4.24768159       3.64130990       3.79599212      -0.00167871      -0.00906968      -0.00058495
H        4.16364018       1.95768159       4.33692334       0.00627723      -0.01084691      -0.00476307
H        4.29568830       0.92326960       1.12337246       0.00587539      -0.00401986      -0.00548571
H        5.12113060       2.35481898       0.46375177      -0.00074083       0.00010350      -0.00548023
