148
Lattice="16.880413341293398 0.0 0.0 0.0 16.880413341293398 0.0 0.0 0.0 16.880413341293398" Properties=species:S:1:pos:R:3:forces:R:3 energy=-1738760.5 stress="-0.001159269129857421 0.00032876370823942125 5.948942816758063e-05 0.00032876370823942125 -0.0011095864465460181 -0.00019275931117590517 5.948942816758063e-05 -0.00019275931117590517 -0.0010005541844293475" pbc="T T T"
Os      15.81375006      18.61300455       1.19595851      -0.01036769      -0.00626229      -0.00608671
S        9.28150875      14.65060977       2.79612815      -0.00301170      -0.00611925       0.01320827
O        9.66984161      13.31134350       2.37293360       0.00845665      -0.00333238       0.01591325
O        9.21876393      14.81586959       4.25050827       0.00255790      -0.00231671       0.01306486
O        8.07397248      15.12915025       2.12265614      -0.01045752      -0.01994252       0.01795101
C       10.59096975      15.75760329       2.27434625      -0.01685739       0.00495374       0.00486282
H       10.63444389      15.79664820       1.18891582      -0.02051948       0.00463310       0.00487249
H       10.35175042      16.74947705       2.65225369      -0.02446640       0.00265696       0.00506394
H       11.52516405      15.39860898       2.70452256      -0.01239048       0.01412627       0.00185019
S        9.68574385      15.63742392      10.96589488       0.00273389       0.00495765      -0.01133150
O        9.93976992      16.99686630      11.30181614      -0.00040318       0.01449692      -0.00357872
O       10.72463301      14.74453972      10.55837123       0.00359583       0.02054334      -0.01004711
O        8.65323357      15.87219797       9.68052351      -0.00934440       0.00685788      -0.00138187
C        8.60976593      14.83186601      12.09990982       0.01395172       0.00466940      -0.00216872
H        7.91194951      15.57239920      12.48293885       0.00598431      -0.00239268      -0.00499708
H        8.12591941      14.01231955      11.57359029       0.02303829      -0.00384969       0.00281186
H        9.25391896      14.49124440      12.90684612       0.02003473       0.01785408      -0.00172484
S        9.46490256      16.31475732      15.20415242       0.01471186      -0.00363195      -0.00080776
O       10.08564420      17.08813660      16.27563277       0.01505768       0.00073504      -0.00445700
O       10.43664637      15.82002632      14.22381367       0.01533294      -0.01465648       0.00580525
O        8.31573488      16.98232229      14.57786386       0.02016854      -0.00284278      -0.00839782
C        8.76383977      14.85430509      15.95250354       0.00746518       0.00394773       0.00690806
H        8.08773423      15.15876319      16.74464355       0.00990068       0.00998916       0.00621268
H        8.23086828      14.30537278      15.17809003       0.00438216       0.00288796       0.00997088
H        9.56229792      14.24022221      16.36577774       0.00497442       0.00195250       0.00815062
S        8.47803159      14.80318332       7.41168377      -0.01210469       0.04196343       0.00138766
O        7.57026081      15.85177408       7.09322941       0.00939310      -0.02050114       0.00255573
O        8.28375669      13.46413668       6.96512196      -0.01231202      -0.00935054       0.00635037
O        8.41395171      14.56194917       9.04770915      -0.01170860       0.01085252       0.00410485
C       10.13296633      15.34253666       7.15674406      -0.01642323      -0.00174928       0.00017020
H       10.24524109      16.32186109       7.61296848      -0.00960838       0.00469136      -0.00495403
H       10.80829844      14.61631856       7.59994070      -0.00805561       0.00649257       0.00584044
H       10.22457907      15.38047785       6.06981387      -0.00676826      -0.00329336       0.00047523
Cl       4.61877454       5.42429116      10.00719277      -0.00199240      -0.01007841      -0.00953463
Cl       5.86493294       7.27485294      11.85242851       0.00368834      -0.01471803      -0.00809883
Cl       5.34606313       4.55249573      12.67258884       0.00402946      -0.01557723      -0.01386312
Cl       3.13726135       6.40706039      12.29315115       0.00364640      -0.01611819      -0.00511870
C        4.75236105       5.91861578      11.69960794       0.00229011      -0.01369600      -0.00951478
Cl       2.13233180       4.10833299       7.59684631      -0.00777453      -0.01567124      -0.00344852
Cl       0.30220552       5.24472802       9.54251574      -0.00636511      -0.01510262      -0.00471368
Cl      -0.70339648       3.54929528       7.39810204      -0.00409421      -0.01819763      -0.00597867
Cl       0.29959879       6.21173614       6.81078562      -0.00901316      -0.01569077      -0.00342891
C        0.51124607       4.77613943       7.83521831      -0.00742868      -0.01577820      -0.00429953
Cl      15.97921774      12.94392216       9.39323483      -0.00267720      -0.00856633       0.00089894
Cl      14.04594574      12.58158918      11.51867584      -0.01248820       0.00008938      -0.00726604
Cl      13.13963885      12.96551585       8.79702925       0.00062603      -0.00263143      -0.01116464
Cl      14.33332286      15.17192891      10.24409234      -0.00078245      -0.00376135      -0.00969066
C       14.36581448      13.41687517       9.99387227      -0.00417084      -0.00357343      -0.00705627
Cl       9.12914118      10.58082311       7.55701420       0.00812882      -0.00245348       0.00029421
Cl       6.66695579       9.29922636       6.80227199       0.00192022       0.01329416      -0.00374423
Cl       9.19528196       8.27910311       5.80080323      -0.00352678       0.00530469      -0.00841156
Cl       8.18118292      10.80762342       4.83036960       0.00857403       0.01341414       0.00136727
C        8.29258086       9.75295792       6.23563616       0.00340560       0.00741003      -0.00335152
Cl       6.32779992       6.49690572       4.63798687      -0.02196977       0.01548050       0.00728026
Cl       3.86506775       5.04175924       4.18372054      -0.02375564       0.01554093       0.02473745
Cl       3.96467849       7.11897049       6.20041651      -0.00789866       0.00934640       0.02991724
Cl       5.38248562       4.64202315       6.62608006      -0.00347372       0.00922751       0.00955224
C        4.88854983       5.82933187       5.41611468      -0.01434491       0.01251984       0.01791706
Cl       2.82280072      17.17075614       6.70660418      -0.01432005       0.00740111       0.00827731
Cl       1.73362304      15.23597078       8.56746175      -0.00150016      -0.00287042       0.00393876
Cl       4.56678301      15.21457169       7.92677751      -0.00554347       0.00327575      -0.01272783
Cl       2.63239411      14.36811841       5.95112954      -0.01774114       0.01250550      -0.00528646
C        2.94836031      15.48960611       7.29587764      -0.00981081       0.00461230      -0.00144773
Cl      13.66520572       7.03264260       9.07192448       0.02834581      -0.01835322      -0.00091231
Cl      14.77064643       9.67185979       8.62882353       0.00319913      -0.01053935      -0.01260251
Cl      11.97380923       9.17704484       8.08528073       0.00238311      -0.03114817       0.01596623
Cl      13.99443343       8.03265226       6.36930464      -0.00720895      -0.01594044      -0.00381529
C       13.59116419       8.47836951       8.03979906       0.00639948      -0.01912291       0.00050170
Cl      14.73320070       8.58549973      12.13559911       0.02142681       0.00290262      -0.00230134
Cl      13.68266700       9.59054082      14.63435921       0.02885985      -0.00268435       0.00059706
Cl      16.06546402       7.92963958      14.62660266       0.01365268      -0.02437779      -0.00390552
Cl      13.48675729       6.75828051      14.01608168       0.00443771       0.00313365      -0.01385009
C       14.47548132       8.22015145      13.84620674       0.01718291      -0.00521683      -0.00501128
Cl      -0.69096709       3.81977640       0.30050457       0.00564712      -0.00605733       0.00327334
Cl       1.51804152       5.85611159      -0.01740692      -0.00047760      -0.01106459       0.01308389
Cl       2.06528475       3.51697401       1.58406897       0.00029340      -0.00693843       0.01848978
Cl       0.33854502       5.59519403       2.60596314      -0.01002090      -0.01301619       0.00915188
C        0.95589692       4.78693408       1.21739209      -0.00203946      -0.01132078       0.01197428
Cl      10.89979967       4.82074710       8.60798303       0.00550938       0.01579344      -0.00567913
Cl       8.20401373       5.87671992       8.54948841       0.00185907       0.00555721       0.01066479
Cl       8.64047202       3.01119694       8.50554436       0.01166607       0.00771898       0.01021330
Cl       9.31818529       4.62093806       6.19304204      -0.00812414       0.00734890       0.00532115
C        9.26900391       4.57699291       7.97098753       0.00262163       0.00881205       0.00496865
Cl      15.45195079      10.97828862       2.28222373      -0.01849087      -0.01212463      -0.03772413
Cl      14.50181185       8.27613643       1.90231219       0.01491936      -0.02458778      -0.03148529
Cl      16.49540017       8.84408860       3.92736465      -0.01638750       0.00833426      -0.01337716
Cl      17.19254032       9.00265337       1.10763571       0.01741803       0.00069229      -0.00435053
C       15.91623596       9.28213515       2.30770407      -0.00009140      -0.00634173      -0.02213337
Cl       2.80246736      11.81044168       9.24971570      -0.00641817       0.00101703       0.00728899
Cl       1.04992366       9.51221362       9.49690003       0.01313767      -0.01306851      -0.00323074
Cl       2.79533926      10.25419051      11.69568108       0.00108726      -0.00456446       0.00238389
Cl       3.90662933       9.12214706       9.26525075       0.01642206       0.01098794       0.00240955
C        2.63969949      10.18048155       9.92558348       0.00645963      -0.00181444       0.00231380
Cl       6.18854274       1.51079188       6.13323808      -0.00962797       0.00468676      -0.00403082
Cl       6.97507565       2.98332150       3.74938864      -0.00595526       0.01333046       0.00429207
Cl       6.59272017       0.11973963       3.64220519       0.00810373       0.01168036      -0.00559258
Cl       8.86124217       1.21366762       5.05114672      -0.00469309       0.01665119       0.00746639
C        7.12941160       1.43718941       4.63636317      -0.00306337       0.01186159       0.00008427
Cl      13.03576704      14.95712156      16.67455340      -0.02609931      -0.00992289      -0.00634134
Cl      15.05376863      13.38112981      15.29573879      -0.00004071       0.00177586       0.02662991
Cl      13.64098719      15.48323443      13.89133698       0.00879503      -0.00709248       0.00088686
Cl      12.25158356      13.04427544      14.64827585       0.01438618      -0.01155880      -0.01897436
C       13.48909728      14.22970009      15.11445982      -0.00046858      -0.00574099       0.00113780
Cl      11.98980680      10.20722518       4.00804636       0.01250477       0.01127756      -0.01751438
Cl      13.94091802      11.81661218       5.43068681       0.02303839      -0.01482219      -0.00494286
Cl      11.17356407      12.64613865       5.32258139       0.02718228      -0.00218374       0.01579559
Cl      12.78687542      12.78156544       2.93753435       0.01618972       0.01875979       0.01138979
C       12.46233112      11.86699825       4.42611990       0.01982327       0.00339632       0.00139970
Cl       5.51323194       7.22587054       1.32762385       0.00169822      -0.01902252      -0.00622994
Cl       5.63752060       4.79159135      -0.23657485      -0.00883207      -0.01435378      -0.01261248
Cl       7.56896709       6.90763433      -0.69024330      -0.01387557      -0.01302597      -0.02258499
Cl       4.80717013       7.28964908      -1.47873796      -0.01875935      -0.01240772      -0.00082609
C        5.89256096       6.57400257      -0.26655332      -0.00982224      -0.01442443      -0.01077871
Cl      15.07593256       2.70164151       3.19828906      -0.01470944      -0.00942953      -0.00744912
Cl      13.48012750       1.88619343       1.13733019      -0.01120265       0.00674838      -0.01372355
Cl      12.96479277       4.62705280       2.23873619       0.00169951       0.00411695      -0.00767202
Cl      12.08237085       2.33995552       3.77829924      -0.01760858       0.00439231      -0.01987273
C       13.21049104       2.98320784       2.67736265      -0.01006907       0.00100371      -0.01337144
Cl      16.29960322      14.30169411       3.78931211      -0.01833800       0.00092866      -0.01033728
Cl      15.68292630      16.42197953       1.84513712      -0.03056081      -0.00222267      -0.00863448
Cl      16.89302508      17.01133837       4.59883927       0.01487967      -0.00024784      -0.02571599
Cl      14.14233687      16.12439281       4.41999264       0.00909173       0.01942416       0.01961339
C       15.76591098      15.94743335       3.82812202      -0.00263488       0.00459611      -0.00433463
Cl       3.17657571       9.00416473       3.26833112       0.01039323       0.01120457       0.01634911
Cl       2.57851280      10.30577329       5.79428498      -0.00680894       0.02304780       0.00379574
Cl       2.14302786      11.71462820       3.30270070      -0.01256716       0.00107446      -0.00670387
Cl       4.84123805      11.16771923       4.20573375      -0.01099378       0.03139596       0.00258228
C        3.19867786      10.55046220       4.14568967      -0.00518493       0.01651655       0.00414757
Cl      10.42573231       5.01215260      14.34662240       0.00673345       0.00775471       0.01661718
Cl       8.90065213       4.89167703      11.88213609       0.01275331       0.01548988       0.01149732
Cl       9.05946504       2.55883927      13.61883273       0.01654309       0.00818586       0.00007537
Cl      11.37882492       3.40931650      12.12152778       0.01666260       0.02302632       0.01183957
C        9.92147805       3.94268830      12.99562191       0.01253938       0.01352051       0.00983677
Cl       6.48209840      11.69747375      -1.51073688       0.00043212      -0.01666037      -0.00617093
Cl       4.45115912      10.84137693       0.37058977      -0.00108826      -0.00139639      -0.00179344
Cl       6.06184613      13.19278808       0.94289063       0.01711511      -0.01316142      -0.00643811
Cl       7.26570570      10.58127282       1.05027466      -0.00243229      -0.02075115      -0.00761184
C        6.06228627      11.59495129       0.22226742       0.00343865      -0.01254433      -0.00561976
Cl       2.87209838       3.26116433      14.63976976      -0.00091004       0.00380036      -0.00122583
Cl       0.46188001       0.99254306      16.53858767       0.00414694      -0.01158428       0.01461561
Cl       1.30707018       1.68096665      12.82232482      -0.01099952      -0.01079333       0.02231503
Cl       0.45340766       4.33401445      13.52884905      -0.00995445      -0.00723171       0.00898142
C        1.51671242       3.07177224      13.71874718      -0.00832725      -0.00517654       0.01198180
Cl      10.99110565       8.23923836      12.11333713       0.00554976       0.01954433       0.00708351
Cl       8.78865575       9.57907080      13.43724394       0.00629544       0.01798999       0.00783050
Cl       8.62257513       8.95091249      10.61735746      -0.00002021       0.00943217       0.01095223
Cl      10.43171049      11.02263510      11.52800851      -0.00282374       0.01553047      -0.00052014
C        9.71480975       9.44614395      11.92646299       0.00222832       0.01563558       0.00657249
