149
Lattice="11.705218510276083 0.0 0.0 0.0 11.705218510276083 0.0 0.0 0.0 11.705218510276083" Properties=species:S:1:pos:R:3:forces:R:3 energy=-1371139.875 stress="0.0009895074181258678 -0.0008843789400998503 0.0021324414992704988 -0.0008843789400998503 0.0021555619314312935 0.0011618160642683506 0.0021324414992704988 0.0011618160642683506 0.0017503597773611546" pbc="T T T"
Os      10.90714413      10.48916276       0.95568956       0.00297102      -0.00738709      -0.00402170
I        6.89487128      11.61606871       1.63293947       0.01514976       0.00746726       0.00167457
I        3.70817384      10.66131355       7.98139326       0.00943342      -0.01020711      -0.00627928
I       10.54495514      11.64907096      10.49089554       0.01720068       0.00046760      -0.00202799
I       10.47015573      11.90708475       5.61083091       0.00333202       0.00312199      -0.00376686
O       10.25291477       6.29139517       0.59107693      -0.00157481       0.00070447      -0.01051870
H       10.05414497       7.18753033       0.89067257       0.00798907       0.00576702      -0.01797676
H       11.22532811       6.19257228       0.64021078      -0.00376990      -0.00726974      -0.01215738
O        9.73714509       3.42891729       9.75232331      -0.00832172      -0.00720564       0.00377791
H        9.22085234       3.11767501       8.98851106      -0.01082136      -0.00166184      -0.01119657
H        9.83168771       2.64380322      10.30640504      -0.01242583       0.00768618      -0.01169298
O        8.45249597       6.10950625      10.06220339      -0.01905976       0.00872505      -0.00478354
H        7.70191447       5.50752437       9.88074677      -0.01118310       0.01791525      -0.01108605
H        9.03037074       5.69609246      10.72161753      -0.01421541      -0.00068125      -0.00504231
O       11.38969797       1.74619517       4.22854313       0.00926098       0.00100029      -0.00326565
H       10.72129283       1.75578530       3.45183834       0.01195356       0.00001618      -0.00554606
H       12.14218437       1.22313803       3.82313204       0.00916865      -0.00243950       0.00132497
O        9.28639240       4.88191042       2.71920151       0.00396513       0.00847900       0.00111595
H        8.69523718       4.11983139       2.59773752      -0.00068592       0.01570396       0.00281841
H        9.62346881       5.19599826       1.85634550       0.00098183       0.01084363      -0.00277649
O        0.75466220       7.21726739       8.91257490      -0.00451961      -0.00577274       0.00503924
H        1.54278978       6.67922738       9.03433640      -0.02081553      -0.00268362       0.00999686
H        0.04857475       6.60681494       8.60219505      -0.01429556      -0.00423646      -0.00352594
O        4.47070686       7.03197653       7.55136391       0.02376658      -0.01579416       0.02282518
H        4.95468276       6.23929557       7.82358274       0.00942068      -0.00591317       0.03897906
H        3.77100613       6.73912432       6.94134294       0.01170084      -0.01990901       0.02483191
O        1.66799474       0.07138736       8.13691836       0.01019201      -0.00533003      -0.00707561
H        1.04298677      -0.68552818       8.08602596       0.00731978      -0.00365457      -0.00312310
H        1.61491488       0.49716062       9.03155354       0.01381730      -0.00295353      -0.00792754
O        2.56983333       1.73975004       5.41263645      -0.00040337       0.00263292       0.00969267
H        2.66151611       2.34497292       6.17977944      -0.00185112       0.00281442       0.01029235
H        2.10569409       0.96785664       5.75850851       0.00024402       0.00222492       0.01017687
O        9.81128696       9.59372020       2.43195502      -0.00696506      -0.01095897      -0.00469699
H        8.96083378      10.03972885       2.58592673       0.00376737      -0.00621977      -0.01304145
H       10.18568409       9.18428781       3.26380667      -0.00498856      -0.00120261      -0.00917581
O        5.34528475       2.36663054       8.43964831      -0.00538588      -0.00527501       0.02026870
H        4.53631151       2.80584146       8.07936956      -0.00603119      -0.00616543       0.01466930
H        5.14606497       1.41913533       8.45621433       0.00277457      -0.00169498       0.01084694
O        0.63262524       9.26550084       2.02439173       0.00009325      -0.00598174       0.00290047
H        1.01056115       9.90578761       2.65387025      -0.00263345      -0.00360966       0.00097516
H        1.40271245       9.01502721       1.41430892       0.00167072      -0.00582560       0.00426546
O        1.79562627       1.65190691      10.31539989       0.01431321      -0.00491108      -0.00385112
H        1.21300144       1.76525372      11.08968698       0.01560377      -0.00750304      -0.00450516
H        2.66871495       1.93801039      10.65429403       0.01280364       0.00301382      -0.00854954
O       11.07164923       8.33678181       4.46554666      -0.00273076       0.00068951       0.00195375
H       10.66429600       7.48256452       4.73546411      -0.00120451       0.00221923       0.00313813
H       11.79188465       8.08826675       3.87410026      -0.00356802       0.00311378       0.00507319
O        2.61787829       5.71455119       5.83278567       0.01234609      -0.00355946       0.02022645
H        3.27952353       5.50920039       5.15023577       0.01707439       0.00120646       0.02047770
H        1.79566979       5.23146930       5.61796295       0.01256646       0.00344186       0.01258871
O        4.89812657       4.09022316       2.05280149       0.00048652      -0.00509596      -0.00478624
H        4.66103359       3.55150078       1.27026015       0.00630047      -0.00177020      -0.00945238
H        5.75096618       3.71582705       2.37677486       0.00166032      -0.00163876      -0.00396288
O        9.59075870      10.24063021       6.89034773       0.00009948       0.00663137      -0.00299704
H        8.97895602      10.58461667       7.55836762      -0.00342593       0.01461869      -0.00839806
H       10.37798272       9.83332939       7.35256449      -0.00379828       0.00832212       0.00315073
O        3.68214201      10.50785350       2.62052692       0.01289824       0.00729534      -0.01504588
H        3.87407586       9.79436171       3.25705335       0.00975197       0.00840534      -0.01051706
H        4.55466517      10.89905688       2.41501935       0.01409769       0.00272117      -0.01519359
O        2.29602016       3.46829357       3.08495214       0.00357273      -0.01553909      -0.00425369
H        2.32134763       2.86744574       3.84826639       0.00482283      -0.00757667       0.00163077
H        3.22812584       3.57611615       2.82297157       0.00379398      -0.01170707      -0.00358906
O        8.00182327       2.51745417       7.51547745      -0.00834504      -0.00389284       0.00188030
H        8.14798163       1.66157647       7.07401096      -0.00980512      -0.00099856       0.00274159
H        7.10273065       2.43050937       7.88082420      -0.00807026      -0.00431402       0.00775509
O        7.87962606       7.36087957       2.86640448      -0.02794710      -0.00542934       0.02061730
H        8.24047690       6.46161199       2.89529646       0.00268244       0.00420051       0.01283306
H        7.64372834       7.52243708       1.92662812      -0.01224485       0.00150525       0.02075736
O        0.65221347       3.54259391       8.56685866      -0.01238701      -0.01191320       0.00350079
H        0.95567962       2.83861587       9.17127545      -0.00757936      -0.00737692      -0.00039348
H       -0.21797291       3.81100029       8.91318888      -0.01752134      -0.01773543       0.00730257
O        7.21017562      11.66214174       6.40705355      -0.00069783       0.00158656       0.00313479
H        7.29163694      10.82905483       5.91740159      -0.00345130       0.00534297      -0.00188183
H        6.51375593      12.15008267       5.93046906      -0.00060724       0.00715636       0.00633535
O        0.28515644       9.41308067       7.50912942      -0.00282677       0.00266552       0.00601083
H        0.53217169       8.60608300       8.03894019      -0.00800060       0.00197390       0.00841274
H        0.43552622       9.17252314       6.58395906      -0.00257999      -0.00054069       0.00728154
O        5.56955232       9.52854194       7.81000979       0.00722072      -0.01304832      -0.00525811
H        5.28591436       8.58892169       7.73303985       0.00694486      -0.01368406       0.00276932
H        6.08271221       9.71257277       8.69937546       0.01330145      -0.00616629      -0.00847691
O       10.06162333       5.81927373       5.10597106      -0.00262475       0.00169122       0.00464442
H       10.77362423       5.20359423       5.39925380      -0.00280476       0.00265650       0.00393008
H        9.82731417       5.49261295       4.20631300      -0.00154130       0.00208056       0.00186086
O        1.24159541       0.17536330       2.85094466       0.00572425      -0.01796144       0.00826909
H        0.70440946      -0.02215501       2.01288720       0.00608642      -0.00828423       0.00737976
H        2.18280017      -0.01481856       2.68809889       0.00735018      -0.00687522       0.00301927
O        4.59822776       6.95668072       1.51126313      -0.00033087      -0.00953728       0.00276241
H        4.71228890       5.99785878       1.62735493       0.00029936      -0.00962855       0.00500058
H        4.80131365       7.36838026       2.37841736       0.00248729      -0.00648931       0.00155586
O        2.77809507       8.76807486       0.68453208       0.00248823      -0.00406387       0.00584543
H        3.23983993       9.48372322       1.17219974       0.00414039      -0.00243845       0.00262203
H        3.25942131       7.96120672       0.98187621       0.00205848      -0.00406587       0.00607318
O        7.21025174       3.15678081       3.19411646       0.00495616       0.00509635      -0.00950316
H        7.29433986       3.52013306       4.10294559      -0.00410559      -0.00567245      -0.00320682
H        6.96581144       2.22371991       3.29918057       0.02136187       0.00142652      -0.02548496
O        7.13171157       9.44995832       4.40335192      -0.00428155       0.01109197       0.00814574
H        7.01758514      10.10281703       3.68712948       0.00647694       0.01001048       0.00546701
H        7.52550934       8.66692991       3.95417845       0.00045460       0.00952762       0.01584984
O        5.41367671       1.74425948       5.23424208      -0.00299168       0.00569707       0.00519347
H        5.47097455       2.36022591       5.97230193       0.00064903       0.02012673       0.00190999
H        4.46168789       1.54621569       5.17192384       0.00187729       0.00764946       0.01103838
O        6.05846423       4.92822004       9.42307064      -0.03135729       0.03730035      -0.01039752
H        5.93844163       3.98239577       9.24203444      -0.01013794       0.01397151      -0.02015785
H        5.39689782       5.13341512      10.09698526      -0.00039655       0.01690583      -0.03122586
O        7.11245544       7.82971067      11.97777346      -0.02362442       0.00574419       0.01640983
H        6.17776261       7.58474312      12.07169550      -0.00607118      -0.00773603       0.02375846
H        7.46964121       7.26080549      11.27846474      -0.01440679      -0.00021981       0.00922619
O        4.19244015       7.65285948      10.22619987       0.00216615       0.00296488       0.00994579
H        4.00689211       7.71193862       9.27686881       0.00336072       0.00780505       0.00910172
H        3.62928914       8.29762746      10.68518467       0.00331169       0.00170603       0.01231154
O        4.10429788       2.73599210      -0.26562221       0.01297045       0.01183784      -0.01340580
H        3.93906854       3.62412215      -0.66657229      -0.00753585       0.01411560      -0.00848696
H        4.88838006       2.36664529      -0.68804094      -0.00004208       0.02355535      -0.03001294
O       12.04634280       4.08879634       5.82319661       0.00001287       0.00712866       0.00274573
H       11.92437599       3.29097569       5.28296628       0.00928563       0.00735599       0.00246549
H       12.05146196       3.79170314       6.75532748       0.00187826       0.00534317       0.00350517
O        7.54196969       4.46580329       5.62053650      -0.01423168      -0.00059576      -0.00129047
H        8.34679190       5.01019135       5.54135947      -0.01552340       0.00007734       0.00121838
H        7.75163185       3.80126295       6.31468093      -0.01326139      -0.00124948      -0.00003050
O        5.05393450       5.45072605       4.63753548      -0.01202098       0.00151259      -0.01107940
H        5.89048156       5.18773368       5.06807842      -0.01415086      -0.00082192      -0.00673534
H        5.05963624       5.01111928       3.77686929      -0.01218417      -0.00056258      -0.00833045
O       10.03045935       1.53381722       2.08614947       0.01521164      -0.00295129      -0.00604416
H        9.05825675       1.49971895       2.04812446       0.01435024       0.00022500      -0.00967969
H       10.31886692       0.59019125       1.72997048       0.01145580      -0.00460994      -0.00384057
O        9.14775462       8.71437186       9.43311975       0.03769496       0.01081017       0.01379180
H        8.93311813       7.78011426       9.60175481      -0.00141694      -0.00348543       0.00440989
H        9.80032208       8.95852654      10.10290390      -0.02135158      -0.00320598      -0.00626945
O        1.18202993       5.39555219       0.86710012      -0.00599033      -0.00663650      -0.00889021
H        1.54982812       5.41847319       1.75955923      -0.00434621       0.00196541      -0.01033998
H        0.84701227       4.46828089       0.79626354       0.00155281      -0.01039904      -0.00385263
O        3.16237172       3.57109158       7.41979771      -0.00460365      -0.00423908       0.01632136
H        3.13529011       4.38295070       6.86163039      -0.00259514      -0.00184888       0.01769426
H        2.38476448       3.68956754       7.99801358      -0.00337434      -0.00454918       0.01631376
O        6.91755633      10.20109549       9.80760981       0.01046854      -0.00273161      -0.01564741
H        7.73430703       9.64975737       9.82343945       0.01259903      -0.00165202      -0.02417427
H        6.62119285      10.24530970      10.72813453       0.01245306      -0.03600509      -0.01810133
O        0.56718463       2.76713429       0.92975023       0.01629271      -0.00878023      -0.00169116
H       -0.30936922       2.47878256       1.24671990       0.01619855      -0.00828329      -0.00319758
H        1.15799833       2.74360615       1.70924204       0.01463348      -0.00157451       0.00121570
O        4.71543570       8.22889598       3.99828166      -0.00038579       0.00816683      -0.00797570
H        4.75302042       7.35843616       4.42838827      -0.00762299       0.00999291      -0.00327450
H        5.56823064       8.65893451       4.23989687      -0.00080729       0.00638166      -0.00299398
O       10.36915494       5.73266448       7.98929318      -0.01401520       0.01125424      -0.03081465
H       10.00305885       6.06559946       7.16064730      -0.00148974      -0.00196983       0.00936281
H        9.65256206       5.79663118       8.64550896      -0.01949877       0.00877556      -0.00168839
O        3.29871942       5.18000719      10.72545862      -0.01531307       0.00568254      -0.01783767
H        3.62804132       6.10393755      10.60484521      -0.01214349       0.00469586      -0.00481094
H        2.57577382       5.26753113      11.37906531      -0.01550268      -0.00045155      -0.01411955
