149
Lattice="12.453622685932835 0.0 0.0 0.0 12.453622685932835 0.0 0.0 0.0 12.453622685932835" Properties=species:S:1:pos:R:3:forces:R:3 energy=-603231.1875 stress="-0.0017999018309637904 0.0006702383398078382 0.0011913363705389202 0.0006702383398078382 -0.002257312647998333 0.0005437773652374744 0.0011913363705389202 0.0005437773652374744 -0.0032115932554006577" pbc="T T T"
Os      11.42152826      12.00776522      -0.59867222      -0.02030653       0.02288254       0.00025368
O        9.33125905       7.68680003       4.14418770      -0.02463198       0.00734735       0.01825070
O       10.72762201       7.09566898       2.52609454      -0.05000269      -0.02682614       0.01069140
C       11.44370357       8.77327044       4.06371357      -0.01096159      -0.02370226      -0.01124465
C       10.41616354       7.77873722       3.52380501      -0.02988470      -0.01350069       0.00835884
H       12.10533030       8.25210697       4.76050671      -0.02086063      -0.02340758      -0.00246680
H       10.95794355       9.58266007       4.59798133       0.00474446      -0.00446443      -0.02623120
H       12.04628265       9.17468221       3.25491759      -0.00450041      -0.05058089      -0.01947776
O        8.96819546      12.89200902       3.34076231      -0.02089667       0.01598001       0.01216924
O        6.91324437      12.10355728       3.63814626      -0.01960421       0.03065839       0.05766821
C        8.65986611      11.12004391       4.91366740       0.00462285       0.01100379       0.00984424
C        8.13589431      12.12173827       3.88286997      -0.01649064       0.01884997       0.02828002
H        8.02785200      11.14343828       5.80239166       0.02382715       0.00223620       0.02339545
H        9.68882113      11.35036597       5.18659884       0.00980245       0.00613467      -0.00797858
H        8.61406641      10.11451892       4.48469400      -0.00128538       0.01443488       0.00318918
O        2.86175968      13.15558970       8.62732610       0.00903165       0.01299602      -0.09644423
O        4.87469565      13.45141683       9.46912940       0.01710987      -0.00849473       0.01527671
C        3.52004038      11.77012211      10.49126582      -0.01933749       0.04217809      -0.03376675
C        3.83508477      12.85128341       9.51857011       0.02029246       0.01304525       0.00125833
H        4.43756521      11.26801865      10.77227937      -0.01563202       0.04450901      -0.01204702
H        2.80556425      11.06223323      10.08687370      -0.02243318      -0.02207021       0.04464491
H        3.07517123      12.20996998      11.38453265      -0.03813932       0.02952369      -0.01639163
O        4.33750752       9.14774675       3.17364923      -0.00454783      -0.01791072      -0.00886631
O        3.95092576       7.61399537       1.59216074      -0.01012886       0.00255108      -0.02718830
C        2.09885314       8.45588040       2.81401674      -0.00293314      -0.02669048       0.00075293
C        3.59195986       8.39068740       2.51375426      -0.00607491      -0.01224765      -0.01144880
H        1.54356254       8.50750338       1.87725638      -0.01255743      -0.02286877       0.00690443
H        1.87018782       9.31966027       3.43832656      -0.00768256      -0.03643050       0.01186645
H        1.77521612       7.54277351       3.31761328       0.01061122      -0.03480962      -0.00653455
O        4.89325708       4.52648003      -0.53131143      -0.00153378       0.02240217      -0.01943230
O        4.57771910       6.65035091      -1.19184034      -0.00276577       0.01928318      -0.01650870
C        6.28580726       6.15534694       0.42721789      -0.00873578       0.02065393      -0.01075822
C        5.15136812       5.84230310      -0.49519492      -0.00642109       0.01920933      -0.01695955
H        6.24364980       5.51399937       1.30283996      -0.01217487       0.02047709      -0.01128120
H        7.22253464       5.94298615      -0.09558400      -0.00840337       0.01996149      -0.00763858
H        6.24989333       7.19651891       0.72865000      -0.01053376       0.02007775      -0.01026976
H        4.20466999       4.32557965      -1.21268247       0.00288263       0.02267703      -0.03048195
O       12.72109185       0.53264836       8.24777224      -0.01558095      -0.07096499      -0.01604521
O       11.97484416       0.59547261      10.33805372       0.00427966       0.01417565      -0.02915394
C       10.58099806       1.52421110       8.64050603      -0.00493747      -0.01254427       0.01660120
C       11.84936894       0.84779696       9.03772593       0.00266337      -0.04303883       0.00221539
H       10.59020333       1.74803611       7.57939270      -0.00479789      -0.00859843       0.02221683
H        9.75633056       0.85407205       8.87644031      -0.00216913      -0.00188845       0.00643859
H       10.43448265       2.43882226       9.21196183       0.01140909      -0.01992720       0.02042760
H       14.42764371       0.29995900       8.75696299       0.03447646      -0.04427080       0.02325602
O        8.90868350       1.28121414      11.36243970      -0.03131827      -0.00668189       0.00480020
O        7.93869893       0.48984913      13.22509512      -0.00969577       0.03585891       0.03382927
C        6.86348721       2.22980288      12.04208297      -0.02799821       0.00087887       0.00553256
C        7.94701227       1.25625860      12.23273268      -0.01746657       0.01003926       0.01669892
H        7.13742346       3.13271142      12.59457265      -0.03469759       0.01504409      -0.01616138
H        6.74895666       2.48780633      10.99539164      -0.03984262      -0.02095549       0.00279519
H        5.93405078       1.85841992      12.45908971      -0.01961598       0.00074796       0.02132481
H        9.61938716       0.54746599      11.54043908      -0.02453967      -0.00435448       0.01262665
O       12.25111981       3.79452004       7.30125972      -0.00905013       0.00085676       0.00864503
O       10.63553139       5.17689109       6.57330265      -0.00613320       0.00728238       0.01523280
C       11.49917595       5.43958861       8.79602205      -0.00974356      -0.00359631       0.01551676
C       11.38478200       4.81328904       7.44730205      -0.01038891       0.00079038       0.01099324
H       11.79228412       4.72473071       9.55985265       0.00573438       0.00104289       0.01254825
H       12.26818595       6.21444690       8.77395148      -0.02102050       0.00593171       0.00815766
H       10.56654676       5.92980331       9.05672943      -0.01374894      -0.01802617       0.02163613
H       12.17783807       3.46370993       6.38161505      -0.00658725       0.00425701       0.00482562
O        5.36448524       3.49621812       4.15344691       0.06170859      -0.01159537      -0.01549599
O        4.11229902       4.79704041       2.83061834       0.00943136      -0.02501541       0.02219391
C        5.91423900       5.79421329       4.07261105       0.01347440      -0.00093615      -0.00207159
C        5.03348203       4.68492161       3.59819271       0.02683663      -0.01407728       0.00354064
H        5.70511434       5.97196668       5.12893516       0.01992997      -0.00786617      -0.00045443
H        6.96859496       5.53146094       3.99109996       0.01630545       0.01775178      -0.01482911
H        5.69721533       6.69240682       3.50074579      -0.00717824      -0.00305550       0.00384618
H        4.72903711       2.84730066       3.81606148       0.06879471      -0.02240412      -0.00672498
O        5.65300754      10.38235822       8.57732174      -0.01443759      -0.00976759       0.01545972
O        5.25198758       8.17342659       8.58028917       0.02311432      -0.00943744      -0.02102911
C        7.00107706       9.03753552       9.97683995      -0.00332856      -0.00442445       0.00639772
C        5.88891578       9.11834406       8.98663025       0.00222510      -0.00892180      -0.00588250
H        7.84518875       9.65512313       9.66954493      -0.01035424       0.00863950       0.01923109
H        6.65251672       9.40598080      10.94811709      -0.01991094      -0.01608412       0.00202993
H        7.29183376       7.99800422      10.09191772       0.01236080      -0.00184096       0.00140123
H        4.92501338      10.36076737       7.91276833       0.00054590      -0.01510562       0.00200551
O        3.88548557       9.87200041       0.32066684       0.01413143       0.00155973       0.00255027
O        6.11550442      10.13549753       0.37343669       0.01975226       0.00049472       0.00303182
C        4.72457646      11.78056081       1.42755571       0.00844842      -0.00486290       0.01350367
C        5.00857316      10.52983323       0.66166694       0.00283110       0.00273740       0.01078773
H        3.85252015      12.29464075       1.02703935       0.01122004      -0.00224260       0.00821380
H        4.50021296      11.45199168       2.44516953      -0.00209451      -0.00393102       0.01073663
H        5.60274727      12.41392067       1.47017427       0.00707909      -0.00389259       0.02118397
H        4.07119490       8.89730385       0.33224444       0.00448366      -0.00232292       0.02016445
O        0.69244610      10.42816779       9.41771039       0.01080889      -0.00697255       0.01900767
O       -0.23050727       8.43164961       9.80579600      -0.00748789      -0.00363129       0.00149351
C        2.11679045       8.57161977       9.26852410      -0.00469077      -0.01921576       0.02455270
C        0.74598362       9.08588174       9.52479609       0.00124097      -0.00704876       0.01457399
H        2.60393931       9.12913694       8.46920921       0.00193866      -0.03008765       0.02050832
H        2.72177120       8.67847477      10.17199659      -0.00100777      -0.02130556       0.02351645
H        2.07949045       7.51704701       9.03213001      -0.01020860      -0.02072361       0.03357511
H       -0.21702718      10.70003438       9.65130467       0.00748089       0.00475405       0.00094119
O        9.45536783       5.04817366      11.59917929      -0.00259084      -0.00036240       0.01668368
O       11.63224766       5.38338303      12.01083891      -0.00704682      -0.00550520       0.01048121
C       10.13466215       7.27765008      11.99485404       0.00445518      -0.00324833       0.01891430
C       10.53060192       5.84693656      11.88776855       0.00683087      -0.00854021       0.01521821
H        9.57212801       7.58151809      11.11157504      -0.00664506      -0.00122268       0.02802686
H        9.51217358       7.41176245      12.87995946       0.01913746      -0.00561258       0.02883041
H       11.02214058       7.88975154      12.09383080       0.00711441      -0.00672042       0.00797714
H        9.79438097       4.14317473      11.55972768      -0.00391075      -0.00165230       0.01358880
O       10.25921255      12.16058986       1.05761567       0.01144317       0.01613641       0.01786837
O        9.67324651      10.11330474       1.85253754      -0.00265431      -0.00986850       0.03482020
C       11.91073947      10.69266015       0.98697274       0.00482738       0.00425497      -0.03225917
C       10.51324910      10.86155884       1.44721318       0.04254735       0.03936327      -0.01163021
H       11.21072942      10.61601467      -1.26225741      -0.03463811       0.04457769      -0.04247586
H       12.61000530      11.21191139       1.64923042       0.01999696      -0.01681367      -0.05818228
H       12.24672600       9.68156529       0.78477270      -0.01923696       0.00893138      -0.04143745
H        8.89196274      12.50965561       0.99055946      -0.01564288       0.03128342       0.03896537
O        7.46392855       3.19282088       8.85551491       0.02153000      -0.00147229      -0.01758409
O        5.84513486       3.35199456       7.31666592      -0.00996852       0.00796473       0.01587081
C        7.04564669       1.27333070       7.52991479       0.00387293       0.01271522      -0.02674407
C        6.68482770       2.68571087       7.85638889       0.00446057       0.00481302      -0.00789952
H        7.91395245       1.27275173       6.86762774       0.01362036       0.01752971      -0.01600653
H        7.28756183       0.71283489       8.42961007      -0.00421853      -0.00223614      -0.03230904
H        6.21743016       0.80218264       7.01286945       0.01183650       0.02112284      -0.04538351
H        7.17117159       4.10797947       8.98124237       0.02690865      -0.00018883      -0.00689203
O        2.88302305       3.18929368       7.81193063      -0.03038353       0.03012079      -0.01666647
O        3.32681908       3.53608547       9.97442967       0.01279173       0.02637339      -0.03331029
C        3.45976160       5.36750924       8.41730270       0.00959714       0.01589274      -0.01441878
C        3.23041245       3.95493932       8.83176615       0.00024296       0.02396446      -0.03447062
H        4.21278277       5.38787929       7.63181744       0.01778220       0.00369751      -0.00959569
H        2.52967836       5.74017293       7.98467127       0.01768094       0.02320665      -0.03425556
H        3.77393236       5.98625390       9.25268924       0.00493646      -0.01280381       0.01172754
H        2.84605838       2.24493393       8.10707515      -0.00434627       0.01743033       0.01533395
O       -0.08038933       3.03256021       4.67516328      -0.00104690      -0.01291806       0.01221903
O        1.46925286       3.03062729       3.06124529      -0.03313339      -0.00694722      -0.02056038
C        1.62982141       4.65458541       4.84776040      -0.00837094      -0.00069505      -0.03012049
C        1.05273379       3.51844610       4.07122158      -0.01586080      -0.00604308      -0.01121217
H        0.83538370       5.34396757       5.13406624      -0.00691313       0.00192788      -0.03336730
H        2.07743959       4.26118154       5.76494335      -0.00629748       0.00835021      -0.02737308
H        2.38798407       5.14696238       4.24927696      -0.01153505      -0.00890056      -0.04022877
H       -0.42491729       2.31106106       4.12738161      -0.00881899      -0.01399311       0.01865527
O       11.56069511      10.05718086       6.97861858       0.01301861       0.01145118      -0.00051221
O       10.11102710      10.79456750       8.50928847       0.04331064      -0.01807654       0.03827000
C        9.64919345       8.72045701       7.37137757       0.01048625       0.01472300      -0.00352302
C       10.42021933       9.95842772       7.68377402       0.02528197       0.00234050       0.01532578
H        9.87738891       8.29825667       6.39322322      -0.00702568       0.03263115      -0.01451913
H        9.90952319       7.98787311       8.13985356       0.01082205      -0.00451851      -0.02337785
H        8.58412333       8.92444039       7.44957712       0.01489803       0.02436294       0.01341008
H       12.02085871      10.86229894       7.26936667       0.01787887       0.01035854       0.00578901
O        3.64104852       7.91275367       5.72884122       0.00836039       0.00688246       0.00922905
O        3.70318264       9.95429758       6.62330222       0.03136724       0.00254464       0.01159698
C        5.70877834       9.06782741       5.63877145       0.01665580      -0.00929871      -0.00884210
C        4.27694252       9.05093764       6.03371879       0.02045119      -0.00043166       0.00589192
H        6.26037992       8.36078047       6.25698094       0.01786819      -0.02264991      -0.02643134
H        5.78784199       8.79051872       4.59037089       0.00078771       0.00106724      -0.01246223
H        6.09750908      10.07207905       5.76611217       0.02895567      -0.01548387      -0.00245623
H        2.71833045       8.02341591       5.99904881       0.01239002       0.01388994       0.01950856
