149
Lattice="11.387551361223618 0.0 0.0 0.0 11.387551361223618 0.0 0.0 0.0 11.387551361223618" Properties=species:S:1:pos:R:3:forces:R:3 energy=-651290.0625 stress="0.0010084497043862939 0.0008674100681673735 -0.0010524115641601384 0.0008674100681673735 0.0048025078140199184 -0.0011032705078832805 -0.0010524115641601384 -0.0011032705078832805 -0.0014850662555545568" pbc="T T T"
Os      10.77469724      11.26774309      -0.13085281       0.00520849      -0.00309070      -0.00451010
Cl       1.49486164       7.87685936       7.76316984      -0.00452989       0.00871971       0.00066805
O        2.48358168       8.94658850       8.20605139      -0.00161195       0.00520897       0.00378627
O        2.12418161       6.58701316       8.07536191      -0.00784940       0.00588989      -0.00346529
O        0.30015890       8.05696312       8.62907617      -0.00396585       0.00903443       0.00143158
Cl       6.20714448      10.30516919       9.37714309      -0.00735784       0.00176537      -0.00347328
O        6.35134568       8.86239750       9.56050971      -0.02165326       0.00011754      -0.00691786
O        5.80819858      10.90489878      10.69292151      -0.00479054       0.00242484      -0.00259769
O        7.59838067      10.87167113       9.09167666      -0.00184560      -0.00919688       0.00078915
Cl       3.11789195       9.38971906       2.90101759       0.00043106       0.02270818       0.00037050
O        2.82035724      10.76337415       2.45070496      -0.00255477       0.02110171      -0.00300163
O        1.90951419       8.55610823       2.56279370       0.00256491       0.01866066       0.00016546
O        3.17134777       9.40525810       4.40688356      -0.00093728       0.02560420       0.00037158
Cl       8.88633696       8.93038616       5.28886797      -0.00299811      -0.00238132       0.00099921
O        7.94141007       8.31328697       6.24414690      -0.00290096      -0.00345820       0.00084162
O       10.26830209       8.43834287       5.67495260      -0.00326288      -0.00805533      -0.00360566
O        8.87747885      10.40829829       5.52450919       0.00162606      -0.00340128       0.00691119
O        7.27716472       9.45135701       1.14062875       0.00130582       0.00404924      -0.00860012
H        6.62424111       9.86056770       0.53728054      -0.00075634       0.00429612      -0.00633528
H        6.88713117       9.50334631       2.05101276       0.00375991       0.00378561      -0.00758657
O        3.21607736       3.98212423       8.10289582      -0.00027019       0.00625207      -0.00345248
H        3.37338504       4.45352699       7.25805584       0.00386645       0.00773945      -0.00214429
H        3.20717994       4.70654278       8.73983999      -0.00959579       0.00589768      -0.00290957
O        9.82399283       9.91440940       9.98059099       0.00131265      -0.00600965       0.00060180
H        9.77135670       8.99287072      10.38703101       0.00303658      -0.00523607       0.00313045
H        8.89258301      10.20687508       9.72376985       0.00055240      -0.00744615       0.00280526
O        9.55861259       6.50464957       7.70088548      -0.00579756       0.00535621       0.00856632
H        8.88104023       7.05840432       7.27343332      -0.00522026       0.00476580       0.00605223
H       10.23606758       7.14469737       7.99598347      -0.00477916       0.00540113       0.00628723
O       11.66053895       4.64986415       2.05904513       0.00725557      -0.01101469       0.01017675
H       11.50860323       5.49513343       2.52001641       0.00630999      -0.00896537       0.00587053
H       12.05307282       4.88030814       1.18893106       0.00742868      -0.01478477       0.00939866
O        9.66205762       1.38675148      10.47418163       0.00325310      -0.00768185      -0.01069295
H        8.67033403       1.55330100      10.85769504       0.00525194      -0.00715299      -0.00775417
H        9.63829428       1.33021486       9.50504405      -0.00123034      -0.01808442      -0.01038179
O        9.63489495       5.41058238      10.19653054      -0.00075894      -0.00255629       0.00398025
H        9.38087639       5.68384943       9.29144721      -0.00323876       0.00020672       0.00539812
H       10.32745236       4.75323906      10.04884769      -0.00287618      -0.00418024       0.00020618
O       10.02818301       1.27344041       4.19958745      -0.00680532      -0.00323901      -0.00434396
H       10.98145164       1.39026984       4.01539026      -0.00600357      -0.00538956       0.00116502
H        9.89047930       0.37318141       4.52978813      -0.00826332      -0.00318406       0.00053131
O        9.58925037       2.99512324       1.78044470       0.00539866      -0.00473368      -0.00574391
H        9.15297992       2.73047733       2.60273794       0.00105044      -0.00909059      -0.00940846
H       10.23405683       3.71657869       1.98106692       0.00528784      -0.00643354       0.00222585
O        1.52874394       5.18065768      11.00504209       0.00412859      -0.01770376       0.00395864
H        1.06641863       5.07513252      10.15076913      -0.00042232      -0.01473896       0.00598890
H        1.96202713       6.07420785      10.97498573       0.00587189      -0.01837038       0.00330340
O        4.03722874       5.50403797       5.89919001       0.00171188       0.00869193       0.00291114
H        4.23323343       6.36916333       6.31988881       0.00178218       0.00835753       0.00283028
H        3.30631182       5.72155804       5.27467788       0.00191180       0.00961593       0.00277623
O        1.54581362       0.09752781       7.80596660       0.00820805       0.00811008      -0.01309299
H        0.62775343       0.03150743       7.45129364       0.00903867       0.00368355      -0.01469556
H        1.89435776      -0.82059645       7.83466941       0.01070458       0.00870205      -0.01154833
O        2.82097217       1.48467081       5.44894645       0.00780794      -0.00110994       0.02141923
H        2.35042543       0.97385372       6.12430775       0.01570469       0.02477266       0.04039923
H        3.74116277       1.19061779       5.50372258      -0.00231542      -0.01762439      -0.00236527
O        9.39044100      10.77647159       1.19726690       0.00219971       0.00369379      -0.00656545
H        8.49560210      10.25548676       1.07208933       0.00200447       0.00512888      -0.00961111
H        9.87526781      10.41700552       2.04947787      -0.00149110       0.00002041      -0.00499120
O        5.25404116       2.30162301       8.76105418      -0.00931960       0.00124639       0.00685500
H        4.52608530       2.78759152       8.32860547      -0.00304741       0.00803454       0.00335646
H        5.90975577       2.09562313       8.06630623      -0.00867119      -0.00531044       0.00914195
O       -0.77767431       9.79117058       3.07231304      -0.01266053      -0.00436261      -0.00254105
H       -0.61195536       8.82962509       2.99483852      -0.00849250      -0.00361224      -0.00573573
H       -0.12061294      10.14834881       3.72226419      -0.01290857      -0.00289880      -0.00290718
O        0.89795890       0.55242958      10.16606629       0.00751960      -0.00704791      -0.00588620
H        1.40198583       1.35633264      10.50580445       0.01209794      -0.00971873      -0.00399914
H        1.17859969       0.34351582       9.18514145       0.00226853      -0.00032415      -0.00587679
O        7.40093309       1.76204088      11.35593221       0.00417972      -0.00632922      -0.00357110
H        7.38022879       1.60413155      12.34187410       0.00368755      -0.00379907      -0.00330278
H        6.77092067       1.11729311      10.98081755       0.00153985      -0.00507672      -0.00163291
O       10.65378465       7.03565841       3.23584376      -0.00057319      -0.00309575      -0.00598133
H        9.72877269       6.81388488       2.97811274       0.00053453      -0.00312110      -0.00959994
H       10.61899316       7.23372175       4.18695530      -0.00434441      -0.00393609      -0.00581369
O        2.12839514       5.99817756       4.04192736       0.00163504       0.01429607       0.00344366
H        1.98247507       6.88061173       3.66030178       0.00215599       0.01459979       0.00429684
H        2.60492175       5.51781978       3.33609674       0.00219960       0.01470258       0.00345407
O        4.08528720       4.86094055       2.34018745       0.00456715       0.01209721       0.00886098
H        4.37188432       5.24208612       1.48308328       0.00815300       0.00811055       0.00813490
H        4.21420011       3.89573463       2.29010262       0.00306010       0.01130658       0.01217040
O       10.26623507      11.37458757       7.68968650       0.00441137      -0.00056114       0.00709901
H        9.74281260      11.09090118       6.91290801       0.00373279      -0.00058138       0.00758996
H       10.24814915      10.59897857       8.27156990       0.00912273      -0.00290587       0.00451210
O        4.54142142      13.41513896       2.78141098       0.00020054       0.01857582       0.00122724
H        4.64930038      13.71021646       3.72407519       0.00136052       0.01192445       0.00386735
H        3.90364336      12.68854116       2.76191801      -0.00452401       0.02301678      -0.00572997
O        1.15541590       2.09639705       3.40364696       0.00018016      -0.02345118       0.01335472
H        1.85804647       1.93887195       4.07580624      -0.00571386      -0.02572947       0.02085093
H        1.14327437       3.03464490       3.15810845       0.00567130      -0.02084036       0.01817624
O        7.31979246       1.44490234       7.11162417      -0.01206438      -0.00962955       0.00495462
H        7.67272224       0.78316480       7.72874769      -0.00687318      -0.00925207       0.00273247
H        8.06104879       2.03037385       6.86265659      -0.01450064      -0.00904536      -0.00144190
O        8.20170258       6.34989333       2.29952765      -0.00189230       0.00551441      -0.01667821
H        7.41409835       6.54238287       2.84260634       0.00095571       0.00406303      -0.01213540
H        8.24108142       5.38417730       2.29356912      -0.00324114       0.00532164      -0.02240372
O        0.41301837       4.04328777       8.74474201      -0.00162585      -0.00332114      -0.00072112
H        0.27228657       4.51162745       7.90256056      -0.00232676      -0.00246356      -0.00081497
H        1.28758529       3.64659585       8.60157791      -0.00285557      -0.00477464      -0.00231967
O        5.57268794      11.18233845       5.62724302      -0.00674734       0.00042004      -0.00727946
H        6.24562224      11.78659290       6.00235324      -0.00719250      -0.00354397       0.00136192
H        5.52601312      10.44280345       6.24693188      -0.01456802      -0.00309016      -0.01152697
O        0.71512154      10.47025438       5.13541134      -0.01674770       0.00096315      -0.00189537
H        0.22569476       9.73191332       5.54032202      -0.00743074      -0.00809624      -0.00667937
H        1.61779998      10.13730164       4.95570647      -0.01057431       0.01667940       0.00150161
O        4.60787178       8.15648759       6.43133410      -0.00352757       0.01473272      -0.00069895
H        4.09116444       8.42763164       7.20699308      -0.00413925       0.00980044       0.00089009
H        4.11724197       8.53236261       5.67797140      -0.00671171       0.01314247       0.00057331
O       11.27290202       5.05356976       6.13052869      -0.01569828      -0.00041053       0.00719467
H       11.90866330       5.38860688       5.48379470      -0.01268019       0.00475127       0.01204401
H       10.69284431       5.78147833       6.42962858      -0.01392611      -0.00165125       0.01256691
O        0.01325744       1.32318933       1.15843102       0.00949143      -0.00036335      -0.00748924
H       -0.74718429       1.95538058       1.44410467       0.00814616      -0.00114297      -0.00718726
H        0.65774024       1.26394671       1.89680724       0.00203585      -0.01045537      -0.00165699
O        5.79360516       6.54016407       3.77737805       0.00554954       0.01034632       0.00171205
H        5.22954638       5.92645678       3.25405260       0.00172154       0.00872742       0.00666100
H        5.48760699       6.37493842       4.68213342       0.00963107       0.01522340       0.00391552
O        5.14559955       6.18578719       0.15693056       0.01251362      -0.00288779       0.00541212
H        5.84787780       6.82390165       0.32027729       0.01196221      -0.00178593       0.00337022
H        5.56733751       5.47497053      -0.41341895       0.01206211      -0.00400377       0.00601016
O        7.14562101       1.37468971       2.54989558      -0.00023073       0.00477222      -0.00035080
H        7.40037629       0.55134113       2.97465444      -0.00643517       0.00665537       0.00647824
H        6.17227438       1.48549937       2.67286834       0.00028528       0.01241031      -0.00101048
O        6.30719041       9.45540360       3.58767632       0.00713476       0.00096579      -0.00571558
H        6.03455608      10.08883538       4.28693959       0.00207047      -0.00031134      -0.00690262
H        6.00122842       8.57392417       3.84519983       0.00450709       0.00028598      -0.01033450
O        5.27652743       3.01162559       5.10212755       0.00563859       0.00678431       0.00136599
H        4.81416985       3.79926470       5.42764300       0.00191258       0.00327328       0.00387885
H        6.15794628       3.34707266       4.82644185       0.00179507       0.01298142      -0.00402163
O        6.30036496       4.28354155      10.22734977       0.00983971      -0.00295475       0.00256099
H        5.89670435       3.58220025       9.65732103       0.00291269      -0.00173549       0.00628094
H        6.91759355       3.79016618      10.78091148       0.01070559      -0.00513967      -0.00016710
O        0.47426320       9.60984745       0.43850873       0.00418186      -0.00069125       0.00266621
H       -0.01748604       8.76449964       0.31877674       0.00569351      -0.00138158       0.00096413
H        1.04069967       9.50236027       1.23733523       0.00303650      -0.00097638       0.00446153
O        9.92277763       7.72157948      11.35311297       0.00401932      -0.00319982       0.00351891
H        9.19602409       7.66422700      11.99038285       0.00417962      -0.00416998       0.00388537
H        9.93856282       6.81422116      10.91474373       0.00370888      -0.00315496       0.00335655
O        2.82300856       7.53858183      11.01999113       0.00420877      -0.01997003       0.00363980
H        2.78347096       8.05870480      10.20756703       0.00538087      -0.01616853       0.00593014
H        3.72979216       7.17678379      11.06425932       0.00673679      -0.01351082       0.00758418
O        2.42829093       2.53325816      -0.44975617       0.01599565      -0.01550913      -0.00760563
H        2.21413609       3.48730075      -0.37911259       0.01225403      -0.01620238      -0.00613476
H        3.30852430       2.46837137      -0.83525835       0.01040145      -0.01239668      -0.02142015
O        9.34932066       3.01957652       6.04274197      -0.01490059      -0.00661924      -0.00410005
H       10.09590359       3.62682270       6.18845888      -0.01482511      -0.00800513       0.00148463
H        9.67950310       2.34109044       5.39747921      -0.01298937      -0.00425109      -0.00618165
O        7.65751519       4.16518368       4.35422338      -0.00076713       0.00962760      -0.00933520
H        8.30823379       3.83038624       5.02432134      -0.00535745       0.00437883      -0.00751229
H        7.47175623       5.08095361       4.58283773       0.00224596       0.00978863      -0.00757062
