140
Lattice="12.532008989091146 0.0 0.0 0.0 12.532008989091146 0.0 0.0 0.0 12.532008989091146" Properties=species:S:1:pos:R:3:forces:R:3 energy=-140049.09375 stress="-0.0015505171613767743 5.4003736295271665e-05 0.0009113840933423489 5.4003736295271665e-05 -0.0005351529107429087 -0.00034381900331936777 0.0009113840933423489 -0.00034381900331936777 -0.001662138500250876" pbc="T T T"
O       10.46123203      10.94740067       1.30362267      -0.01313561       0.00561607       0.01009479
H       11.16177575      10.88901511       1.96372248      -0.02649099       0.01752849       0.01214767
H       10.23956005      10.03802551       1.07889651      -0.01902097      -0.00580078       0.02601840
H       11.17907731      11.63664445      -0.17007258      -0.01454469      -0.01286139      -0.00432914
Br      11.83597520      12.05959732      -1.40455580      -0.02402885      -0.00641720      -0.00632491
C        3.31371718       3.57266777       4.47208758      -0.02086844      -0.01303007      -0.00095764
C        4.14259403       3.73362886       5.58366359      -0.02416953      -0.01815400       0.00779659
C        1.93662072       3.49443040       4.67466431      -0.02443519      -0.00626738       0.00756484
C        3.88608890       3.45252186       3.08938105      -0.02177563      -0.01093508       0.00252861
C        3.61254398       3.79418103       6.86593236      -0.01721747      -0.01788799      -0.00413154
C        1.40310424       3.56659746       5.95505081      -0.02016388      -0.00731406      -0.00519770
C        2.23892904       3.71261296       7.05521723      -0.02347590      -0.01206895       0.00735950
H        5.21300158       3.81541881       5.44805048      -0.01984685      -0.02390947       0.00054771
H        1.27789882       3.37989735       3.82093998      -0.02325252      -0.00162695       0.00069281
H        3.15493757       3.73582528       2.33175925      -0.02066684      -0.00830165       0.00232375
H        4.76949528       4.07770062       2.96662102      -0.02072856      -0.01176268       0.00478304
H        4.19237880       2.42311942       2.88124858      -0.02266158      -0.01050994      -0.00002391
H        4.27556134       3.91831147       7.71194131      -0.02059930      -0.02080060       0.00336432
H        0.32981083       3.51231413       6.08968765      -0.02264996      -0.00249226       0.00203139
H        1.82553384       3.77231255       8.05480730      -0.02076591      -0.01251803      -0.00040105
C        4.67481420       5.34031306      10.12603405      -0.01321791      -0.00297625      -0.00453885
C        5.09150022       4.19218398      10.79936543      -0.00634513      -0.01134740      -0.00749661
C        5.47390032       5.82741240       9.09094466       0.00560839      -0.00378284       0.00337441
C        3.39826252       6.04089149      10.48690502      -0.01401210      -0.01044124      -0.01218110
C        6.26675998       3.54082022      10.43935712      -0.01537649       0.00166380       0.00618922
C        6.65308759       5.18874612       8.73660008      -0.00446582       0.01226649       0.01516800
C        7.04953906       4.03587858       9.40485555       0.00763421       0.00097530       0.01162748
H        4.48237770       3.79460858      11.60390613      -0.02076203      -0.01228149      -0.01318210
H        5.14640618       6.69556558       8.53137050       0.00109787       0.00492828       0.00606095
H        2.87899206       6.39239941       9.59371842      -0.01486392      -0.01893997      -0.01528123
H        2.72912937       5.38793831      11.04669117      -0.01222178      -0.00999574      -0.00958918
H        3.59817186       6.91293533      11.11364800      -0.02071358      -0.00523221      -0.01758656
H        6.56583748       2.64007397      10.96133736      -0.00935345      -0.00380062       0.00261506
H        7.24638801       5.57688090       7.91974920       0.01299419       0.01254591       0.02242698
H        7.95475889       3.51861974       9.11347205       0.00365739       0.01171404       0.02171084
C        3.94025350      10.57446990       9.39173962       0.00067009       0.00706502       0.01173165
C        4.79602505       9.47227536       9.35720780       0.01564546       0.01325837       0.00749223
C        4.34287800      11.74345569       8.74723333       0.00855029       0.01063478       0.00490438
C        2.61892705      10.50261924      10.09726078       0.00488710       0.00561267       0.00921020
C        6.00230939       9.52197816       8.67250672       0.00281782       0.01388099       0.02350765
C        5.54729317      11.79814946       8.05471047      -0.00433968       0.01474118       0.01943772
C        6.37214466      10.68210489       8.00338145       0.01647288       0.01962117       0.01524630
H        4.50317658       8.55865395       9.86002527       0.00995411       0.00966952       0.01334629
H        3.69464834      12.61275741       8.76771301      -0.00344971       0.00731918       0.00704480
H        1.89953268      11.19295557       9.65941205       0.00152649       0.00153148       0.00877835
H        2.19575472       9.49780259      10.04798455       0.00797778       0.00368342       0.01203319
H        2.70603098      10.77082720      11.15440773       0.00429431       0.00774062       0.00867257
H        6.64297555       8.64809119       8.64028675       0.01615851       0.01936759       0.02102728
H        5.82635172      12.70932212       7.53767674       0.00415841       0.01618278       0.01574085
H        7.28490757      10.69941691       7.42451560       0.01108632       0.02365628       0.02898574
C        3.63800038       8.31602160       5.27884871      -0.00365567      -0.00098435       0.00632266
C        3.00535758       8.13663858       4.05149217      -0.01632859      -0.01036756       0.00178391
C        2.93790308       7.98235778       6.43929742      -0.01999093      -0.01353718       0.00067034
C        5.02922315       8.86809886       5.34223506      -0.01377359       0.00621633       0.00880612
C        1.72412916       7.60660451       3.97792659       0.00932125      -0.00768104      -0.00018553
C        1.64780275       7.47464956       6.37272846       0.00647891      -0.01187404       0.00368816
C        1.04161979       7.27310467       5.13794243      -0.01283391      -0.02186333      -0.00275388
H        3.52724986       8.42478430       3.14793275      -0.00344323      -0.00296305       0.00334828
H        3.41188565       8.13896846       7.40178486      -0.01012157      -0.00731026       0.00562382
H        5.59870836       8.41419635       6.15299717      -0.00779264      -0.00059830       0.00152351
H        5.55586106       8.70130897       4.40481045      -0.01291803       0.02363152       0.00608294
H        5.01691953       9.94522859       5.52683910      -0.02059592       0.00311852       0.02485199
H        1.25521942       7.46386912       3.01089514      -0.00029868      -0.01621773      -0.00140105
H        1.10949508       7.23481970       7.28217127      -0.00636121      -0.02314527      -0.00081681
H        0.04199796       6.86351819       5.08368772       0.00409663      -0.02351379      -0.00323453
C        2.08014070      11.53861335       3.27770638      -0.00617441       0.01187121      -0.01333182
C        2.92599674      12.10021014       4.23343286      -0.01544026       0.01552822       0.00796344
C        0.94682553      10.86261826       3.72554830      -0.00921486       0.00328220       0.01136752
C        2.42546002      11.59225180       1.82051726      -0.01287068       0.01259901      -0.00564480
C        2.65511018      11.97803324       5.58924982      -0.00477103       0.02375505      -0.02403234
C        0.66531123      10.73760269       5.07987455      -0.00174260       0.00830122      -0.02031750
C        1.52502888      11.29253296       6.01828763      -0.01046181       0.01412613       0.00943404
H        3.81851436      12.62522050       3.91156897      -0.01284741       0.02279306      -0.01032529
H        0.31683600      10.36026142       2.99689608      -0.00382012       0.00024317      -0.00366571
H        1.54058718      11.52825224       1.18607950      -0.01432601       0.01590128      -0.00435399
H        2.96129140      12.50883558       1.57117168      -0.01295166       0.01334409      -0.00566159
H        3.08051853      10.75710084       1.56017884      -0.01466691       0.01312688      -0.01145504
H        3.33629620      12.40489328       6.31216441      -0.01315894       0.02850752      -0.00654495
H       -0.19883065      10.17163454       5.40395325      -0.00216360       0.00363486       0.00021536
H        1.33151518      11.16752851       7.07670816      -0.00653845       0.02106035      -0.00987852
C       10.13991756       9.28214890       7.65740993       0.00541767       0.00480199       0.00130015
C       10.17279665       8.91564872       9.00417548       0.00588327      -0.00835684       0.00373238
C       10.32652722       8.28713750       6.69717353      -0.00014154      -0.00980397       0.00486639
C        9.95206499      10.71842697       7.26200857       0.01619348       0.00097412       0.00160988
C       10.41651280       7.60095955       9.38038332      -0.00772089       0.00997218       0.00154722
C       10.57077541       6.96974394       7.07017013      -0.01292982       0.00643822      -0.00147665
C       10.62605613       6.62327049       8.41427320      -0.01183132      -0.01090869       0.00516825
H       10.01544432       9.67592230       9.75994525       0.01045762       0.00397460       0.00249612
H       10.28950146       8.55028479       5.64499863      -0.00049458      -0.00091022       0.00122616
H        9.47738218      10.80457291       6.28303939       0.01250137       0.00451601       0.00374341
H        9.34472015      11.25252134       7.99275176       0.02407333       0.00734902       0.00360939
H       10.91302554      11.23636511       7.20312068       0.01966408      -0.00646204      -0.00326167
H       10.44542063       7.33740627      10.43065672      -0.00735172      -0.00100774       0.00338721
H       10.72864299       6.21343580       6.31044296      -0.01701938      -0.00504691       0.00288264
H       10.83497485       5.60179746       8.70798168      -0.02220055      -0.00074121       0.00264456
C        5.07932443       7.81674962       1.24358492       0.01158640      -0.00120802      -0.00578464
C        4.73601951       8.91647214       0.45811442       0.01813886       0.00519161      -0.00545770
C        6.23069656       7.90496336       2.02739499       0.02161044       0.00869262      -0.00763217
C        4.22552941       6.58467562       1.28802780       0.01707946       0.00005874      -0.00551059
C        5.50892305      10.07301467       0.46150455       0.00906817      -0.00786427      -0.01557111
C        6.99856490       9.06164378       2.04705918       0.01457479      -0.00684110      -0.01615509
C        6.63792147      10.15526011       1.26650668       0.02481335       0.00400649      -0.01792187
H        3.83537622       8.87793409      -0.14533127       0.01038065      -0.00176114      -0.00412621
H        6.49815460       7.06906802       2.66408943       0.01794076       0.00285565      -0.00650476
H        4.15801941       6.19877715       2.30477935       0.01205791       0.00107890      -0.00556731
H        3.21063364       6.79234334       0.94756545       0.01797347      -0.00430137      -0.01183196
H        4.63446731       5.79278803       0.65528313       0.02191260      -0.00003169      -0.00219385
H        5.21668871      10.91546118      -0.15361908       0.01624212      -0.00393093      -0.01668787
H        7.86020205       9.12282178       2.70232489       0.02379838       0.00075984      -0.02011211
H        7.22435385      11.06516017       1.29682361       0.02078336      -0.00609545      -0.02641721
C       10.80293733       4.57676172       1.78783317       0.02426321       0.00532582      -0.01469631
C       10.43242051       3.76145517       2.85590684       0.02770315      -0.01119703       0.01399070
C       11.60589527       4.03105426       0.78737015       0.00667049      -0.00725770       0.00195229
C       10.34119997       6.00556246       1.72956428       0.01489940      -0.00251317       0.00226518
C       10.82773801       2.43192701       2.91539553       0.04100972       0.01130974      -0.00825928
C       12.02006531       2.70505710       0.85005751       0.01944955       0.01471078      -0.02354590
C       11.62479505       1.89850341       1.91028772       0.02499207      -0.00636035       0.00907032
H        9.80737637       4.16628289       3.63851706       0.03681669      -0.00199910       0.00645560
H       11.90122070       4.64881671      -0.05363957       0.00216185       0.00245880      -0.01518075
H       10.32381432       6.37448631       0.70343588       0.01623970      -0.00036363       0.00022042
H        9.33709443       6.11013156       2.14415498       0.01615392      -0.00361384      -0.00041683
H       11.00210523       6.65791481       2.30893112       0.01475750      -0.00187440       0.00084481
H       10.50081912       1.81657202       3.74492149       0.04801671      -0.00083297       0.00939119
H       12.63436870       2.29159213       0.06107671       0.00695266       0.00366788      -0.01410605
H       11.93887199       0.86306926       1.95424755       0.03555322       0.00859053      -0.00656630
C        7.71280995       2.04408574       4.91160833       0.00589758      -0.00797358      -0.00581111
C        7.22955320       2.97274012       3.99112814       0.00434417       0.00371129      -0.00403841
C        8.39563888       2.51994034       6.03228332       0.00559711       0.00683920      -0.00441480
C        7.51114914       0.57352054       4.69258952       0.01122214      -0.00351936      -0.00552478
C        7.38496006       4.33702430       4.20148550      -0.00146350      -0.01458146      -0.00854151
C        8.57922226       3.88323244       6.23032147       0.00061748      -0.01204053      -0.00482306
C        8.05581659       4.80105510       5.32615423       0.00032279       0.00507355      -0.00431776
H        6.70948615       2.62057016       3.10900778       0.00282863      -0.00845205      -0.00549243
H        8.77742917       1.81266051       6.76093760       0.00626463      -0.00243312      -0.00443120
H        7.47786109       0.03331774       5.63872219       0.01580016      -0.00429479      -0.00558123
H        6.58192671       0.37707928       4.15690289       0.01040703      -0.00742930      -0.00289784
H        8.32419979       0.14743634       4.09746670       0.01082575      -0.00038704      -0.00780007
H        6.98326345       5.03954302       3.48138862      -0.00232828      -0.00440513      -0.00505805
H        9.11731687       4.23451666       7.10232078      -0.00057127       0.00006226      -0.00357203
H        8.17919055       5.86439752       5.49529661      -0.00407124      -0.00635152      -0.00555833
