149
Lattice="12.096473316269096 0.0 0.0 0.0 12.096473316269096 0.0 0.0 0.0 12.096473316269096" Properties=species:S:1:pos:R:3:forces:R:3 energy=-90331.90625 stress="0.0007712588994763792 0.00027202971978113055 0.00011930817709071562 0.00027202971978113055 0.000566162692848593 0.00024312657478731126 0.00011930817709071562 0.00024312657478731126 -0.0004958115750923753" pbc="T T T"
O       11.96743525      10.10888028      -0.27456917       0.01031780       0.01040161      -0.00617200
H       12.67748428      10.81011572       0.13932651       0.00317588       0.01328656      -0.00502023
H       11.71096189       9.43830707       0.43154849       0.01207311       0.01056428      -0.00449586
H       11.12102353      10.60355553      -0.60650996       0.00646484       0.00748050      -0.00486528
Cl      13.80345243      11.95730326       0.82123590      -0.00439537       0.02239954       0.00059756
O        4.00651552       1.68721901       9.94106038       0.00861675      -0.00799820      -0.00992477
C        4.60873345       1.56682586      11.21828920      -0.00793691      -0.00498652      -0.01296461
H        3.93076157       1.89017034      12.01372764      -0.00597447      -0.01707879      -0.00961381
H        5.54074069       2.14241359      11.28484048      -0.00280073      -0.01205975      -0.00206192
H        4.83700860       0.51342288      11.38336858      -0.00664026      -0.01419029      -0.02123869
H        3.49126729       2.50633510       9.93985015      -0.00365285       0.01679789      -0.00670338
O        4.12421825      10.09963989       7.38426291       0.00159977       0.00664204      -0.00573003
C        5.06786594       9.14471316       6.89733196       0.00820813       0.01067550      -0.00252056
H        4.97362081       8.18176866       7.40678757       0.01246542       0.01159248      -0.00026952
H        6.09514610       9.50508203       6.98581842       0.00584501       0.01723716      -0.00143597
H        4.84365213       9.00210739       5.84279779       0.01072177       0.00706598      -0.00250706
H        4.25136130      10.23878265       8.32583081      -0.00085588       0.00840751      -0.00661317
O        8.13075823       7.10129638       9.94505827       0.00021619       0.00210589       0.00266266
C        6.89934940       7.82208602       9.92874692       0.00067294       0.00256581       0.00291996
H        6.06853341       7.18306927       9.61716382       0.00011390       0.00288224       0.00389632
H        6.95575018       8.68425521       9.25686229       0.00056081       0.00243813       0.00268126
H        6.71472703       8.17541893      10.94013452       0.00170860       0.00321186       0.00310928
H        8.22505213       6.71162913       9.05591095      -0.00074760       0.00092363       0.00253248
O        7.01601584       9.51613305       2.04250515       0.00128781      -0.00644857      -0.00571197
C        7.19271380       8.14832677       1.73058718      -0.00283223      -0.00917113       0.00268252
H        7.67277971       7.59851747       2.54607408      -0.00238152      -0.00506505       0.00511223
H        7.79270310       8.01077831       0.81939558      -0.00543401      -0.01685197       0.00209811
H        6.20786520       7.71348650       1.56911265      -0.00441119      -0.00763315       0.00797798
H        7.88084751       9.83770033       2.35291858       0.00156044      -0.00656419      -0.00624648
O       11.53123856      10.38606790       5.36032735       0.00197653       0.00258183      -0.00189343
C       11.44105955      11.73365565       5.76481863       0.00453807       0.00249875      -0.00094576
H       10.39584498      12.03593251       5.67361729       0.00430462       0.00329176       0.00314709
H       12.04166583      12.40186613       5.13506632       0.00247890       0.00244969      -0.00304824
H       11.73887448      11.87433181       6.81047028       0.00862102       0.00188557      -0.00204545
H       12.45967207      10.10773959       5.47810884       0.00181035       0.00121665      -0.00234558
O        6.87246460       4.68192705      10.52717112      -0.00067127       0.00024976      -0.00226432
C        6.09741057       4.90840141      11.70702264      -0.00569448      -0.00945994      -0.00376111
H        6.35073405       5.86459247      12.16849048      -0.02371348      -0.00290626      -0.00729741
H        6.28586836       4.12364364      12.44329412       0.00740810      -0.00341329      -0.00009984
H        5.03491487       4.90911589      11.45657993      -0.00483370      -0.02977001      -0.00614378
H        7.51060759       5.41344604      10.47172552       0.00024379       0.00020608       0.00548577
O        7.26627445       5.62527031       7.83097433      -0.00074291      -0.00094381       0.00354373
C        7.39841760       4.97913542       6.56873411      -0.00307527      -0.00552863       0.00587128
H        6.43898603       4.61041933       6.20347738      -0.00256070      -0.01166516       0.01081503
H        8.10774530       4.14462973       6.61299651       0.00158751      -0.00173742       0.00625496
H        7.77586854       5.71708392       5.86643418      -0.00944931      -0.00667870       0.00093080
H        6.87432647       5.02003377       8.47760718       0.00183320       0.00037232       0.00738688
O        3.05619832       4.31929539       9.61818674       0.00360388       0.00740108      -0.00442203
C        3.79803594       4.47718297       8.40352825       0.01035974       0.00582851      -0.00111647
H        4.00883777       5.52852414       8.19422356       0.02030013       0.00543609       0.00476203
H        3.27967101       4.03138239       7.55188641       0.00869438       0.01476365      -0.00509375
H        4.73713934       3.94906056       8.55003204       0.00521578      -0.00298236      -0.00115827
H        2.18592473       4.70975924       9.50277360       0.00937250       0.01132931      -0.00579409
O        9.51246684      11.00295646       8.41902226       0.01127219       0.00588128       0.00489879
C        9.71989555       9.63529547       8.01835825       0.00275826       0.00645677      -0.00176345
H        9.12204396       9.39182936       7.14010566       0.00694272       0.01699163      -0.00743604
H        9.47407027       8.95441933       8.83816717      -0.00902563       0.00357087      -0.00766507
H       10.76803823       9.52853896       7.74760429       0.00391722      -0.00102852       0.00540429
H        8.62178614      11.30531973       8.18187111       0.01641864       0.01591456      -0.00177190
O        5.69059391       5.61312964       3.55549978      -0.00669475      -0.00785458       0.01847216
C        5.56052316       6.82180379       4.29043092      -0.00587089      -0.00303680       0.00985831
H        4.99930991       6.65734536       5.21682259       0.00595015       0.00514952       0.01887721
H        5.05479314       7.60081010       3.70808153      -0.01593903      -0.01019362       0.00891325
H        6.55437411       7.19007247       4.54718992      -0.00405827       0.00311766      -0.00570047
H        4.86208064       5.12019218       3.69494678      -0.01453898      -0.00008035       0.00339682
O        3.37114891       4.16902708       4.15633644       0.00204065      -0.01117372       0.00469673
C        3.09022624       3.40246102       2.98267202      -0.00414674      -0.01119994       0.00723496
H        2.72481468       2.40297735       3.22317475      -0.01691066      -0.00669256       0.00774865
H        3.97995853       3.31458497       2.34810154      -0.00410497      -0.02383277       0.00883390
H        2.31373452       3.91913923       2.42159493       0.00421706      -0.00185117       0.00429434
H        3.74323720       3.58029091       4.83611889       0.01643827      -0.01189686      -0.00128057
O        2.16483724      10.05856674       5.45861957      -0.00159780      -0.00438485      -0.00062615
C        2.73664254      11.00984039       4.56651773       0.00238264      -0.00499336       0.00164539
H        3.80332354      10.83213510       4.41518122       0.00154099      -0.00945782       0.00121499
H        2.60309248      12.03638296       4.92806979       0.00726393      -0.00507855       0.00354481
H        2.23137146      10.91979112       3.60608529       0.00163788      -0.00056511       0.00150058
H        2.66002138      10.09889304       6.29245542      -0.00165536      -0.00645655      -0.00004558
O        8.73574879       8.51126302       4.99105839      -0.00084710       0.00893104      -0.00250165
C        9.79660815       7.57804859       5.12352234      -0.00389898       0.00556600       0.00078979
H        9.70617166       7.09296910       6.09756914      -0.00885231       0.00535682       0.00014061
H       10.77078589       8.06613504       5.07690066      -0.00234833       0.00296837       0.00436650
H        9.74061383       6.79691519       4.35134574      -0.00341289       0.00618494       0.00008926
H        9.04790226       9.21101187       4.39589431       0.00104471       0.00532889      -0.00503925
O       10.88875546       6.22743069       8.38571029      -0.00249791      -0.00020325       0.00143030
C       11.40931322       6.47236994       9.69878602      -0.00635754      -0.00155394       0.00344397
H       12.39431378       6.94645188       9.64682509       0.00214028      -0.01856916       0.00728070
H       11.46948451       5.55047937      10.28097250      -0.02607336       0.00047097       0.00868665
H       10.71615938       7.14781306      10.19331781       0.00202380       0.01308782      -0.00511286
H       11.14498361       5.34450945       8.10728994      -0.00669849      -0.00142801       0.00374557
O        4.83447428       2.61417634       5.97056644      -0.00739744      -0.01079875      -0.00607580
C        5.69312231       2.03233504       4.97578884      -0.00186918      -0.01220374      -0.00308736
H        5.12113926       1.41727348       4.27807032       0.00319418      -0.02724777       0.00595737
H        6.47542977       1.43301157       5.44298272       0.00499181       0.00218542       0.00469996
H        6.14569287       2.86473601       4.43658139      -0.01260570      -0.01392090      -0.01305927
H        4.55144968       1.91677291       6.57083533      -0.01547722      -0.00481233      -0.01230484
O        0.60189283       7.83737740       6.86581634       0.00272149      -0.00042520       0.00926560
C        1.78896534       7.08763900       6.98072165       0.00159389      -0.00291777       0.00926361
H        1.69725547       6.07948926       6.55493728       0.00139042      -0.00040409       0.00344227
H        2.12883160       7.00228003       8.02317512      -0.00223139      -0.00905740       0.00996959
H        2.56158478       7.61350983       6.42190131       0.00455846      -0.00115253       0.01499040
H       -0.11423697       7.34166650       7.29130332       0.00143392      -0.00094894       0.00531450
O        4.63263806      -0.23800244       2.20742916      -0.02195388       0.00042684       0.00602299
C        5.91698803       0.31349438       1.94450338      -0.02447715      -0.00392266      -0.01406205
H        6.54705243       0.07527427       2.80056026      -0.01057382      -0.01324077      -0.02712199
H        5.87318916       1.40097910       1.83304362      -0.01930119      -0.00261489      -0.00655610
H        6.38339540      -0.12524714       1.05950333      -0.04277843      -0.00111111      -0.02517843
H        3.96160182       0.09913256       1.59070975      -0.02390599      -0.03223047      -0.01114291
O        9.86858240      11.24282772      10.98663436       0.00764611       0.00231700       0.00186285
C        8.69256112      10.54354522      11.40705707       0.01062427      -0.00058149       0.00520851
H        8.73493619       9.48831798      11.12199758       0.01200543      -0.00069892       0.00529853
H        7.80449183      10.99462915      10.95607976       0.00855976      -0.00247087       0.00716679
H        8.60829518      10.61713609      12.48739630       0.01341914      -0.00042176       0.00531092
H        9.84130160      11.23444664       9.99063539       0.00635131       0.00125987       0.00121754
O       11.36136037       8.38503956       1.59854435       0.01045093       0.01693173      -0.00469093
C       10.82900078       7.10931376       1.23179768       0.01537922       0.01492465      -0.00471304
H       11.60382662       6.48520629       0.78238097       0.01715779       0.01900458      -0.00731048
H       10.02167947       7.25825070       0.51587879       0.01273669       0.01206870      -0.00245085
H       10.42503695       6.59780658       2.10843223       0.02048511       0.01249632      -0.00380844
H       12.30067121       8.23878815       1.95117646       0.01054451       0.01817535      -0.00205061
O       11.18518310       2.65051288       2.40083882      -0.00800726       0.01204130       0.00775045
C       10.62799308       2.51056536       1.09942352       0.00907566      -0.00039691       0.00157118
H       10.50928955       3.47931806       0.59981672       0.01221470      -0.00475302      -0.00763930
H        9.65436411       2.00997722       1.12047437       0.01019192      -0.00310144      -0.00607324
H       11.32192111       1.89728976       0.52822460       0.01820093      -0.00289088       0.01541649
H       10.57342250       3.15835776       2.93860494      -0.01745591       0.01166344      -0.00343478
O        9.60627339      10.12783781       2.80211430       0.00066715       0.00253445      -0.00396179
C       10.22732949      11.40818031       2.63616035      -0.00059244       0.00379950       0.00086570
H       10.25283659      11.70141480       1.58397272       0.00040247       0.00705553       0.00181639
H       11.24041771      11.40385882       3.03325800      -0.00109535       0.00321053       0.00199763
H        9.63563685      12.13683222       3.18683729      -0.00180827       0.00162573       0.00271881
H       10.23521556       9.45626967       2.47118039       0.00373423       0.00510049      -0.00451546
O        1.68790911       7.92756097       2.17684884       0.00260039       0.01124263       0.00367612
C        2.15596676       7.04616826       3.19487673      -0.01259336       0.00227845       0.00274073
H        2.40418420       7.59855991       4.10316296      -0.01753601      -0.00528592       0.00872964
H        3.03456906       6.49902916       2.85007870      -0.01330987      -0.00173478       0.00717548
H        1.36595774       6.33065202       3.41995470      -0.01959348       0.00619303      -0.00954909
H        2.42426281       8.55765060       1.97167766       0.00957115       0.00468855       0.00617881
O        7.65159281       0.81529162       7.69350803       0.01114267      -0.00102413      -0.00405309
C        7.27109979       1.70101953       8.75812398       0.00119091      -0.00903501      -0.00060910
H        7.42982920       2.74324254       8.47716125      -0.01044010      -0.00637549       0.00291439
H        7.83591738       1.49590537       9.67229131       0.00416204      -0.00619571      -0.00162715
H        6.21002921       1.54967294       8.94442963       0.00290903      -0.02079939      -0.00121521
H        8.52884121       1.07547049       7.39655577       0.00476098       0.01445287      -0.00847625
O        3.92436466       9.20987141       1.64038746      -0.00093722       0.00191712       0.00103104
C        4.14961873       9.22414121       0.23631286       0.00197690       0.00426102       0.00136203
H        5.18366297       9.51045594       0.02508892       0.00272641       0.00404550       0.00442695
H        3.46675574       9.91639174      -0.26488666       0.00306180       0.00475875       0.00033179
H        3.97929720       8.21304305      -0.13575568       0.00274437       0.00500944      -0.00081705
H        4.20916864      10.08141522       1.98049326      -0.00225020       0.00060208       0.00538044
