150
Lattice="12.110750215154605 0.0 0.0 0.0 12.110750215154605 0.0 0.0 0.0 12.110750215154605" Properties=species:S:1:pos:R:3:forces:R:3 energy=-333987.59375 stress="0.00023652792151551694 -0.0009275096235796809 0.00042210206447634846 -0.0009275096235796809 -0.0007108873105607927 -0.0003482471074676141 0.00042210206447634846 -0.0003482471074676141 -0.0006399662815965712" pbc="T T T"
Pd      12.43577236      11.66996777       1.70830310       0.00761846      -0.00984672       0.01743725
O       10.87776730      11.34043300       0.45799730       0.00967841      -0.00187761       0.01049501
O       10.32980499       8.69717184      -0.40106554      -0.00471061       0.00550139       0.00141287
O        9.45079193       9.62412956       2.17062230      -0.00232345       0.00132870       0.00229126
O       12.55861111       9.69339832       1.57980665      -0.00153202      -0.00671424       0.01033667
Mo      10.76046332       9.59325628       0.99751259      -0.00089306      -0.00301012       0.00301066
O        4.01998295       1.77486606      10.06517249      -0.00148106       0.01788490      -0.00712597
C        4.69320168       1.59190945      11.30092178      -0.00569692      -0.00585154      -0.00863850
H        4.15606184       2.06308938      12.13044615      -0.00868243      -0.02346595      -0.00128627
H        5.71263616       1.99310008      11.27051039      -0.00569248      -0.00551149       0.00302883
H        4.74479774       0.52509268      11.51211715      -0.00511609      -0.00983667      -0.03012808
H        3.64364301       2.66576338      10.06498690       0.00210348       0.01930501       0.00672206
O        4.34473908       9.83935722       7.69412872      -0.01475382       0.01160163      -0.04284400
C        5.03982011       8.83793995       6.95963173      -0.00259695       0.00579805      -0.01312792
H        4.79704149       7.82892258       7.30333206      -0.00616108       0.00892869      -0.00904876
H        6.12807299       8.95916243       6.99282419      -0.00314349       0.00677571      -0.00017910
H        4.71909348       8.93817919       5.92502277       0.01331452      -0.00767624      -0.02016410
H        4.40377726       9.64059181       8.63175262      -0.02591015       0.02376164      -0.02960533
O        8.15070634       6.60909217       9.89236860      -0.00582042       0.00706846      -0.00312808
C        6.98742709       7.42706371       9.83987718      -0.00781389       0.00400299      -0.00231150
H        6.08897283       6.83920960       9.62311047      -0.00565720       0.00264567      -0.00694970
H        7.08767197       8.20196383       9.07749435      -0.00804237       0.00803089       0.00141543
H        6.87874371       7.90188368      10.81109232      -0.01140869      -0.00019437      -0.00079989
H        8.28893721       6.28178827       8.98708235      -0.01024536       0.00082127      -0.00148749
O        6.73588179       9.43514017       2.03405730       0.00162291      -0.00714719       0.00231901
C        6.91044902       8.10469669       1.57869155       0.00404163      -0.00593451      -0.00059643
H        7.34559425       7.46477127       2.34992561       0.00140147      -0.00727379      -0.00017369
H        7.55414351       8.06863316       0.69342300       0.00752300      -0.00325160       0.00188738
H        5.92563458       7.71420460       1.31810871       0.00536051      -0.00592579      -0.00513968
H        7.64358089       9.75431726       2.19835683       0.00055595      -0.00485659       0.00209245
O       12.49658021      10.60052862       7.68735085       0.01739579      -0.00289905       0.01011238
C       11.82559174      11.80758921       7.38466825       0.02252460      -0.00300860      -0.00701647
H       10.95168271      11.64231724       6.74961389       0.01211053      -0.01746011       0.01100644
H       12.48229347      12.54200057       6.90077180       0.02178890      -0.01034933      -0.01861419
H       11.48268891      12.22953877       8.32967477       0.03155310       0.01271769      -0.01246622
H       12.65561066      10.11340008       6.86744970       0.00028133      -0.02442193       0.02189451
O        6.77492611       4.42008719      10.76618152       0.00825566      -0.00044654       0.00380993
C        6.10596758       4.86132572      11.93599088       0.00074448      -0.00698269       0.00175887
H        6.69600303       5.60724821      12.47603441       0.00206406      -0.01810455       0.01532552
H        5.95119177       4.00763715      12.59864945      -0.01084474      -0.01316082      -0.00948796
H        5.12553473       5.29253700      11.69956187       0.00573835       0.00332451      -0.00023589
H        7.40182476       5.12650239      10.51645658       0.00107966       0.00613104       0.00420399
O        7.22148660       5.45214258       7.63167243       0.00022066      -0.02073154       0.01095033
C        7.33657601       4.81713882       6.35852320      -0.00128577      -0.01280914       0.00620620
H        6.36154014       4.50152394       5.98636662      -0.00222158      -0.00979911       0.00565645
H        8.00382079       3.95205989       6.40229975      -0.00283828      -0.01433185       0.00118573
H        7.74903503       5.54923393       5.67333950      -0.00072469      -0.01010847       0.01042077
H        6.84347083       4.81721398       8.25086559       0.00934058      -0.02434132       0.00864545
O        3.08847113       4.42954733       9.72939904       0.00840276       0.02036127      -0.00670204
C        3.63443959       4.54831321       8.41235277       0.00241508       0.00351573      -0.00585620
H        3.54736516       5.56879571       8.03522163       0.01781416       0.00455964      -0.00731108
H        3.16830113       3.85200478       7.71099073      -0.00376090      -0.00184774       0.00301729
H        4.68720013       4.29391632       8.49903792       0.00317913       0.00273105       0.00344883
H        2.14841279       4.62103700       9.69072757      -0.00111198       0.03131876      -0.01035592
O        8.63638258      10.56678143       8.08435129      -0.00777024       0.01239086      -0.00278398
C        9.47578741       9.41106017       8.32530864      -0.00134829       0.01735855       0.00461183
H        9.16567787       8.58791099       7.68220490       0.00752436       0.01598224       0.00071621
H        9.43964291       9.10981647       9.37413040      -0.01157803       0.01584966       0.00348675
H       10.49473321       9.69726995       8.07765786      -0.00174588       0.02069804       0.01585626
H        7.72777404      10.25669434       8.02713898       0.00202352       0.01095885      -0.01410273
O        5.89074175       5.71681243       3.57756663      -0.00337446      -0.00893232      -0.00030732
C        5.49793962       6.83298710       4.37552690      -0.00214671      -0.00958520       0.00003444
H        4.62691717       6.58852695       4.99389026      -0.00319073      -0.00835724      -0.00090986
H        5.26858458       7.71031912       3.76530781       0.00036684      -0.00816661       0.00115713
H        6.34081089       7.08941881       5.01280007      -0.00238207      -0.01196887       0.00160886
H        5.25827074       5.63902505       2.85920696      -0.00728205      -0.01036245       0.00181233
O        2.55034758       3.49623650       4.20051139       0.00255240      -0.00797457       0.00959086
C        3.00528159       3.37142885       2.86381807      -0.00344504      -0.00839930       0.00798625
H        3.11700090       2.32736365       2.54918136      -0.00318632      -0.00827858       0.00815340
H        3.96318477       3.88093748       2.70638938      -0.00516906      -0.00696337       0.00299693
H        2.26298971       3.84073453       2.21864748      -0.00699598      -0.00998531       0.01099774
H        3.22666778       3.14932980       4.79946702       0.00822690      -0.00498110       0.00574684
O        2.24211666      10.26290187       5.41010614       0.00233497       0.00319234      -0.01507640
C        2.51198483      11.15999007       4.35174457       0.00036269       0.01185951      -0.00358933
H        3.56468689      11.12621348       4.04957911      -0.00635380       0.00185466      -0.02249370
H        2.23320485      12.19176152       4.59457039       0.02016161       0.01118439       0.01497112
H        1.92878720      10.82146732       3.48263922      -0.01624168       0.03535965       0.00006105
H        2.73820125      10.52600322       6.19709946       0.00713885      -0.01703201      -0.02074757
O        8.43459999       8.19014175       5.46886515      -0.01004225       0.00953120       0.01314774
C        9.56316740       7.35448037       5.23639947      -0.01347792       0.00979504      -0.00414165
H        9.76285165       6.75387068       6.12910166      -0.01186743      -0.00232145      -0.01303872
H       10.45919593       7.93088591       5.00807446      -0.01275432       0.01062962       0.00068729
H        9.36725206       6.67664551       4.39891839      -0.01830976       0.02201533      -0.01278979
H        8.71948439       9.10021980       5.27965420      -0.01392351       0.00896715       0.00599901
O       11.10996135       6.16825489       8.34897249       0.00467938       0.00307107      -0.00683129
C       11.57819181       6.45018623       9.67594016      -0.00215936       0.00201244      -0.00362148
H       12.47894542       7.07075397       9.65560613       0.01225057      -0.01939178       0.00191843
H       11.77755059       5.52647522      10.22752387      -0.02884780       0.00142390       0.00425557
H       10.79283808       6.99772457      10.18952941       0.00668788       0.02285430      -0.01441914
H       11.61491116       5.43565432       7.98747811      -0.00231749      -0.00094184      -0.00004796
O        4.81287815       2.41290024       5.92047068      -0.00031803      -0.01420628      -0.00407970
C        5.66315480       2.01020868       4.85717797       0.00103389      -0.01298609       0.00009915
H        5.19065584       2.31993121       3.92718945       0.00542782      -0.00268295       0.00018185
H        5.80374371       0.92480793       4.85076731      -0.00603414      -0.01351854      -0.00979963
H        6.64680972       2.48167807       4.91301869       0.00375786      -0.01982351       0.00523872
H        5.19554788       2.03676248       6.72483566       0.00320335      -0.01456967       0.00110692
O        0.42496309       7.86413901       6.46371058      -0.00151718       0.01148981       0.00709207
C        1.69469621       7.30473166       6.72002295      -0.00314379       0.00639971       0.00367138
H        1.71350567       6.21929272       6.54919103      -0.00698234       0.00718582      -0.00015233
H        2.03972928       7.51438927       7.74143925      -0.00161213       0.00147377       0.00409108
H        2.39677528       7.77032606       6.03134846      -0.00234534       0.00642467       0.00423849
H       -0.20535714       7.46826929       7.08426618      -0.00291888       0.00448317       0.00288594
O        5.20091756       0.24698428       2.04346987       0.01039088       0.01702317      -0.02173179
C        6.55065519       0.68192481       2.09047722       0.01147041       0.01073721      -0.01168779
H        7.11023032       0.17551143       2.88125878       0.00916325      -0.00546031      -0.02065319
H        6.63194691       1.76603894       2.23119484       0.01570798       0.00769699       0.00831239
H        7.00498973       0.43303526       1.13460271       0.01172733       0.02664465      -0.01579040
H        4.83400392       0.31698497       2.92866855       0.01185589      -0.00889064      -0.01822358
O        8.26231593      11.84691405      10.57102048       0.00183535      -0.00279617       0.01145455
C        7.55702744      10.72000248      11.05126019      -0.00705260      -0.00072613       0.00268421
H        8.20064095       9.83760356      11.11538387      -0.01237372      -0.00445625       0.00310194
H        6.68864033      10.48320633      10.41887950      -0.00456753       0.00630195      -0.00312778
H        7.18816125      10.93774049      12.05094712      -0.01136367      -0.00165513       0.00136408
H        8.62508691      11.57677269       9.71265615      -0.00385822       0.00331231       0.00677281
O       11.20300982       7.51734861       1.94628484      -0.00710434      -0.00678439      -0.00820804
C       10.52910739       6.33773031       1.52907504      -0.00663665      -0.00500883      -0.01334327
H       11.18546461       5.72541789       0.90522385      -0.00942357       0.00043043      -0.02152275
H        9.65685920       6.62053870       0.94355256      -0.01072660      -0.00245263      -0.00590020
H       10.21537397       5.75984530       2.40273528      -0.00068861      -0.01272520      -0.01622367
H       12.18694520       7.35271841       1.93688155      -0.00612435      -0.00664000      -0.00166343
O       12.09434269       1.65795248       1.74660468       0.02459615      -0.01108618       0.01281250
C       11.06786045       2.13162693       0.83142924       0.02002954      -0.01406158       0.01675133
H       10.90025375       3.19325016       1.01387522       0.02835856      -0.01161160       0.00755703
H       10.15162548       1.55535321       0.93883116       0.01767042      -0.00794205       0.02934644
H       11.45762214       1.97722488      -0.16863054       0.01148327      -0.02810439       0.01554903
H       11.84380860       1.91958657       2.63884912       0.03155601      -0.00683007       0.01428646
O        9.78800664      10.45560680       4.63613781      -0.01719669       0.00832462       0.00144099
C        9.71519978      11.84257932       4.39148823      -0.00014437       0.01069868       0.00985075
H        9.19517947      12.04991659       3.45116411       0.00671443       0.02262782       0.00863791
H       10.71977024      12.28396383       4.32728109       0.00513494      -0.00075850       0.01800326
H        9.17701597      12.32474315       5.20923328       0.00085101       0.01115023       0.01034465
H        9.78399355      10.02802803       3.74689129      -0.01303754       0.01148818       0.00008316
O        1.66124275       7.30419564       1.69440106      -0.01059622       0.00936294       0.01087463
C        2.43969159       7.04764437       2.86160005      -0.00443832       0.00435710       0.00459705
H        2.31690976       7.84132450       3.60058634       0.00000121      -0.00242639       0.01254269
H        3.49640998       6.98831515       2.59476440      -0.00617030       0.00857626      -0.00182842
H        2.11347237       6.10030601       3.29026255      -0.00020362       0.00087404      -0.00037834
H        1.65190401       8.27065037       1.54829449      -0.02445873       0.01163980       0.01963764
O        7.08779483       1.38199773       7.50334758      -0.00677088      -0.00845432       0.00620657
C        7.21858972       2.20106701       8.67098152      -0.00077260      -0.00945023       0.00563620
H        8.01224573       2.94525770       8.54574553       0.00389248      -0.01459226       0.00577108
H        7.42444671       1.60812490       9.56053674      -0.00532631      -0.00801349       0.00774714
H        6.26777001       2.70766797       8.82697384       0.00198421      -0.00378539       0.00320404
H        7.69461975       0.63930025       7.58731891       0.00220090      -0.00294853      -0.00531228
O        3.91311887       9.54107212       1.65585867       0.00958352       0.00335738       0.00121099
C        3.85535368       9.33604346       0.25680579       0.00072338       0.01086830       0.00086194
H        4.64507407       9.88614294      -0.26226549      -0.01274365       0.02676785      -0.00227655
H        2.88799957       9.68629266      -0.10841436      -0.00525936       0.00026545       0.00914120
H        3.94575107       8.27055679       0.00281092       0.01044933       0.01416570      -0.00872695
H        4.82232672       9.79435113       1.87830878       0.01504838      -0.01096395      -0.00396779
