149
Lattice="15.773921935738924 0.0 0.0 0.0 15.773921935738924 0.0 0.0 0.0 15.773921935738924" Properties=species:S:1:pos:R:3:forces:R:3 energy=-1093092.375 stress="-0.00036218363675288856 -0.0004028740950161591 0.00018482800078345463 -0.0004028740950161591 -0.00019562913803383708 -0.00013408788800006732 0.00018482800078345463 -0.00013408788800006732 -0.0005804845714010298" pbc="T T T"
Pd      15.21669745      16.14933371      -0.58747034       0.03335352      -0.02507270       0.01547307
O       10.22623068      15.24344854       8.65509846      -0.00897789      -0.01509094      -0.00707662
O       10.15227878      13.67925218       7.04309265       0.01325786       0.00768137      -0.02226758
C        8.19949561      14.06765174       8.30892384       0.00292552      -0.00856262      -0.02527559
C        7.46333504      13.20101994       7.50502933       0.00749914       0.01173626       0.00026757
C        7.58405694      14.67226623       9.40126434       0.00021863       0.01039279       0.00611040
C        6.12759856      12.94888484       7.78605325       0.00513195      -0.01230381      -0.02181804
C        6.24890397      14.41443273       9.68799781       0.00725532      -0.01192167      -0.02124193
C        5.51836659      13.55092635       8.88042150       0.00877351       0.01162217       0.01292786
C        9.65646584      14.35663485       7.97875868       0.00508332       0.03676301       0.02532062
H        7.95716220      12.73907161       6.66060988       0.00750616       0.00145497      -0.01366910
H        8.16447806      15.33661202      10.02701166       0.00650875      -0.00065547      -0.01145951
H        5.55519799      12.28763492       7.14965000       0.01119988       0.00284354      -0.00187268
H        5.78367729      14.88288142      10.54554880       0.00726177      -0.00155928       0.00198381
H        4.47865109      13.34588598       9.10320990       0.00753967      -0.00372150      -0.00609438
O        9.52506997      11.55377653      13.39823144      -0.00269556       0.00441337      -0.01085544
O        7.63123636      10.78375688      12.47775143      -0.01830292      -0.02584648       0.00442493
C        7.73580420      13.06592702      13.04910434      -0.02194118      -0.00905979       0.00534011
C        6.35269792      13.21082953      13.12684175       0.00766000       0.00321513       0.01231173
C        8.53988434      14.20162573      13.05867655       0.01694801      -0.00460667      -0.00920964
C        5.78749664      14.47317317      13.26559996      -0.00552189      -0.01151503       0.00890737
C        7.97403099      15.46597481      13.16196372      -0.01661621       0.00325701       0.00030353
C        6.59488640      15.60657131      13.28301747       0.00380899      -0.00476199       0.00431515
C        8.35350583      11.67388885      12.96255654       0.01984620       0.01689672       0.01346655
H        5.73660125      12.32284830      13.07725719      -0.00824696      -0.00887209       0.01371246
H        9.60994967      14.08623683      12.96989083      -0.01396735       0.00114894      -0.02598230
H        4.71116746      14.57759340      13.34258759      -0.00413944      -0.00466586       0.01343278
H        8.60894218      16.34366322      13.15293107      -0.00561719      -0.00485717      -0.00675986
H        6.15423184      16.59208778      13.37563524      -0.00587553      -0.00384992       0.00264661
Cl       8.77967031      11.93429962       1.31759428      -0.00171953      -0.00437754       0.01633522
Cl      10.48822914      11.89936308       3.68236600       0.00849340      -0.00489751       0.00528806
Cl      10.49759090       9.63156226       1.84882407       0.00355371      -0.00013414       0.00426497
C       10.30649308      11.39623943       1.99500780       0.00379319      -0.00509878       0.00370662
H       11.11060478      11.84206895       1.42081398       0.00117826       0.00036433       0.00402409
Cl      14.73966623      16.60102464       7.12878873       0.00058486       0.00337383      -0.00986555
Cl      15.28681306      13.74537812       6.82905647       0.00558993       0.00509691      -0.01698607
Cl      12.57493746      14.72932417       6.46067497       0.00154269      -0.00375815       0.01060449
C       14.26310840      15.10435791       6.27828884      -0.00389132       0.00637088      -0.00336505
H       14.49830407      15.26125453       5.23254775      -0.01383889       0.00799814      -0.00498691
Cl      10.75929865       5.55620228       8.61902738      -0.01599764      -0.01355106      -0.02427940
Cl      11.02101329       4.15647971       6.09154900       0.00845509      -0.01955169      -0.01153725
Cl      13.27141919       4.21770301       7.96241734      -0.00697124       0.00930795      -0.01118417
C       11.51653812       4.17797387       7.79232327      -0.00446874      -0.00528683      -0.01338526
H       11.15326387       3.26729192       8.25606659       0.00290485      -0.00417820      -0.01087624
Cl       2.36829729       7.18690868      12.36394124       0.00222933       0.01598333       0.00472556
Cl       3.50614513       6.24965121       9.84563150       0.01089850       0.00730512       0.00815254
Cl       5.01396251       8.10243197      11.51982337       0.01040384       0.00750685       0.01100324
C        3.86994341       6.77288396      11.50032094       0.00583679       0.00931400       0.01126002
H        4.31263366       5.93034825      12.01884950       0.00149049       0.00849771       0.01583624
Cl      13.69696546      11.42971376      10.37493551       0.02212858      -0.00605905      -0.00980499
Cl      15.24789855      13.83820479      10.90665421      -0.01955953       0.01573932       0.00681869
Cl      12.47645914      14.04623440       9.96277782      -0.02834702      -0.02453369       0.02810156
C       13.61155135      13.11117458      10.91195465      -0.00460647      -0.01350760       0.01022470
H       13.28276876      13.10617495      11.94315281       0.00272775      -0.03129047       0.01208824
Cl       7.06899379       8.89068513       3.50180344       0.02092332       0.00876848      -0.01055837
Cl       6.69770579       9.60443256       6.30994796      -0.00197706      -0.00683952      -0.01043203
Cl       8.59687502       7.51852861       5.58445710       0.00414743      -0.00262538      -0.00637849
C        7.84934501       9.03827894       5.09166775       0.00695481       0.00037334      -0.00240837
H        8.63178316       9.78196012       4.99526831       0.00771481       0.00098515       0.00771520
Cl       5.14426040       5.63244917       4.26038749       0.00508130      -0.00975955       0.02012638
Cl       5.80454840       2.79717234       4.18282810       0.00589633      -0.00783396       0.00004515
Cl       7.74892510       4.76030620       3.26112547      -0.01103073      -0.00270849      -0.01567382
C        6.43352582       4.43117277       4.40457201       0.00685228      -0.00940683      -0.00196793
H        6.84054703       4.50792593       5.40716338       0.01770982      -0.01365319      -0.00694636
Cl       3.14349801      15.81075414       7.33685059       0.01973948       0.00592522      -0.00548604
Cl       3.39433923      15.86512107       4.42956716      -0.00814356      -0.00121965      -0.00662369
Cl       2.92149545      13.34388536       5.81262182       0.00798565       0.00233215       0.00459456
C        2.61901456      15.08356278       5.81064111       0.00582436       0.00141375       0.00189504
H        1.54884850      15.23085162       5.73275041       0.00521815      -0.00013850       0.01062247
Cl      11.85800675      11.02436749       7.05159496      -0.01964194       0.00794476       0.00291057
Cl      13.11922629       8.68449585       8.28972054      -0.01526253       0.00208980      -0.01247191
Cl      12.34891453       8.60987336       5.47771022      -0.01218663       0.02033454      -0.01224345
C       12.91702503       9.64595750       6.81588603      -0.01584228       0.01336133      -0.00582078
H       13.89762748      10.00742440       6.53230466      -0.01627651       0.01962027      -0.00093791
Cl      15.63347452       9.57204423      13.42546895      -0.01766294       0.01672360       0.01551256
Cl      12.72392264       9.53842876      13.70353245      -0.00907749       0.00231293      -0.01544590
Cl      14.06601948       7.47072056      12.14134001       0.00869361       0.01928465      -0.00863534
C       14.17754911       8.56108791      13.53671082      -0.00939856       0.00934941       0.00017323
H       14.28534938       7.94273563      14.42017563      -0.01973279       0.00314592      -0.00345525
Cl       0.73189009       6.66788784       0.10386865       0.00597839       0.02361737       0.00899389
Cl      -1.90344248       5.91209543       1.09890589       0.00715430       0.00612000       0.00323136
Cl       0.49654814       5.04062438       2.52115225       0.00724780      -0.00198814      -0.00693182
C       -0.23759406       6.32577630       1.54199362       0.00676747       0.00487172       0.00653769
H       -0.26477385       7.22518353       2.14611958       0.00593458      -0.00076990       0.01449621
Cl       4.40834717       3.65358958       7.49129067       0.01525968      -0.00786739      -0.00077267
Cl       6.89832893       2.15643836       7.80583869       0.01259676      -0.00503692       0.01251505
Cl       6.88840971       5.05621789       8.12885507       0.01801586      -0.00217283      -0.01048146
C        5.96846970       3.55667274       8.33171469       0.01600381       0.00060065      -0.00037235
H        5.75743059       3.44225199       9.38704956       0.01508762       0.01257363       0.00025180
Cl       1.56969341       9.89704396      10.23297846      -0.00941376       0.00784212      -0.00120053
Cl       3.55100438      10.35739372       8.15241911       0.00230545      -0.00288220       0.01282151
Cl       0.71487240      10.52140850       7.51505322       0.00752273      -0.00321864      -0.01073781
C        1.94439957      10.78517444       8.76287916      -0.00340650       0.00271455      -0.00286506
H        1.94749966      11.84399099       8.99160210      -0.00450493       0.00439772      -0.00972256
Cl       7.13200152      -0.41099052       2.73637381      -0.00154015      -0.00250280      -0.00106627
Cl       9.20568123      -0.50543617       4.79634567       0.00346100      -0.00926834      -0.01031113
Cl       9.80180288       0.64541602       2.17290751      -0.00449076      -0.00576329      -0.00712791
C        8.56284558       0.38333826       3.42897888       0.00181621      -0.00589003      -0.00559823
H        8.24987941       1.36612617       3.75872599       0.00396481      -0.00660610      -0.00176331
Cl      12.11316254      15.81444692      13.74751746      -0.00314728      -0.00133793       0.00469500
Cl      11.54497586      13.05028217      14.42073450      -0.00225389       0.01771167       0.02372180
Cl      14.27516805      14.10880179      14.77430440      -0.00630729      -0.00238699       0.00260548
C       12.46679732      14.47019386      14.82362760      -0.00942481       0.02025674       0.01297532
H       12.28345197      14.78073239      15.84642228       0.00311151       0.02283609       0.01440015
Cl      14.35259943      12.48388539       3.18095245      -0.00701496      -0.00451377       0.02504523
Cl      14.09848488      10.60396296       0.96181681       0.00069991       0.00126041       0.02088302
Cl      15.45040455       9.79774701       3.42384485      -0.00232007      -0.00335908       0.02095187
C       14.15964122      10.78522277       2.71661704      -0.00379919      -0.00220875       0.02202944
H       13.21656629      10.43675876       3.12475341      -0.00356454      -0.00581386       0.02020557
Cl       6.78702062       4.78964122      -0.77142887      -0.00572661       0.00550082      -0.00588268
Cl       4.59683842       6.70299297      -0.58475710      -0.00305846      -0.00493063       0.00423875
Cl       4.53609941       4.24778024       1.00000011       0.01422399       0.00621757       0.01252969
C        5.55800719       5.49924447       0.29078708       0.00178053       0.00958597      -0.00258634
H        6.06791228       6.00296493       1.10364658       0.00725575       0.01115371      -0.00898924
Cl      12.83966531       2.24580914       0.97132642      -0.02007385       0.00649910       0.00261427
Cl      13.04610951       2.47443338       3.87508707      -0.00291055      -0.01252884       0.00573197
Cl      13.94236840       0.04745386       2.52486644       0.01178494      -0.00033383      -0.02342387
C       13.76571728       1.81650520       2.41806116      -0.00798896       0.00014282      -0.00519431
H       14.76115490       2.23179781       2.30650486      -0.01207194       0.01016142      -0.00494265
Cl       3.38878012      10.50866817       4.17368749       0.00228427      -0.01327297      -0.02445807
Cl       2.26641424       8.02283764       5.22586919      -0.00040963       0.00062712      -0.00730358
Cl       3.25739351       8.14017330       2.48785396       0.01475184      -0.02850310       0.00278601
C        3.46071152       8.74534520       4.14151099       0.00445738      -0.01137360      -0.00568860
H        4.44611572       8.45064471       4.48410547       0.00192305      -0.00516033       0.00337315
Cl      10.66353756       3.51104300      12.44264239      -0.00823162      -0.02061306       0.00898901
Cl       9.90822055       1.76340190      10.21983808      -0.03340992       0.01606923      -0.00271818
Cl       7.85035147       3.19838679      11.72596483      -0.00870648       0.01732989       0.02184798
C        9.52666714       3.22797208      11.11102869      -0.01739351       0.00793372       0.01283067
H        9.59583494       4.07927513      10.44383732      -0.01280266       0.00996235       0.01867290
Cl       3.30700630      10.55512369      -0.50888072      -0.01433218      -0.00400767       0.01681116
Cl       6.19965805      10.22804575      -0.55635631      -0.01112747      -0.00419834       0.01210624
Cl       5.02073118      12.51077206       0.82509097      -0.00939341      -0.00399184       0.01719975
C        4.82921901      10.80408876       0.37465246      -0.00943732      -0.00407825       0.01575501
H        4.75924779      10.23540051       1.29331329      -0.00914750      -0.00553527       0.01579154
Cl       0.39852858       2.42509743      15.45385714      -0.00018773      -0.00624508      -0.02577202
Cl       2.33026741       4.03146306      13.98880534       0.00068301       0.00096992      -0.00507363
Cl       3.09916088       1.37675611      14.95120800      -0.00581919       0.00021455      -0.03356706
C        1.82748694       2.39140043      14.30420521       0.00907189       0.00678851      -0.01827654
H        1.43301179       1.93588962      13.40011607       0.00844996       0.01984006      -0.01643255
Cl       8.53561850       7.93477294       9.83843410      -0.00287467      -0.00406539      -0.01202691
Cl      10.43270429       9.93467206      10.78774565      -0.00503293      -0.00757951      -0.00536509
Cl       9.47719533       7.84307461      12.60079534      -0.00565615      -0.01057901      -0.01155484
C        9.89644468       8.27449719      10.94061917      -0.00299059      -0.00852545      -0.01130390
H       10.71744549       7.63463560      10.64191510      -0.00068992      -0.00239527      -0.01494655
Cl       0.95495991       3.24005022      10.53881939       0.02121466       0.00479482      -0.00153159
Cl       3.77953361       2.65445983      11.03121259       0.01012991      -0.01790889       0.00083490
Cl       1.85971577       0.49274494      10.86869081      -0.00660098       0.00266501      -0.00777239
C        2.27506650       2.10098028      10.27188531       0.00722555      -0.00460424      -0.00374450
H        2.44894136       2.03629751       9.20385906       0.01030223      -0.00215752      -0.00260177
