138
Lattice="12.88235255953683 0.0 0.0 0.0 12.88235255953683 0.0 0.0 0.0 12.88235255953683" Properties=species:S:1:pos:R:3:forces:R:3 energy=-230597.859375 stress="-0.00037743314169347286 0.0002235912179457955 0.00019217599037801847 0.0002235912179457955 -0.00011055736831622198 -4.963968058291357e-05 0.00019217599037801847 -4.963968058291357e-05 -0.0003406792238820344" pbc="T T T"
Pd      14.53441613      12.98529739       0.09840474      -0.01107252       0.01317272      -0.01966578
Cl      12.29155937      12.90274168       5.89186610      -0.01073436       0.01784628       0.00953233
Cl       1.17535272      13.01539904       6.89915821      -0.00530966      -0.01586303       0.02519592
C        5.05753167       5.18539621       8.50523757      -0.00394919      -0.00815101       0.00134732
C        6.44914469       5.23023577       8.41171194       0.00507097      -0.01780811      -0.00385248
C        4.41193280       3.97250549       8.27091152       0.00665626      -0.02014761      -0.00668872
C        4.27002309       6.42460700       8.80433311      -0.00128618      -0.01365376       0.00434983
C        7.17494198       4.09631591       8.07010050      -0.00530621       0.00304576      -0.00436495
C        5.13381316       2.83878181       7.91752339      -0.00590786       0.00008548      -0.00694233
C        6.51776319       2.89897087       7.81061525       0.00656349      -0.01430963      -0.01339786
H        6.97032880       6.16193467       8.60720168      -0.00019663      -0.00872583       0.00143644
H        3.33358147       3.91607944       8.37416946      -0.00147604      -0.01400056      -0.00395622
H        3.27648510       6.18026924       9.17938832      -0.00650489      -0.01446772      -0.01015314
H        4.77291360       7.05665999       9.53684738      -0.00992243      -0.02306539       0.01761541
H        4.14392748       7.02021211       7.89655541       0.01008089      -0.00408350       0.00991783
H        8.25507815       4.14855581       8.00974135       0.00125445      -0.00579527      -0.00998268
H        4.61746325       1.90337203       7.73537403       0.00267411      -0.00984880      -0.01584346
H        7.08142148       2.01538167       7.54090772       0.00007294      -0.00190673      -0.01478074
C        5.46734361      10.69764610       7.33965136       0.01100408       0.01416908       0.01011387
C        6.71815455      10.97495682       6.78632388       0.00566173       0.01733912       0.00923787
C        4.34592641      11.31470188       6.78581849       0.00513634       0.01556172       0.00940858
C        5.33236929       9.77633172       8.51377380       0.00907201       0.01186171       0.00748214
C        6.84701275      11.85648617       5.72031761       0.00961290       0.01636788       0.01250798
C        4.46943524      12.18958784       5.71278205       0.00903356       0.01599715       0.01318060
C        5.72143184      12.46466516       5.17631523       0.00386885       0.01905788       0.01208366
H        7.59711748      10.48398301       7.19036982       0.00997891       0.01726653       0.00901126
H        3.36471796      11.09675681       7.19199843       0.00718443       0.01211521       0.00887160
H        4.33249577       9.34735780       8.56385672       0.00720057       0.01819819       0.01092714
H        6.05319565       8.95965987       8.46469189       0.00348321       0.00657913       0.00056462
H        5.50628570      10.31021092       9.45248828       0.01961893       0.00708815       0.00790602
H        7.82827378      12.06043656       5.30794956       0.00645174       0.02015918       0.01264561
H        3.58380390      12.65359030       5.29725075       0.00650783       0.01678417       0.01068833
H        5.81312965      13.13977443       4.33410869       0.00746653       0.02064905       0.01586465
C        1.21195699       8.14880447       5.08564366       0.00161524       0.00813784       0.00424278
C        1.65421727       7.21887672       6.02684972       0.00482908      -0.02212406      -0.00513047
C        0.71445048       7.67373305       3.87249000       0.00103135      -0.01876324      -0.00408997
C        1.28215005       9.61679994       5.37694545      -0.00576268      -0.00280952       0.00634976
C        1.58664049       5.85396740       5.77733498       0.01571133       0.02173576      -0.00086243
C        0.65137373       6.30896639       3.61381361       0.01007609       0.02415183      -0.00091593
C        1.07924577       5.39317179       4.56818729       0.01453168      -0.01416308      -0.01144972
H        2.03479438       7.57514243       6.97777890       0.00708174      -0.00319734       0.00334635
H        0.37015695       8.38269893       3.12776651      -0.00376450       0.00276762       0.00016434
H        0.58454651      10.18236788       4.76094235      -0.00260288      -0.00149424       0.00342612
H        1.06151541       9.82470550       6.42541659      -0.01564474      -0.00625765       0.00537592
H        2.28292359      10.00476405       5.17289049      -0.00516027       0.00081375       0.01684774
H        1.91887878       5.14950657       6.53026242       0.02073589      -0.00498567      -0.01009193
H        0.25832740       5.96236909       2.66492677       0.00868319       0.00044020      -0.00646187
H        1.01242351       4.32874760       4.37933507       0.02363152       0.00831901      -0.01193722
C        2.73132582      10.06695154       1.70541422      -0.00087857       0.01161924      -0.00794654
C        1.69888283      10.07837177       0.77484641      -0.00053617       0.01463759      -0.01277566
C        2.79538263      11.10165213       2.64833541      -0.00055948       0.00642926      -0.00279462
C        3.76126934       8.98123956       1.70237887      -0.01282415       0.00220940      -0.00730427
C        0.71573341      11.08198841       0.79102184       0.00356843       0.01677629      -0.00255649
C        1.82076494      12.08146627       2.71194035      -0.00295404       0.00070730       0.01083182
C        0.74147120      12.07576615       1.80690024       0.00101493       0.00675276       0.00405283
H        1.63980234       9.28708617       0.03640913      -0.01370682       0.01558294      -0.01315673
H        3.61283981      11.10870826       3.35959071      -0.00359442       0.00392477       0.00446810
H        4.24266626       8.88612976       2.67557418      -0.00878043       0.00539633      -0.00952446
H        3.32335698       8.01779952       1.43739572      -0.02346559       0.00362459       0.00667576
H        4.55038084       9.19660832       0.98007605      -0.02094722      -0.00662466      -0.01720457
H       -0.15286364      10.98614696       0.14850782       0.01420720       0.03443637      -0.01925680
H        1.86006277      12.83918159       3.48546951       0.00040127       0.00569864       0.00605524
H       -0.12120707      12.71016487       1.97385438       0.01532559       0.02729529      -0.00911925
C       10.26117619       8.31437214       9.64370295      -0.00729045       0.00290936       0.00686318
C       11.27780798       8.21778297       8.69279449      -0.00552972      -0.01238365      -0.00049222
C        9.73135473       7.13270953      10.16449490      -0.00267117      -0.00903843       0.00557588
C        9.73429017       9.65295376      10.07013948      -0.00303273      -0.00120157       0.00675152
C       11.74208938       6.98019153       8.26537119      -0.01451397       0.00757705       0.00526872
C       10.19594117       5.89023396       9.74563991      -0.01235649       0.00801526       0.01192088
C       11.20284186       5.81168783       8.79041897      -0.00797100      -0.01031351       0.00221858
H       11.70607218       9.12462850       8.27926511      -0.00759566      -0.00190231      -0.00092454
H        8.94357532       7.18954564      10.90740406      -0.00525384       0.00043848       0.01199282
H        9.32321688       9.62166869      11.07943182      -0.00432990      -0.00115600       0.00608872
H       10.51184417      10.41609498      10.04173162      -0.00073315      -0.00302643       0.00949696
H        8.93446101       9.99162235       9.40479227      -0.00064822       0.00192923       0.00588012
H       12.52044246       6.92683895       7.51599886      -0.01197627      -0.00570012      -0.00106984
H        9.76984795       4.98514057      10.16256105      -0.00787243      -0.00199719       0.00890668
H       11.56217166       4.84844474       8.44822438      -0.01452892      -0.00042932       0.00541256
C        7.80937930       8.03308939       1.52505331       0.00552692      -0.00643960      -0.01316784
C        7.21820699       9.03063854       0.75091242       0.01181381       0.01253412      -0.01206951
C        8.29689056       8.37443907       2.78706890      -0.00300135       0.00604822      -0.00620857
C        7.91928335       6.62849905       1.01137087       0.00395072      -0.00038949      -0.01358092
C        7.10238296      10.33114805       1.22619683       0.01736507      -0.00977249      -0.01883256
C        8.18613487       9.67333473       3.26650585       0.00255544      -0.01766578      -0.01120211
C        7.58159288      10.65374203       2.48872631       0.00835669       0.00725129      -0.00836058
H        6.82043477       8.77536839      -0.22574103       0.01906996       0.00541549      -0.02017909
H        8.75828552       7.61160652       3.40478896      -0.00850289      -0.00864745      -0.00502194
H        7.91829982       5.91140934       1.82955686      -0.01096763      -0.00239326      -0.01501203
H        7.08938098       6.38286829       0.34780073       0.01275042       0.00477576      -0.02566352
H        8.84612301       6.48011474       0.45106389       0.01104093      -0.00438312       0.00009926
H        6.61895929      11.08907841       0.62122592       0.02639679       0.00743645      -0.01767306
H        8.55594461       9.91478244       4.25516736      -0.00498156      -0.00610400      -0.00453800
H        7.46917795      11.65950083       2.86872076       0.01277164      -0.00565810      -0.01172195
C        7.39546199       0.84038983      10.83914424       0.00048968      -0.00628500       0.00561201
C        8.01335057       1.40024648      11.95883930       0.00959623      -0.00457212       0.00730693
C        8.20241255       0.39845109       9.79120941       0.01104455      -0.00271505       0.00619821
C        5.90152748       0.74622105      10.75655993       0.00438458      -0.00834833       0.00539734
C        9.39513882       1.52111601      12.03107070      -0.00560357      -0.00191978       0.00588891
C        9.58566900       0.52214022       9.85445531      -0.00384827      -0.00151119       0.00385888
C       10.18736108       1.08217761      10.97534067       0.00801608       0.00163588       0.00545126
H        7.40141313       1.74320772      12.78648386       0.00341063      -0.00588204       0.00940981
H        7.73772940      -0.04463001       8.91654442       0.00546871      -0.00448492       0.00339222
H        5.58911432       0.01117574      10.01356625       0.00524460       0.00301117      -0.00528671
H        5.46837731       0.47391706      11.72093430       0.00595047      -0.02504126       0.00091758
H        5.46957693       1.70634420      10.46253906       0.00237605      -0.00498596       0.02090993
H        9.85407024       1.94957407      12.91448286       0.00293010       0.00072490       0.00538884
H       10.19310117       0.17600337       9.02613906       0.00609471       0.00183792       0.00467441
H       11.26509179       1.17043569      11.03537475      -0.00045852       0.00429742       0.00385569
C        8.69551070       2.88439519       3.08608537      -0.00914541      -0.00498024      -0.00004289
C        9.75595655       3.78925737       3.03041139       0.00953772      -0.00209683       0.00065715
C        8.99285015       1.52865631       3.22243266       0.00863904      -0.00279072      -0.00517334
C        7.27267978       3.35059404       2.97941872      -0.00235230      -0.00097336       0.00686493
C       11.07277117       3.35202662       3.09682035      -0.01672564      -0.00003281      -0.00469358
C       10.30906621       1.08458456       3.29380348      -0.01651868      -0.00274822      -0.00935432
C       11.35453195       1.99915304       3.22911650       0.00732338      -0.00151954      -0.00775695
H        9.55148515       4.85005308       2.94378272      -0.00454224       0.00013016       0.00425376
H        8.17886677       0.81530783       3.27601188      -0.00478323      -0.00488754      -0.00398049
H        6.59244417       2.66884530       3.48934388      -0.00166291      -0.00518110       0.00489035
H        7.14388825       4.34253351       3.41300583      -0.00189117      -0.00474685       0.01374411
H        6.95880860       3.41094671       1.93284416      -0.00553889       0.00524995       0.00842708
H       11.87875389       4.07195413       3.06216355      -0.00004768      -0.00097570      -0.00383715
H       10.51532815       0.02535020       3.40282830      -0.00084614      -0.00307482      -0.01289236
H       12.38114822       1.66521618       3.30756195      -0.00692933      -0.00020211      -0.01063732
C        1.78142071       4.42526674      11.72577738      -0.01806173      -0.00514239       0.01406744
C        2.91012347       3.96531963      12.41055710      -0.01450965      -0.01885901       0.01502426
C        1.00652087       3.50195854      11.01922297      -0.00575978      -0.01107393       0.00115268
C        1.41392427       5.87963545      11.73837841      -0.01120683      -0.00820515       0.01275534
C        3.26052669       2.62364040      12.39390968      -0.01323721      -0.00039788      -0.00463182
C        1.35620219       2.15907569      10.97976655      -0.00369255       0.00628337      -0.01565187
C        2.48330022       1.70730205      11.67551132       0.00127631      -0.00739637      -0.01603657
H        3.52242808       4.67525088      12.95601528      -0.02522856      -0.01638951       0.03407890
H        0.12398221       3.84842438      10.49369828      -0.01405381      -0.00600718       0.00447254
H        0.34057848       6.01780422      11.60817772      -0.00888371       0.00059863      -0.00124342
H        1.72013806       6.35378085      12.67176565      -0.01202898      -0.00315288       0.01088402
H        1.90710953       6.42005771      10.92509160       0.00292067      -0.02468804       0.01144549
H        4.13871839       2.28599716      12.92947250      -0.00805965      -0.01394758      -0.00835761
H        0.76500459       1.45704498      10.40511576       0.00405475      -0.00046295      -0.02101232
H        2.85141692       0.67344226      11.51859710       0.00576621       0.00362480      -0.03066730
