147
Lattice="12.239002821136173 0.0 0.0 0.0 12.239002821136173 0.0 0.0 0.0 12.239002821136173" Properties=species:S:1:pos:R:3:forces:R:3 energy=-219983.0625 stress="0.000592724303714931 -0.0005797784542664886 0.00020537577074719593 -0.0005797784542664886 0.00045782802044413984 5.2554887588485144e-05 0.00020537577074719593 5.2554887588485144e-05 0.0009438928682357073" pbc="T T T"
Pd      11.04095100      13.56163729       0.24097145       0.00934474       0.00670183       0.00393486
F        5.77490599      12.61137400       7.38003720       0.00727952      -0.00255364      -0.00166667
F       11.37007840      12.95783400      10.58619295       0.01233658       0.01276115       0.00192419
O        8.25773949       7.25551370       0.74810233      -0.01664390      -0.00529158      -0.00583875
C        7.98384206       7.28507711       2.15332199       0.00056199      -0.00978127      -0.00262147
H        6.93961413       7.53600457       2.34572374       0.00332582      -0.00969636       0.01123592
H        8.61184704       8.00604041       2.68136313       0.00793755      -0.01234668      -0.00813182
H        8.19391038       6.29193017       2.54165417       0.00364045      -0.01173195      -0.00915281
H        7.93928844       8.08588310       0.38494444      -0.01997676      -0.00244990       0.00081789
O        6.73045273       5.34369525       6.77272018      -0.00555611       0.00162464      -0.01195103
C        7.95749266       4.65974502       6.59019452      -0.00338137       0.00476426      -0.00949851
H        7.82385896       3.57567870       6.53660219      -0.00081243       0.00453001      -0.01333472
H        8.66600796       4.88618417       7.39703929      -0.00703305       0.00370699      -0.00592396
H        8.39204854       5.01064676       5.65649398      -0.00046231       0.00877592      -0.00657055
H        6.24552537       4.88809516       7.48592981      -0.00167045       0.00464938      -0.00707586
O        5.10620221       4.27626297       8.71574049       0.01604465       0.00786965       0.00526452
C        3.90500980       4.82877147       8.19317862       0.00938356       0.00646742       0.01853833
H        4.09816028       5.75889197       7.64613234       0.00128460       0.01028761       0.02215751
H        3.16409861       5.02514391       8.97114168       0.01503846      -0.00090867       0.02572113
H        3.49679786       4.10124503       7.49231486       0.00624806       0.00885835       0.01795143
H        5.44382573       4.83222035       9.43636913       0.02029374       0.00388113       0.00561664
O        9.33074994      10.88260362       7.88720364       0.00506330      -0.00329930      -0.00207999
C       10.71562968      10.91916195       8.18646017       0.00492722       0.01009951      -0.00326143
H       10.90504413      11.02244671       9.25860778       0.00441965       0.02463513      -0.00476778
H       11.21985895      11.74217426       7.67926965      -0.00107139       0.00707155      -0.01390749
H       11.14867285       9.98137212       7.82705848       0.01213285       0.00913888       0.00819242
H        8.84271870      11.64878859       8.29658398      -0.00276603      -0.00958206       0.00155041
O        4.85503780       7.14535407       3.89884352      -0.00621586      -0.00729740       0.00225977
C        5.55999794       7.97349816       4.83102319      -0.00601897      -0.00467293      -0.00260631
H        5.90213249       8.85363687       4.28854289      -0.02048019       0.00024834      -0.00423887
H        6.41971927       7.45446598       5.25153115       0.00314879       0.00413874      -0.01151486
H        4.89907685       8.29490038       5.64056466      -0.00124103      -0.01242179       0.00482693
H        4.86307347       6.23998337       4.22163219       0.00522142      -0.01161093       0.00242147
O        1.70805469       2.57659028       3.99571591       0.00748134      -0.00147116       0.00789893
C        2.66502014       2.21556693       3.01936599      -0.00577962      -0.00299075      -0.00433224
H        2.25335270       2.33470281       2.01182359      -0.01595655       0.00546806       0.00112158
H        2.98420047       1.17759499       3.14301654      -0.01209398      -0.00600484      -0.01311951
H        3.55239330       2.85313526       3.09426827      -0.00049442      -0.00963169      -0.01091842
H        1.62999131       1.81630910       4.60101237       0.01254414      -0.00199842       0.00756921
O        1.73977834      12.49348490       5.39429271       0.02231556      -0.00870110      -0.00300467
C        2.80609188      11.93512035       6.15364778       0.01028681      -0.00285317       0.01785138
H        3.38778424      11.22262922       5.56022207       0.01118743      -0.01728350       0.03662357
H        2.42921094      11.44219097       7.05356683      -0.00205117       0.01635611       0.02252558
H        3.48022379      12.73071563       6.45957131       0.01323125      -0.00259432       0.00951292
H        1.16641715      11.76682086       5.10775437       0.01600546      -0.00933810       0.00580252
O        8.91499670       7.61913567       5.50455787       0.00122213       0.00681248      -0.00097659
C       10.25315968       7.19144975       5.53150274       0.00161016       0.00725299      -0.00142526
H       10.45291199       6.49843558       6.35866167       0.00204331       0.00839823      -0.00067359
H       10.95808205       8.03034380       5.60755413       0.00154302       0.00741261      -0.00306970
H       10.45953716       6.65883622       4.59998886       0.00120025       0.00574844      -0.00084230
H        8.68941914       7.94703292       6.40238748       0.00165969       0.00393657       0.00008406
O       10.87294412       7.04888382      10.46538813      -0.00247577       0.01102155      -0.00865290
C       10.11598141       5.90411620      10.02647629      -0.00264265       0.00820992      -0.00173477
H       10.63271113       5.40682990       9.20320045      -0.00439739       0.00698222      -0.00221559
H        9.12198218       6.19974080       9.69531269      -0.00421548       0.00541636       0.00224417
H       10.03558072       5.21067734      10.86271214       0.00284462       0.01076783       0.00119755
H       10.44970681       7.83234119      10.10040771      -0.00679469       0.01011986      -0.00948140
O        6.68007066       1.55837111       5.51183793      -0.00123155      -0.00391366      -0.00694608
C        5.67681907       2.51690295       5.25398955      -0.00248885      -0.00515604      -0.00780946
H        6.00302129       3.18271507       4.45138031      -0.00405256      -0.00683132      -0.00984013
H        5.48309290       3.12139205       6.14463595      -0.00173240      -0.00288269      -0.00913626
H        4.73052003       2.05123914       4.95506572      -0.00257766      -0.00677124      -0.00519699
H        6.33024269       0.99596351       6.33301128       0.00214024      -0.00236253      -0.00465927
O        1.28146263       7.01496232       9.05398483      -0.01000501      -0.01165491       0.01866341
C        1.11611642       6.93549625       7.65263210      -0.00885100      -0.00182822       0.01743448
H        0.50451215       7.75103177       7.25349316      -0.00607106       0.00298223       0.02295447
H        0.67471659       5.98295984       7.33415066      -0.01274814       0.00201645       0.01139009
H        2.10652034       7.00842369       7.20460126      -0.00870404      -0.00290671       0.01799685
H        0.41208667       7.03722566       9.47804012      -0.00924884      -0.00225917       0.01616184
O        6.99768707      -0.01147814       3.52303164      -0.00264543      -0.00214191      -0.00767449
C        5.65593437      -0.22554951       3.12288486      -0.00100362      -0.01403166      -0.00615580
H        5.60850681      -1.11614534       2.49454797       0.00547355      -0.01758999      -0.00166455
H        5.26465249       0.62450324       2.55192839      -0.00745150      -0.02026761      -0.01062590
H        5.01413128      -0.37652681       3.99557454      -0.00030062      -0.01446287      -0.00551614
H        6.95515640       0.62592908       4.30970593      -0.00526643      -0.00242701      -0.00699927
O       11.49846065       6.96085701       1.11211810       0.02555665       0.01401147      -0.03257096
C       11.31949817       8.24547918       1.69181478       0.00532195       0.00482559      -0.01865055
H       10.37009022       8.68742070       1.39136175       0.00130633      -0.00374988      -0.02048930
H       12.13614712       8.92394681       1.41697425      -0.00235146       0.01845448      -0.00556429
H       11.31399881       8.12262565       2.77545105      -0.00006328      -0.00751973      -0.02060589
H       11.21163442       7.00534314       0.18571112       0.03019290       0.01905179      -0.03226326
O        5.40987708       4.89979776       2.05598212      -0.00655943       0.00466591       0.00280052
C        4.74837567       4.50662642       0.85680246      -0.00708167      -0.00047299       0.00437701
H        5.40528130       4.57858073      -0.01367199      -0.00713712      -0.00299675       0.00404075
H        3.84535876       5.09278860       0.67339997      -0.00712731      -0.00088751       0.00312172
H        4.45492564       3.46708769       0.97779161      -0.00675008      -0.00001398       0.00791007
H        5.56164758       5.84900772       2.02371631      -0.01614602       0.00539474       0.00326771
O       10.54278576       0.70268491       3.30185343       0.01271653      -0.01119557      -0.00047708
C       11.02564653       1.69008191       2.43186676       0.00696950      -0.00351933       0.00501531
H       11.34807227       2.60840116       2.92674118       0.00010809      -0.00405833       0.01080689
H       10.22388030       2.01296719       1.66225519       0.00541365      -0.00389832       0.00652575
H       11.94130241       1.28658066       1.90728615       0.01028681       0.00603173       0.00339478
H        9.61518683       0.87477594       3.49226792       0.00791204      -0.02473693      -0.01110759
O        1.90371758       6.63933834       1.93486691       0.01684894      -0.00254679       0.00254989
C        1.97671059       5.48786405       2.76094017      -0.01312132      -0.00325069       0.00285199
H        1.57346907       4.60215073       2.26762408      -0.01932915       0.00268909      -0.00271681
H        1.44684676       5.61892198       3.71177637      -0.02415952       0.00563675      -0.00456372
H        3.02769319       5.30332121       2.97516228      -0.01941913      -0.01884183       0.01774452
H        1.00965779       6.67349742       1.55314384       0.02307873       0.01064375      -0.01154757
O        7.74094082       0.44744935       8.86878982      -0.00731994      -0.02700591       0.01636382
C        7.84768636       1.66823046       9.56183307       0.00650950      -0.01960337       0.00205109
H        7.22736089       1.67160390      10.46699210       0.00797993      -0.00374530       0.00286233
H        7.53940717       2.51493998       8.93690262       0.01332064      -0.02454379      -0.00737104
H        8.88708391       1.81208686       9.86814117       0.00823182      -0.02628555      -0.00105929
H        6.89755479       0.42928941       8.29997751      -0.00113499      -0.01759838       0.00674184
O        4.71387421       8.60427345       1.55440855      -0.00512224      -0.02528343      -0.00731230
C        3.66116428       8.86080713       0.64141703      -0.00216335      -0.00024137      -0.00334918
H        2.75313754       9.19659520       1.14975889       0.00936249       0.02361710       0.00036189
H        3.40115443       7.97734035       0.05330101      -0.02609610       0.00665104      -0.00173247
H        3.99828289       9.65154296      -0.02862404       0.01439540      -0.00934356      -0.00547759
H        4.40137954       8.01365102       2.25690138      -0.01534845      -0.01772441      -0.00676234
O        1.85799731       3.47511907      11.79576351      -0.00386465      -0.00247931       0.00045057
C        0.52782778       3.94162274      11.69147046       0.00001860       0.00982225       0.00050142
H       -0.20708018       3.13095598      11.91966626      -0.00632452       0.01689318       0.00408908
H        0.30993513       4.34098537      10.69577925       0.00290503       0.00860237      -0.00083318
H        0.40228877       4.73526647      12.42585270       0.00853778       0.01340923      -0.00223970
H        1.97157150       2.77797044      11.14281506      -0.01214816      -0.00686082       0.00445681
O        8.27143859       8.55315977       8.02460337       0.00609672      -0.00266662       0.00319418
C        6.87975400       8.83369520       7.91439571       0.00733107       0.00192278      -0.00254440
H        6.66662498       9.44316911       7.03224191       0.01333272       0.00002837      -0.00548309
H        6.51444400       9.38792187       8.78376056       0.00589530       0.00570035      -0.00563550
H        6.35515352       7.88207236       7.83471085       0.00413799       0.00366542      -0.00243880
H        8.71205121       9.45485843       8.01269790       0.00896423      -0.00386041       0.00152068
O        0.65053592       0.88015467       8.56105607       0.01878232      -0.00881976       0.00450838
C        1.65695731       1.82964669       8.73603719       0.00815463       0.00367981      -0.00131571
H        2.41937832       1.51253897       9.46600472       0.01453051       0.01463060      -0.00338614
H        1.26516732       2.81039501       9.04488778      -0.00286725      -0.00085634      -0.00179173
H        2.16932224       1.96907702       7.78343151       0.00315562       0.00766564      -0.00357372
H        0.08098129       0.84379504       9.37154286       0.01474965      -0.00314271       0.00203072
O        0.64038669      10.04930749       4.50232532       0.00841951      -0.00449695       0.03922623
C        1.68306440       9.08821400       4.33459298      -0.00850339       0.00371537      -0.00531164
H        2.39647400       9.38186807       3.56015570      -0.00514933       0.01704872       0.00873077
H        1.29202500       8.10030751       4.08423873      -0.00178531       0.00847903      -0.01413294
H        2.20728634       9.03473703       5.28603141      -0.00629962      -0.00959935       0.00319999
H        0.15943385      10.14291551       3.67645088      -0.02030666       0.01116628      -0.00450709
O        6.55860222       5.93479816      10.48372374       0.00761974       0.00738984       0.01763821
C        6.03872953       7.22119297      10.81244917      -0.01329914       0.00291330      -0.00202312
H        6.78211955       7.99840682      10.61649991      -0.02225533       0.01159865      -0.00164869
H        5.71743568       7.27380288      11.85350139      -0.02644335       0.00871961      -0.00650239
H        5.18247640       7.39940572      10.16500476      -0.00784847      -0.01547444      -0.01377966
H        7.21431718       5.70993301      11.15171583       0.00101388       0.02336885       0.03015941
O        8.25595312      12.30086024       1.18398828       0.00983071       0.01522589       0.00123879
C        8.94333082      11.08263739       1.10682448      -0.00887814       0.00530124      -0.00638956
H        8.31853346      10.28627816       0.67055460      -0.02424109       0.01540998      -0.00213857
H        9.29212825      10.74600722       2.08840659      -0.00541720      -0.00126918      -0.00985980
H        9.81988491      11.21947707       0.46227001      -0.01315683      -0.00574340      -0.01373409
H        7.80597214      12.33671985       2.05875259       0.00041899       0.01119030      -0.00347430
