149
Lattice="12.088368044405598 0.0 0.0 0.0 12.088368044405598 0.0 0.0 0.0 12.088368044405598" Properties=species:S:1:pos:R:3:forces:R:3 energy=-213637.53125 stress="-0.0011263096239417791 3.704990194819402e-05 6.851872603874654e-05 3.704990194819402e-05 -0.0002430840249871835 -0.000639976147795096 6.851872603874654e-05 -0.000639976147795096 0.0008039760286919773" pbc="T T T"
Pd      11.50228844      10.93896848       0.09947127      -0.00633194      -0.00405161      -0.00871127
O       11.08486351       9.13991410      -0.58542186      -0.01222676       0.00148686      -0.00695711
O        9.05555955       8.81200738      -1.52766505      -0.00980777      -0.00808179      -0.00328654
O        9.71899307      10.82496368      -0.74383739      -0.00336185      -0.01052386      -0.00486466
C        9.88745052       9.52569725      -1.00029731       0.01415977       0.01022160       0.00908846
O        8.55392041      11.72882235       1.65641057      -0.00009549      -0.00597001       0.00335994
C        7.18641628      11.33652216       1.63080480       0.00173604      -0.00376219       0.00897122
C        7.03654644       9.82824608       1.56504151      -0.00288476      -0.00373268       0.00763480
H        6.73461102      11.74193672       2.53886869       0.00687787      -0.00456324       0.01260561
H        6.68587799      11.80438323       0.77239119      -0.00363478      -0.00168535       0.01318562
H        5.98351012       9.54657848       1.52785671      -0.00356932      -0.00095756       0.01405744
H        7.51395281       9.43275946       0.66544144      -0.00946258      -0.00296368       0.00400247
H        7.49845659       9.36057148       2.43620154       0.00152855      -0.00625762       0.00363493
H        8.93940024      11.38600116       0.83461367      -0.00238599      -0.00693972      -0.00225313
O        2.65055898       8.01608502       5.14679406       0.00204757      -0.00262350      -0.00459057
C        3.31851485       9.27105624       5.26442661      -0.00194949      -0.00046358      -0.00390305
C        4.79398088       9.17696730       4.93325629      -0.00111705       0.00467679      -0.00221153
H        2.82840086      10.02502857       4.63461595      -0.00395702      -0.00267494      -0.00476387
H        3.17745418       9.57385344       6.30302459      -0.00405183      -0.00035744      -0.00422344
H        5.28090273      10.14949762       5.03190637      -0.00454100       0.00627264      -0.00125390
H        5.29116343       8.47163831       5.60038565       0.00043998       0.00563934      -0.00240302
H        4.94084608       8.83817773       3.90315071       0.00073702       0.00597001      -0.00233607
H        2.66657929       7.75992547       4.22046782       0.00596076      -0.00394212      -0.00418246
O        7.21291636       1.99552157       7.26130976      -0.00028884      -0.00211318      -0.00956362
C        6.87984695       1.28344248       8.46748548      -0.00576323       0.00524421      -0.00698961
C        5.38452344       1.29096748       8.63346126      -0.00608796       0.00960315      -0.01148061
H        7.26449316       0.26021184       8.40587804      -0.00758484       0.00428295      -0.00182218
H        7.35372799       1.78022544       9.31754168      -0.00700274       0.00786066      -0.00797266
H        5.11482155       0.81262402       9.57446524      -0.01042316       0.00782850      -0.01378240
H        5.01441171       2.31591788       8.67061035      -0.00375501       0.01039185      -0.01032776
H        4.89430082       0.75875361       7.81557148      -0.00482149       0.01326760      -0.01441509
H        8.18601523       1.91608418       7.15882983       0.00064944      -0.00220497      -0.00567833
O        9.68373116       6.09531064       2.67836638       0.00243232       0.00001442       0.00845414
C       10.72175942       6.93437319       2.17058004      -0.00436085       0.00373611       0.00035966
C       10.94521990       8.16875281       3.01744303      -0.00182457       0.00400364      -0.00107959
H       11.65487687       6.35897331       2.08437071      -0.00332037       0.00683665      -0.00725484
H       10.41509268       7.21167495       1.16262265      -0.01315692       0.00273551       0.00286576
H       11.74584477       8.78092672       2.59506816      -0.00638640       0.00608020      -0.00610692
H       10.04245652       8.77869278       3.06009097      -0.00288866       0.00181738       0.00539434
H       11.23551057       7.90109703       4.03699132       0.00568534       0.00439879      -0.00305246
H        9.86514315       5.94395139       3.61143154       0.00898093       0.00267852       0.00730357
O       11.57819013       0.86129488       0.67597356      -0.00441062       0.00065994      -0.00733328
C       11.35431139       1.19896526       2.08671420       0.00324872      -0.00166973      -0.00684732
C       11.64378965       2.66214819       2.30824474       0.00519318      -0.00216827      -0.00672706
H       10.33303739       0.91978100       2.34646258       0.00447130      -0.00191856      -0.00142814
H       12.04975062       0.56107083       2.63067649       0.00587511      -0.00271398      -0.01107150
H       11.46483720       2.91028602       3.35593750       0.01160895      -0.00311932      -0.00563079
H       12.67940301       2.89918757       2.06053169       0.00381869      -0.00256157      -0.01249546
H       10.98454878       3.29554959       1.71039805       0.00230315      -0.00116070      -0.00232428
H       10.91852457       1.33537318       0.15223609      -0.00948960      -0.00280017      -0.00369751
O        6.65210901       1.73609523       4.56631792       0.00031304       0.00277698      -0.01106307
C        7.89855289       2.28599172       4.15147729       0.00049981       0.00254005      -0.01100814
C        7.75619436       2.80798599       2.74138748       0.00064029       0.00114031      -0.01136410
H        8.19601781       3.09679993       4.83120899       0.00048531       0.00320977      -0.01182431
H        8.68590188       1.52181481       4.19744211       0.00015253       0.00246674      -0.01011024
H        8.65179355       3.35649424       2.44489689       0.00312354      -0.00417236      -0.01338842
H        7.59507541       1.99417998       2.03584575      -0.00471706       0.00073862      -0.00957981
H        6.91529315       3.49967977       2.67639438       0.00433867       0.00555524      -0.01169527
H        6.71970346       1.58187060       5.52469399       0.00065546       0.00041129      -0.01177960
O        1.04729365       3.92499103       8.97513360      -0.00157149      -0.00051668      -0.00220668
C        2.11035849       3.65783065       9.88955324      -0.00274144       0.00257859       0.00008972
C        2.33396769       2.17489469      10.10115709      -0.00151145       0.00350285       0.00420488
H        3.03018226       4.14512105       9.55272416      -0.00302723       0.00303771       0.00049393
H        1.81478019       4.13326475      10.82725408      -0.00444703       0.00507885      -0.00179395
H        3.17877184       2.00946462      10.77156970      -0.00221863       0.00573317       0.00583571
H        1.45068568       1.71310840      10.54243100      -0.00181685       0.00414674       0.00415725
H        2.54937564       1.67653342       9.15295647      -0.00040820       0.00135535       0.00559445
H        1.34841744       3.68088007       8.09578187      -0.00091296      -0.00596258      -0.00058120
O        3.62220766       2.32674853       1.31462964       0.02016580      -0.00613341      -0.00016636
C        3.71066337       2.62029979       2.71377618       0.00722199      -0.00687030       0.00041312
C        3.67240107       1.37421560       3.57249863      -0.00151153      -0.00750470      -0.00124577
H        4.62056630       3.19036859       2.91568495       0.00550890      -0.00793673       0.00983182
H        2.85950792       3.26444916       2.95038681       0.00555587      -0.00656781      -0.00624657
H        3.72670419       1.64683716       4.62836315      -0.01356797      -0.00798182      -0.00066839
H        2.74677731       0.81916376       3.40418356       0.00069672      -0.00762308      -0.01144501
H        4.52732130       0.73406119       3.35978740       0.00062917      -0.00715368       0.00710567
H        4.51719017       2.27103214       0.95779785       0.02224284       0.00905542       0.00296824
O        6.35766971       4.62059859       6.49106407       0.01112452      -0.01584345       0.00711724
C        5.68624017       4.99937960       5.28422160       0.00817354      -0.01856270       0.00882709
C        6.59691792       5.82628135       4.40055188      -0.00366038      -0.00433820       0.01162124
H        5.35890598       4.09995916       4.75905484       0.01966706      -0.02007407       0.00584219
H        4.79703299       5.58077719       5.55420242       0.00265819      -0.03070548       0.01405224
H        6.09137115       6.08474413       3.46609416      -0.01213744       0.00299679       0.01916104
H        6.88675120       6.75563384       4.89110032      -0.00652303      -0.00831687       0.01927365
H        7.49998409       5.27642769       4.14022034      -0.00250266       0.00589308      -0.00231562
H        6.37764431       3.65617513       6.59184393       0.02796591      -0.01644321       0.00520587
O        9.84608546       1.40030002       7.08324939      -0.00423328      -0.00104856      -0.00292187
C       10.79362242       1.97788126       8.00095569      -0.00418206      -0.00008447      -0.00292516
C       10.66420486       1.40455740       9.39252163      -0.00308695      -0.00075720      -0.00369143
H       11.80469081       1.82047308       7.61165070      -0.00452888       0.00076149      -0.00407256
H       10.59226061       3.04808395       7.99609956      -0.00533821      -0.00033137      -0.00274027
H       11.40087704       1.88815622      10.03695676      -0.00194865      -0.00172272      -0.00409634
H        9.66880584       1.59131102       9.79472824      -0.00244173      -0.00009804      -0.00203473
H       10.85455113       0.32842295       9.40441210      -0.00415440      -0.00093719      -0.00430404
H        9.87697678       0.44247410       7.17953168      -0.00638744      -0.00070667       0.00030129
O        8.52097789       3.94602785      10.19671327      -0.00259772      -0.00349909       0.00659263
C        9.16961717       4.68891744      11.23186497      -0.00059408       0.00154933       0.00096643
C       10.55561511       5.14743321      10.83548252      -0.00045228      -0.00234543      -0.00247398
H        8.55666173       5.55006626      11.52773220       0.00051120       0.00472480      -0.00427650
H        9.20916013       4.01771525      12.09454533      -0.00061864       0.00778615       0.00545138
H       11.06000696       5.60712867      11.68716202      -0.00070437       0.00524554      -0.00679611
H       11.15816121       4.31396532      10.47575828      -0.00042905      -0.00556800       0.00523917
H       10.50812011       5.89343976      10.04131612       0.00036930      -0.00987852      -0.00959197
H        8.56795982       4.45680116       9.35748976      -0.00986382      -0.00330727       0.00612082
O        8.70918838       5.29652651       7.75257735      -0.01605505       0.00247294       0.02156290
C        8.40653659       6.70304481       7.78525272       0.00511117       0.00427777       0.01569331
C        9.18688653       7.49357745       6.75383120       0.01369607      -0.01448330       0.01010180
H        7.33383076       6.83093635       7.62455260       0.00782847       0.02146432       0.01748779
H        8.63786231       7.06885284       8.78631614       0.01249167       0.00311387       0.01481366
H        8.84293578       8.52929656       6.76931553       0.04020803      -0.00737040       0.01182840
H       10.25600930       7.47709770       6.96785849       0.01322469      -0.04421936       0.00142872
H        9.02622309       7.09313148       5.75071539      -0.00458957      -0.00739709       0.01119964
H        8.01690902       4.91189959       7.18387029      -0.01947677       0.01010858       0.01814020
O        4.37781857       7.53766615       0.73857644      -0.01218861      -0.00334608      -0.00565195
C        3.06709230       7.34233762       1.24992822      -0.00835748      -0.00214294       0.00560249
C        2.89732636       6.01592302       1.95904195      -0.00289782      -0.00105369       0.00864935
H        2.79470767       8.17296382       1.92320756      -0.00219165      -0.00097370       0.00629964
H        2.40714387       7.39226631       0.37904565      -0.01516972      -0.00310322       0.01109791
H        1.86779369       5.89279816       2.30219602      -0.00028630      -0.00031085       0.01662409
H        3.14326134       5.18843155       1.29396353      -0.00825804      -0.00193456       0.00788012
H        3.55223462       5.95394651       2.83347384       0.00352347      -0.00049632       0.00369950
H        5.00569254       7.43902005       1.46212565      -0.00645040      -0.00166038      -0.01091644
O        7.34164027       9.77113698       8.50479503       0.00928777       0.00431877       0.00003812
C        5.95371002       9.84990064       8.77240038       0.00696439       0.01214036       0.00495218
C        5.34517805       8.52623206       9.18928265       0.00413568       0.01443297       0.00616559
H        5.74749997      10.60233270       9.54635181       0.01734720       0.01104885       0.00786263
H        5.49008668      10.20737559       7.84835304       0.00472756       0.01605308       0.00872466
H        4.26456111       8.62059344       9.32370861       0.00629869       0.02114509       0.01797792
H        5.52756337       7.75628363       8.43895817      -0.00754098       0.01525521       0.00294170
H        5.77122321       8.18850752      10.13448951       0.00926372       0.00872770       0.00179335
H        7.81318362       9.47851655       9.30512108       0.00592273       0.00289882      -0.00916358
O        1.31251922      10.60606640       0.88346635      -0.00066641       0.00295705      -0.00619859
C        2.37335217      11.50604565       0.42248380      -0.00059818      -0.00112849      -0.01053399
C        3.71770897      10.95053874       0.79413634      -0.00167874       0.00071137      -0.00441442
H        2.26637852      11.63372770      -0.65624583       0.00117552      -0.00826001      -0.01171678
H        2.17702994      12.45839388       0.90727404      -0.00053364       0.00231382      -0.01703756
H        4.48936751      11.65875367       0.49314043      -0.00108877      -0.00143808      -0.00694895
H        3.79958445      10.81146863       1.87335951      -0.00436936       0.00785094      -0.00343606
H        3.92111502       9.99911701       0.29706503      -0.00149883      -0.00257210       0.00212440
H        1.55817005       9.70637504       0.63274535      -0.00175557       0.00115365      -0.00086465
O        6.06912178       3.13047027      11.40154270      -0.00526357       0.00447178       0.00516844
C        5.37829823       4.36735052      11.54520050      -0.00190192       0.00706005      -0.00127140
C        5.47445406       5.26368888      10.33002206       0.00268357       0.00197107      -0.00467592
H        4.33721302       4.10520711      11.74242428      -0.00291991       0.01070118      -0.00199516
H        5.74310820       4.90637176      12.43213170      -0.00175983       0.00955218      -0.00294018
H        4.78517210       6.10053197      10.44007962       0.00515372       0.00443520      -0.00889749
H        6.47863369       5.67089452      10.21022568       0.00416833      -0.00159942      -0.00477187
H        5.22794935       4.71709060       9.41845015       0.00234757      -0.00069785      -0.00287525
H        6.92553209       3.32819345      10.97584887      -0.00273694       0.00053148       0.00849590
