141
Lattice="12.136517974261464 0.0 0.0 0.0 12.136517974261464 0.0 0.0 0.0 12.136517974261464" Properties=species:S:1:pos:R:3:forces:R:3 energy=-611783.0 stress="-0.0007000806508585811 0.000423676916398108 -0.0002560413413448259 0.000423676916398108 -0.0016126098344102502 -0.0004673180228564888 -0.0002560413413448259 -0.0004673180228564888 -0.0019616123754531145" pbc="T T T"
Pd      11.54726313      11.57183290       0.49899932      -0.00239506       0.00315290       0.00416431
I        5.03213484      10.97284879      11.28299396      -0.03708342      -0.00246735      -0.00069641
O        5.09997793      11.87442579       9.74059995      -0.01284700      -0.01292139       0.00177372
O        3.32624970      10.73877316      11.77586272      -0.01843953       0.03359072       0.00565852
O        5.80370879       9.36322868      11.10452608      -0.04756981      -0.00376034       0.01371751
O        5.99077502      11.90473189      12.46545329      -0.00985265       0.00547826       0.00069010
I        4.83592479      11.23952861       4.06061424      -0.01587347      -0.00349143       0.00381922
O        4.61481643      12.76865256       4.96206597      -0.00947024      -0.00169742       0.00088191
O        4.23557340       9.85837890       5.03216935      -0.00214964       0.00128824       0.00489408
O        3.83382034      11.27725637       2.58106739      -0.00376055      -0.00702689       0.00849432
O        6.55905695      10.99100032       3.65072698      -0.00340068      -0.00039542       0.00507678
O        3.54138857       6.47929749       7.18095568       0.00314179      -0.00337542      -0.00376409
C        2.99223697       6.51889519       4.89464417       0.00511134       0.01953122      -0.00295758
C        1.70567048       6.55206929       5.71537147       0.00409919       0.00713453      -0.00485316
C        3.98487075       5.98211075       5.91133690       0.00494696       0.01079360      -0.00818425
C        2.24670149       7.07196056       7.03371759       0.00109410      -0.00699083       0.00151798
H        2.92999541       5.90086141       4.00264764       0.00793732       0.02965397      -0.00991692
H        3.28307940       7.53085448       4.60877614       0.00284152       0.02313542       0.00918431
H        0.94699838       7.21012998       5.30062868       0.00351509       0.01061574       0.00150485
H        1.28714270       5.55085192       5.83583174       0.00595265       0.00539577      -0.01690637
H        3.97633661       4.88320315       5.94468371       0.00648198       0.01078475      -0.01994474
H        5.00537640       6.32749853       5.73404624       0.00454313       0.01377699      -0.00387844
H        2.34883622       8.16441341       7.00507668      -0.00311084      -0.00687551       0.01477438
H        1.64705875       6.79349765       7.90354970       0.00089008      -0.01947048      -0.00298733
O        4.56125579       3.30031276       1.95596416      -0.00439668       0.00710997       0.00406535
C        2.85184095       1.81542309       1.29788754      -0.00007349       0.00220934       0.00465140
C        2.56657324       2.27256857       2.72817000      -0.00292498       0.00438809       0.00326368
C        4.34171660       2.08484507       1.21225504      -0.00083899       0.00574014       0.00621285
C        3.47882653       3.48546601       2.86563608      -0.00680882       0.00690672       0.00174764
H        2.63474758       0.76312032       1.11916819       0.00221257       0.00241145       0.00492705
H        2.31242223       2.42331086       0.56697552       0.00038476       0.00040072       0.00243071
H        1.52306391       2.52600191       2.91840272      -0.00350776       0.00301906       0.00201268
H        2.87881300       1.50268499       3.43442685      -0.00217757       0.00641271       0.00504300
H        4.90877790       1.26931354       1.65998707       0.00075987       0.00766152       0.00880480
H        4.70256387       2.23855929       0.19525255       0.00050025       0.00427508       0.00677168
H        2.95397283       4.40996205       2.59073797      -0.00927016       0.00394017      -0.00204618
H        3.87506526       3.59678186       3.87977790      -0.00863907       0.01105412       0.00174123
O        0.57894818       9.35709765       4.46656215      -0.00605723       0.00045004      -0.01542616
C        0.55834521      11.38613251       3.31741394      -0.00562206       0.00353354      -0.00958529
C        0.91318299      10.30114091       2.29095662      -0.00979340       0.00564626      -0.01301718
C        0.94690030      10.72356603       4.63472017      -0.00728418      -0.00009388      -0.01062220
C        0.88068592       8.99519197       3.12400871       0.00741820       0.00590822      -0.01259840
H        1.10120914      12.31143642       3.14470446      -0.00155210       0.00114334      -0.00897212
H       -0.51338697      11.58830387       3.32459659      -0.00451046       0.00780301      -0.00866797
H        0.17092354      10.16773482       1.45556765      -0.01997451      -0.00392336      -0.00242228
H        1.89498382      10.46584475       1.84813327      -0.01611459       0.00977023      -0.02492999
H        2.02050099      10.80297067       4.83052313      -0.00856298       0.00043885      -0.00792489
H        0.39651792      11.10780645       5.49506596      -0.00977868      -0.00373007      -0.01064098
H        0.10497021       8.30024265       2.80106697       0.02207083      -0.00817212      -0.01672972
H        1.85344489       8.49436328       3.07263160       0.01620775       0.02387099      -0.00692021
O        7.49724920       8.23285579       7.14586691       0.01292437      -0.00354540       0.00787342
C        6.32694716      10.25709462       7.42305703       0.01392832      -0.00221056      -0.00066617
C        5.42826920       9.10723530       7.86191768       0.01107603       0.00027019      -0.00046443
C        7.30049558       9.51710344       6.52439858       0.01512599      -0.00556850       0.00437689
C        6.45733002       8.02438969       8.11671602       0.00850886      -0.00064725       0.00404502
H        5.79046993      11.06178624       6.92462376       0.01703002      -0.00243194      -0.00469151
H        6.83933922      10.67719174       8.29043604       0.01199026      -0.00075476      -0.00028172
H        4.83424424       9.32342299       8.74475866       0.00961754       0.00318281      -0.00322288
H        4.76722297       8.83258970       7.04023031       0.01286536      -0.00034817      -0.00201210
H        6.88419281       9.36904577       5.52391411       0.01676455      -0.00728355       0.00377065
H        8.27438364      10.00130388       6.41711310       0.01561433      -0.00704908       0.00487663
H        6.87885061       8.12696703       9.12308746       0.00543201      -0.00062951       0.00527889
H        6.06458360       7.01237543       7.99285513       0.00759044      -0.00019085       0.00386940
O        3.36090616       3.37993415      10.40521753      -0.00728464       0.00413239      -0.00228685
C        5.17934196       4.38558422       9.23573918      -0.00011915      -0.00297230       0.00385064
C        4.39099951       5.44548680      10.00588194       0.00282321       0.00052780       0.00142047
C        4.25674768       3.16493302       9.29735605      -0.00550765       0.00143641       0.00009692
C        3.71332201       4.59662400      11.06307718      -0.00707617       0.00400096      -0.00235771
H        5.39023550       4.68456148       8.20966874       0.00501726      -0.00382549       0.00486833
H        6.13193263       4.18847643       9.73025661      -0.00277755      -0.00776921       0.00705984
H        5.01801012       6.23455062      10.41841288       0.00486632      -0.00368077       0.00510997
H        3.65705859       5.90398797       9.34645331       0.00934538       0.00737160      -0.00099230
H        3.64715186       3.07506321       8.39325417      -0.00325763       0.00593197      -0.00181019
H        4.78459181       2.21811842       9.44202320      -0.01001930      -0.00092894       0.00014763
H        4.38540317       4.39048144      11.90505965      -0.01325661       0.00298651       0.00231981
H        2.79572507       5.03503833      11.46390631      -0.00759917       0.00832514      -0.00887606
O        9.37221562       9.28807786       9.44810628       0.00867522       0.00387304       0.01253298
C       11.54793900       9.81635242       8.66813081       0.00708419      -0.00452863       0.00262523
C       11.59916297       8.57433508       9.55681627       0.00440675      -0.00950094      -0.00420490
C       10.19560606      10.39325816       9.07203045       0.01310188       0.00020643       0.01313923
C       10.15954370       8.09764873       9.44543730       0.00132233      -0.00081813       0.00139248
H       12.36788961      10.51332470       8.83861806       0.01050335      -0.00833462       0.00094587
H       11.55300210       9.52908185       7.61333994      -0.00301486       0.00082405       0.00127724
H       12.32735089       7.83119836       9.23869524      -0.00153103      -0.01245838      -0.01005598
H       11.82832944       8.86560008      10.58760867       0.01046337      -0.01641223      -0.00406736
H       10.30916656      11.04670432       9.94639000       0.02261038      -0.00450677       0.01535851
H        9.69598893      10.95781248       8.27869620       0.01227432       0.00626692       0.01834500
H        9.99723123       7.55486368       8.50491843      -0.00884019       0.00547960      -0.00006616
H        9.82952285       7.46309552      10.26931472       0.00167400      -0.00231993       0.00047132
O       11.01151506       4.80273254       5.92340491      -0.00189763      -0.00629896       0.00222143
C        8.88993796       5.84252354       5.93494111      -0.00446123      -0.01211163      -0.00493702
C        8.74128551       4.40632176       5.44311399       0.00060815      -0.01299033      -0.00313467
C       10.37594802       6.07786879       5.72650833      -0.00456548      -0.00849023      -0.00143998
C       10.01045806       3.78361638       6.00441425       0.00070590      -0.00869058       0.00070521
H        8.26983751       6.57737239       5.42771208      -0.00480291      -0.01483598      -0.00816055
H        8.64233200       5.90523243       6.99578350      -0.00734006      -0.01126333      -0.00579694
H        7.83365217       3.91570606       5.79317501       0.00116876      -0.01491331      -0.00489472
H        8.74919978       4.37009933       4.35076207       0.00335968      -0.01451210      -0.00293773
H       10.58835231       6.42703944       4.70889899      -0.00290412      -0.00967424      -0.00146317
H       10.80630118       6.80179664       6.42196766      -0.00838567      -0.00649109      -0.00144985
H        9.86689030       3.49743250       7.05450482      -0.00102083      -0.00857952       0.00036001
H       10.36434424       2.91050440       5.45245018       0.00404409      -0.00787801       0.00226921
O        9.80874742       9.46471795       2.79437552      -0.00409839       0.01056297      -0.00198185
C        9.03253860       8.72667817       0.70669163       0.00042430      -0.00234944       0.00219744
C        8.36691330      10.05805075       1.01751713      -0.00553381      -0.00342175      -0.00561839
C        9.40047508       8.27253303       2.10695520      -0.00197183       0.00610901       0.00550354
C        9.25309131      10.59205999       2.11980917      -0.01086108       0.00527087      -0.00503790
H        8.38022954       8.04186193       0.16835125       0.00475827      -0.00751749       0.00467628
H        9.93526154       8.88499035       0.10697510       0.00084996      -0.00206046       0.00360185
H        8.28957761      10.72271463       0.16463609      -0.00528401      -0.00753850      -0.00882781
H        7.35932910       9.91755385       1.40447571      -0.00569248      -0.00626900      -0.00855120
H        8.53079585       7.84309633       2.62075483      -0.00324881       0.00872263       0.00556594
H       10.22518246       7.55544779       2.14755155      -0.00168493       0.00763094       0.01187592
H       10.10697961      11.19730673       1.67036175      -0.01464280       0.00937821      -0.00317916
H        8.73980054      11.23891444       2.83407911      -0.01768729       0.00252503      -0.00787851
O        5.80765035       7.39170384       3.39338908       0.01231701      -0.00571635      -0.00376505
C        4.91202237       6.95598520       1.24288423      -0.00053978       0.00323582      -0.00024962
C        6.16300935       6.10323911       1.45359750      -0.00208002      -0.00048359      -0.00908339
C        5.07894944       8.01505377       2.32155957       0.00597015      -0.00148201       0.00289142
C        6.26488490       6.11082040       2.96947273       0.00523460      -0.00602350      -0.00993383
H        4.84091041       7.41163385       0.25740977      -0.00532857       0.00658838       0.00280845
H        4.02006747       6.35004780       1.42309997      -0.00121272       0.00422147       0.00265573
H        6.08401375       5.09267249       1.05925378      -0.00576054       0.00185126      -0.01253378
H        7.03030094       6.59819733       1.01245557      -0.00300479       0.00003943      -0.01103248
H        5.65653849       8.86585518       1.94894744       0.00544834      -0.00087327       0.00193624
H        4.13817032       8.40509175       2.71239642       0.00990677      -0.00185357       0.00898224
H        5.63245423       5.32114472       3.39724677       0.00398165      -0.00511616      -0.01032025
H        7.28129266       5.96746974       3.34423248       0.00597441      -0.01117700      -0.01521608
O        9.02659990       3.36519010      10.56600682       0.00359778      -0.00576025      -0.00478771
C       10.21939924       1.38692248      10.91120904       0.00504151      -0.00042731       0.01301903
C        8.73597916       1.04299312      11.03861818       0.00560170      -0.00319386       0.01009792
C       10.20417310       2.88192314      11.20169086       0.00093469       0.00072974       0.00412383
C        8.05924248       2.29849973      10.48858980       0.00411804      -0.00647122       0.00421788
H       10.89056612       0.83252011      11.63106195       0.00456910       0.01082921       0.02128929
H       10.59701334       1.19387723       9.90465832       0.00982463      -0.00626586       0.01632848
H        8.43088296       0.15149237      10.49444627       0.00907023      -0.00547183       0.01216841
H        8.45983728       0.89583095      12.08283837       0.00377961      -0.00030158       0.00992477
H       10.15968771       3.06055397      12.28559396      -0.00498698       0.00574332       0.00284475
H       11.06156635       3.42024571      10.79512004       0.00266829      -0.00065359       0.00638455
H        7.77049834       2.18623959       9.43974250       0.00107673      -0.01244619       0.00619996
H        7.16663151       2.56138078      11.06037728       0.00534213      -0.00396758       0.00513476
