141
Lattice="12.206368716408857 0.0 0.0 0.0 12.206368716408857 0.0 0.0 0.0 12.206368716408857" Properties=species:S:1:pos:R:3:forces:R:3 energy=-274540.21875 stress="0.0003191451833117753 0.0011152431834489107 0.0005107980687171221 0.0011152431834489107 -0.0011597948614507914 -0.00016882555064512417 0.0005107980687171221 -0.00016882555064512417 -0.0004096291377209127" pbc="T T T"
Pd      10.86613234      12.96572232       0.62663375      -0.00277025      -0.00352431       0.01291618
O        2.54092684      12.36679652       5.05047204      -0.00418842      -0.00767553      -0.01948494
O        0.92679754      11.63057794       3.69738637      -0.00729227      -0.00425786      -0.01933932
O        2.37761224      10.16272403       4.59041065      -0.02889693      -0.00982690       0.00545752
C        1.89626844      11.29329857       4.40482679      -0.01484445      -0.00668639      -0.01072970
H        3.16334799      11.95284326       5.66593499      -0.00911283      -0.00847731      -0.01436042
O        5.44117059      12.85924645      12.64395734       0.01552081       0.01986688       0.01462279
O        7.46752303      12.64173456      13.54950419       0.01627970       0.04163593       0.01826215
O        7.02338392      11.68031305      11.56422263       0.01690984      -0.00019693       0.03822851
C        6.74355483      12.34447847      12.59218931       0.01655716       0.02073133       0.02469706
H        5.00687484      12.61844170      11.80842286       0.01765984       0.00695831       0.01725592
O        9.50415717       5.17724784      -0.26494400      -0.00558269       0.00296348      -0.00124070
O       11.00631346       4.38027413       1.17078505      -0.01059157       0.00025356       0.00232035
O       11.70169681       5.49994520      -0.66717312      -0.00372446      -0.00912821      -0.00022471
C        8.74746768       4.77860432       0.89617271      -0.00838542       0.01077873      -0.00017488
C        9.73452508       3.88183002       1.60915821      -0.01362604       0.00917026       0.00459081
C       10.82454302       5.06650248       0.00845324      -0.00621939      -0.00303417       0.00058478
H        7.84658170       4.26747610       0.57813325      -0.01047719       0.01376587       0.00107588
H        8.48175170       5.67476734       1.45530054      -0.00452441       0.01433593      -0.00401580
H        9.69353458       3.95433705       2.69278121      -0.01374093       0.01601604       0.00382328
H        9.63355204       2.83557441       1.30326897      -0.01951087       0.00824559       0.01113208
O       12.22968218       2.02790743       4.42072740       0.00365320      -0.00437713       0.01205470
O       10.64278606       0.53158862       4.05584690      -0.00200361       0.00155841       0.01023462
O       11.68385641       1.53306445       2.33459454      -0.01184738       0.01454660       0.01094836
C       11.96481828       1.47977090       5.74004171       0.00562635      -0.00715932       0.00882792
C       10.90342767       0.40914167       5.47873175       0.00815731      -0.00886917       0.00740522
C       11.55180878       1.32344807       3.53347094      -0.00394800       0.00430581       0.01043189
H       11.61330579       2.29239745       6.37194269       0.00315708      -0.01122490       0.01183321
H       12.89859059       1.06362644       6.10623709       0.00455379      -0.00672668       0.01000978
H       11.27721974      -0.59329529       5.64785610       0.01142859      -0.00923616      -0.00375720
H        9.96757744       0.57015787       6.00408565       0.01064160      -0.01748002       0.01330465
O        9.06638114       2.91182529       6.58055459      -0.00478269      -0.00266311      -0.01998627
O        9.24173043       5.07279909       7.06701080       0.00893697      -0.00645649      -0.00850073
O        9.63001785       3.54106335       8.67105973      -0.00399235      -0.01697792      -0.01567924
C        8.98029759       3.60104347       5.31451898       0.00841404       0.00473139      -0.01762891
C        8.67740749       5.02661328       5.73942579       0.01445436       0.00392574      -0.01181491
C        9.34669783       3.81992838       7.54773448      -0.00095157      -0.00923288      -0.01623625
H        8.20162121       3.13720844       4.71788533       0.01072708       0.01183766      -0.02578904
H        9.94976006       3.51546792       4.82104413       0.01177669       0.00157543      -0.01020256
H        9.14404170       5.79935967       5.13487086       0.02206789       0.00445956      -0.00490513
H        7.60549042       5.22059475       5.81415386       0.01547411       0.01006331      -0.01594266
O        9.87259929       9.77080790       0.94885991       0.00402284       0.00927025      -0.00417838
O        8.08938016       9.50904609       2.25155964      -0.00731653       0.01272301      -0.02019858
O        8.32798929       8.21457171       0.42843723       0.00205481       0.01494575      -0.02218378
C        9.97611496      10.81236969       1.90227613      -0.00114739       0.00594947       0.00261313
C        8.86182323      10.52821584       2.90859955      -0.00508446      -0.00071802      -0.00431222
C        8.71573330       9.08764974       1.14841091       0.00183418       0.01811194      -0.00971490
H        9.67180499      11.80905747       1.39759945      -0.00817141       0.01003572       0.01127265
H       10.97685382      10.83790802       2.32805895      -0.00252390       0.00994373       0.00797036
H        9.25205058      10.12262445       3.83978129      -0.01117966      -0.01458412      -0.00736588
H        8.21634738      11.38627189       3.06860593      -0.00158516       0.00035810       0.00599907
O        1.85284190       0.97925716       0.77402418      -0.01170798       0.00734402       0.00931308
O        1.67089094       3.17598995       0.75923196      -0.00366279       0.00795770      -0.01566136
O        0.14091448       1.94857277      -0.30815875      -0.01448286       0.00124501       0.00970492
C        2.78399349       1.41761901       1.80484130      -0.00199755       0.01679182      -0.00309741
C        2.86587399       2.91489409       1.54406194       0.00359064       0.01232672      -0.02439951
C        1.16767872       2.03025197       0.36649789      -0.00960635       0.00520676       0.00200315
H        3.73141379       0.90796339       1.65164140      -0.00533319       0.01073425      -0.00247303
H        2.32865052       1.15304799       2.75838789       0.00385723       0.03033972       0.00310057
H        2.78617296       3.51347401       2.44884663       0.01718719       0.02645978      -0.03344944
H        3.72645361       3.22361021       0.95361891      -0.00134617      -0.00105748      -0.03777173
O        5.86138276       3.47051859       4.31707723      -0.00086197      -0.01034441       0.01962006
O        4.32845627       5.03990190       3.93625788      -0.00013220      -0.01144598       0.01440884
O        6.16744622       4.92614972       2.62699194       0.01468387       0.00515059       0.04379630
C        4.79944612       3.17422206       5.23976107      -0.01353531      -0.01924551       0.00602147
C        3.93549765       4.42811872       5.17344923      -0.01042545      -0.01943865       0.00857919
C        5.51393025       4.51924192       3.53006059       0.00572214      -0.00353208       0.02832669
H        5.23599875       3.00784590       6.22235847      -0.02632177      -0.03135437       0.01098913
H        4.27600747       2.27918608       4.90445841      -0.01135615      -0.01637742      -0.00730185
H        2.87010271       4.21354158       5.13579416      -0.01194358      -0.01639356       0.00080728
H        4.14662131       5.12478383       5.98700965      -0.01648667      -0.02479923       0.01611021
O        8.59684756       1.87044252      11.11406347       0.01354690      -0.00472903      -0.00209495
O        8.64793485       0.47792577       9.39856726       0.00905229      -0.02883091       0.01479317
O       10.12076656       0.22122791      11.03724172       0.00430214      -0.00946751       0.02860808
C        7.44290172       2.25861117      10.33168400       0.01902542      -0.00726050       0.00641328
C        7.45821733       1.27150878       9.16377489       0.01022089      -0.01128614       0.00811082
C        9.15167301       0.81738273      10.56216636       0.00690027      -0.01247038       0.01230766
H        7.60511354       3.28806000      10.03229553       0.01725352      -0.01103464      -0.00187378
H        6.56348119       2.16695811      10.96521638       0.01918381      -0.00303836       0.00528949
H        6.60881895       0.59791912       9.16521517       0.00482979      -0.00696447       0.00886432
H        7.57861044       1.75223870       8.19684607       0.02313941      -0.01792973       0.00446722
O        9.85070845       9.96889581       6.91855282       0.00069824      -0.00409673      -0.01169645
O        9.18288687       7.85289994       6.96572977      -0.00088316       0.00043947       0.01731038
O        7.67694270       9.47793125       6.62713263       0.00046563      -0.00162241      -0.00552329
C       11.07935054       9.21450727       7.04813692      -0.00263053      -0.00637072      -0.00344463
C       10.59627845       7.78086911       7.24857490      -0.00222676      -0.00124913       0.01816620
C        8.80941474       9.13603682       6.81408821      -0.00073034      -0.00199738      -0.00088312
H       11.64375744       9.61295790       7.88420408       0.00319842       0.00085500      -0.00639302
H       11.65426480       9.33660982       6.13271904       0.00524217      -0.01324826       0.00607884
H       11.05311237       7.09398378       6.54227302      -0.00459187      -0.00718838       0.02051815
H       10.71967536       7.40948590       8.26427222       0.00120999       0.00485538       0.01576489
O       -0.15166252       6.90681819       2.66249087      -0.00777328       0.01019505      -0.01016629
O        0.53077478       7.65630918       4.63653710      -0.01657069      -0.02747653       0.00694045
O       -1.56218974       8.10435223       3.94704755      -0.01934576      -0.02786642       0.01346099
C        1.12109886       6.25959890       2.90615313      -0.00426267       0.01359361      -0.01998204
C        1.71611762       7.14612462       3.98622517      -0.01148248      -0.00212085      -0.00418890
C       -0.48596499       7.60698207       3.75738412      -0.01348883      -0.01661792       0.00415511
H        1.67799857       6.21865218       1.97404061      -0.00279903       0.03186996      -0.01933149
H        0.91022111       5.24636121       3.25978190       0.00165711       0.00656417      -0.03862202
H        2.29567031       6.61107501       4.73266743      -0.00460845      -0.00993501      -0.01569179
H        2.28171117       7.99691196       3.60838081      -0.02301258       0.01237148       0.01264618
O        5.83621948      10.62666779       9.21554577       0.01722771       0.00787626       0.01440108
O        4.64014552      10.04787110      10.98924341       0.00766089       0.00252232       0.00573677
O        4.32312265      12.06429823      10.05631241       0.02087599       0.00954986       0.01668343
C        6.51758808       9.47112420       9.72750456       0.01059395       0.00203375       0.01036942
C        5.62808450       9.00568844      10.88840605       0.00177200      -0.00296023       0.00117546
C        4.90162558      11.01134606      10.09601242       0.01537377       0.00678515       0.01326915
H        7.50183354       9.78648406      10.06553843       0.00948822      -0.00410503       0.01971844
H        6.60244895       8.75595548       8.91294538       0.01361113       0.00729460       0.00620070
H        5.10170388       8.06873176      10.70643193      -0.00400096       0.00276369      -0.00936522
H        6.17093460       8.95283065      11.82751157      -0.00441563      -0.01455208       0.00380605
O        3.34062205       8.77648324       1.31267488       0.01000649       0.00495601      -0.00913191
O        1.66844334       8.76896584      -0.15150162       0.01516002       0.00025734      -0.01500413
O        3.03038689       6.97810061       0.00011460       0.03541416       0.01545024      -0.02960539
C        2.82642544      10.12493150       1.33618508      -0.00213724      -0.00017011      -0.00177070
C        1.50416603       9.98958134       0.59761833       0.00127321      -0.00647605      -0.00620717
C        2.70770259       8.07635265       0.34682068       0.02168116       0.00850701      -0.01833615
H        3.54041647      10.76044921       0.81717602      -0.00632796       0.00913799       0.00417307
H        2.70925491      10.41451646       2.37424042      -0.00805662      -0.00658822      -0.00113392
H        0.65999493       9.87151919       1.27737665      -0.00004283      -0.02118465      -0.01108116
H        1.31082004      10.79736948      -0.10170069      -0.00433753      -0.00288334      -0.00072190
O        3.64949322      10.58451959       7.11640361      -0.00321880       0.01037909      -0.00188773
O        2.36881560       8.81748270       7.54153025      -0.00589800       0.01429892       0.00546345
O        1.47311407      10.88322899       7.62640344      -0.00200903       0.01591921      -0.00043440
C        4.41984581       9.44639580       6.67410735      -0.00454363       0.00785145       0.00152832
C        3.69878099       8.30106360       7.36592507      -0.00816427       0.00943691       0.00032184
C        2.40637201      10.16498999       7.43189736      -0.00312775       0.01283121       0.00059262
H        5.45204010       9.58944105       6.96982758      -0.00499326       0.00572091       0.00443517
H        4.32138007       9.39505712       5.59136700      -0.00117438       0.00583265       0.00173420
H        3.63839046       7.39841900       6.76121059      -0.01321746       0.01087686      -0.00069225
H        4.10198920       8.05387754       8.35007133      -0.00470388       0.00507297      -0.00212741
O        6.52226014       5.31732659      11.02094095      -0.00416321      -0.01364422      -0.01212035
O        5.20965238       5.48662146       9.23002034      -0.00131112      -0.01054737      -0.01361763
O        4.48415723       4.36258069      11.05597389      -0.00125253      -0.02030766      -0.01976180
C        7.30347262       6.06788148      10.07123275      -0.00488937      -0.00670226      -0.00700176
C        6.51377630       5.88529000       8.78267246      -0.00283041      -0.00056514      -0.00927651
C        5.32028607       5.00078847      10.50463652      -0.00193894      -0.01480681      -0.01645145
H        8.30316694       5.64438864      10.03753093      -0.00409222      -0.00424883      -0.00836069
H        7.37304865       7.09464234      10.42400254      -0.00733724      -0.00863063      -0.00076370
H        6.43167023       6.78659832       8.17802023      -0.00691095       0.00403401      -0.00178738
H        6.92323507       5.07969196       8.17051086       0.00170884       0.00692308      -0.01550397
