149
Lattice="12.121269822724893 0.0 0.0 0.0 12.121269822724893 0.0 0.0 0.0 12.121269822724893" Properties=species:S:1:pos:R:3:forces:R:3 energy=-669425.8125 stress="-0.0010884646326303482 0.00024329713050974533 -0.00023267733922693878 0.00024329713050974533 -0.002419603057205677 0.00043164937233086675 -0.00023267733922693878 0.00043164937233086675 -0.003354863729327917" pbc="T T T"
Pd      11.22481555      13.20322671       0.12435984       0.00474744       0.00676642      -0.00564563
O        9.51483443      10.73670909       3.00047019       0.00806820       0.03890991      -0.02952194
O       11.84028834      12.20340931       1.75243003      -0.00136387       0.01027787      -0.00675395
O        9.45491687      12.07110537       0.32478589      -0.00246030      -0.00567296      -0.01139402
O       10.87611512       9.53347957       0.82369154      -0.01108512       0.00262856       0.01222450
W       10.39344669      11.05113691       1.53212396      -0.02387157      -0.00003397       0.03092462
O        4.89315825       3.90886358       4.69927074       0.00649368       0.00503611      -0.00010249
C        5.22536311       3.03528742       6.88767754      -0.00761423      -0.00470504      -0.00182712
C        4.62050095       4.43759783       6.94222211      -0.01030043      -0.00615031      -0.00129402
C        5.62850947       2.90146350       5.41548911      -0.00390499      -0.00277745      -0.00109679
C        3.95672725       4.51519175       5.58248140      -0.00179912      -0.00241764      -0.00467885
H        6.07199879       2.90794176       7.56205978      -0.00946175      -0.00385347       0.00038721
H        4.47541704       2.28265691       7.13761919      -0.00646251      -0.00617129      -0.00436038
H        3.92557257       4.59479924       7.76468455      -0.01522714      -0.01001262      -0.00508872
H        5.40984386       5.18916812       7.01326309      -0.01233745      -0.00521959       0.00540819
H        6.69304080       3.10654124       5.26150589      -0.00246024      -0.01067786       0.00163988
H        5.38601612       1.91695100       5.01265738      -0.01095159       0.00073516      -0.00463098
H        3.01299071       3.94793875       5.58945122       0.00059444      -0.00597098      -0.01371476
H        3.75445837       5.52576954       5.22252952      -0.00295379      -0.00199175      -0.00163481
O        5.01643076      10.06553956       6.43447044      -0.00087726       0.00056684       0.01408771
C        5.83273521       7.82321895       6.51551031      -0.00686410      -0.00217754      -0.00580599
C        4.53791498       7.96550076       7.33107001      -0.00385114      -0.00477260      -0.00093168
C        6.10644534       9.25452204       6.00263918      -0.01631449      -0.00331604      -0.01314533
C        3.91511472       9.19975993       6.70232772      -0.00264832       0.00295854       0.01410046
H        6.65841908       7.43225773       7.11225429      -0.00204940       0.00884077      -0.00589120
H        5.68256728       7.14405793       5.67408819      -0.00197542      -0.00965594      -0.00018546
H        3.88249741       7.09926625       7.25973982      -0.00700293      -0.00152275      -0.00550891
H        4.75600218       8.13650087       8.38625730       0.00223199      -0.01498081      -0.00110736
H        7.02139058       9.68960960       6.40760401      -0.00628230      -0.00626265      -0.03805061
H        6.19237396       9.28410713       4.91210223      -0.04630089      -0.00372911      -0.01379263
H        3.39920562       8.92346477       5.77745207      -0.01030657       0.01347686       0.01554841
H        3.21883123       9.73797002       7.34384133       0.00560328       0.00111026       0.02380314
O        2.56189244       7.21289931       3.92504860       0.00159279      -0.00341557       0.00213087
C        1.96249963       6.21098926       1.86097716      -0.00604591       0.00666710       0.00020641
C        1.18807058       5.55669372       3.00613628      -0.00703125       0.00547868      -0.00147183
C        3.08554336       6.90981407       2.62083475      -0.00148010      -0.00185975       0.00088552
C        1.24293452       6.66319842       4.04246148       0.00082318      -0.00044012       0.00380448
H        2.34386117       5.50547642       1.12409652      -0.01076426       0.00809705      -0.00308743
H        1.32451148       6.93602833       1.35014691      -0.00355467       0.01211897       0.00497618
H        0.17179544       5.26815341       2.73813930      -0.00871366       0.01190059      -0.00087228
H        1.71867877       4.67295835       3.36795725      -0.01053277       0.00163522      -0.00696263
H        3.95452546       6.25458399       2.73286052      -0.00445497      -0.00644490      -0.00234002
H        3.41581655       7.83846738       2.14543412       0.00231540      -0.00197971       0.00413801
H        0.49215435       7.42918239       3.81285348       0.00296947       0.00295269       0.01086292
H        1.10134251       6.34648438       5.07629055       0.00259662      -0.00569782       0.00216919
O        3.64453281       1.47011324       3.33169755       0.00046452       0.00222254      -0.00438857
C        2.31751201       2.50419629       1.66280287      -0.00144738       0.00046480      -0.00319803
C        3.72594350       3.09464783       1.66584547      -0.00377433       0.00482738      -0.00151137
C        2.28544180       1.81419052       3.02372712      -0.00045162      -0.00204986      -0.00491589
C        4.48974484       1.94901819       2.29532474      -0.00046279       0.00651389      -0.00293133
H        1.51762341       3.23445504       1.54771957      -0.00356668      -0.00215088      -0.00298491
H        2.20784368       1.76033690       0.86599574       0.00193015       0.00183412      -0.00447901
H        4.11320815       3.39432562       0.69774717      -0.00526848       0.00660431      -0.00129274
H        3.78645915       3.95637487       2.33127503      -0.00659626       0.00450113      -0.00104651
H        1.92126171       2.49166255       3.80631900      -0.00348458      -0.00524789      -0.00387368
H        1.65954077       0.92506833       3.02355495       0.00280237      -0.00398755      -0.00723629
H        4.66562426       1.14409497       1.56437568       0.00248667       0.00865281      -0.00406289
H        5.44832583       2.24042873       2.72491183      -0.00205922       0.00904845      -0.00168052
O        2.68551400      11.35497331       4.88837973      -0.01349413       0.00539410       0.00575197
C        1.62971389      10.16120984       3.13559604      -0.00790939      -0.00280032       0.00777382
C        0.76197116      10.09993208       4.39362379      -0.01032469       0.00196958       0.00572121
C        2.97435148      10.60672415       3.69736486      -0.01038691       0.00347424       0.00800592
C        1.28690855      11.30026348       5.15887251      -0.01477098       0.00657982       0.00031665
H        1.68432672       9.21677097       2.60055076      -0.00329949      -0.00618368       0.01487750
H        1.23374359      10.90953471       2.44906044      -0.00869171      -0.00879589       0.00186794
H       -0.30937348      10.15677764       4.19434132      -0.00967407      -0.00170838       0.00306559
H        0.97020593       9.18602875       4.95331027      -0.00858597       0.00557241       0.01073197
H        3.59820438       9.74783474       3.96704225      -0.00848931       0.00615144       0.01112133
H        3.54448899      11.24654157       3.02106906      -0.01108813       0.00265241       0.00703698
H        0.79489070      12.22099870       4.81848250      -0.01356319       0.00359559      -0.00764269
H        1.15788884      11.23107415       6.24173213      -0.01926921       0.01290122       0.00002640
O        8.31794080      10.62479066      10.15835986       0.00322348      -0.00165643      -0.01720181
C        6.07747612      10.45313813       9.53923193      -0.00259489      -0.00242552       0.00444128
C        6.34528529       9.37538660      10.58589328       0.00792426       0.00180542       0.00487287
C        7.48076572      10.67153509       9.01387065      -0.00836390      -0.00069881      -0.00893119
C        7.66703241       9.86027397      11.18677760       0.00780416       0.01083511      -0.00550884
H        5.37078236      10.19220492       8.75735860      -0.00767252      -0.00628322       0.01103690
H        5.73110405      11.36108221      10.03194795      -0.00089848      -0.00257334       0.00497903
H        5.55255626       9.28169323      11.32752614       0.01323074       0.00141370       0.00992154
H        6.46798687       8.40183849      10.10129795       0.00929902       0.00110880       0.00738987
H        7.76089008       9.87101072       8.31290239      -0.01409985       0.00061053      -0.01216012
H        7.62805863      11.63095635       8.50989786      -0.01521651      -0.00048614      -0.00999153
H        7.50760112      10.52263505      12.04390892       0.00761969       0.02048370      -0.01411763
H        8.33353206       9.05519388      11.49952337       0.01115552       0.01681671       0.00292097
O        6.33659050       3.44116753      10.94676605       0.00992009      -0.01009937      -0.04044482
C        4.93551642       1.69165852      10.23454931      -0.00642110      -0.00559026       0.00044611
C        4.11877354       2.98382203      10.18917701      -0.00380701      -0.00372469      -0.00140472
C        6.08408148       2.05125357      11.16624155      -0.00124791      -0.00085694      -0.00891858
C        5.17358412       4.07538599      10.40395577      -0.00266957      -0.00381258      -0.00095451
H        4.35293655       0.84303714      10.59095621      -0.00586885      -0.00255176       0.00766473
H        5.31672813       1.44382428       9.24252450      -0.01166855      -0.01248195      -0.00044715
H        3.58216509       3.10412526       9.25032017      -0.00267783      -0.00464055      -0.00167429
H        3.37691047       2.99614482      10.98668876      -0.00485454      -0.00160622      -0.00275782
H        5.82386198       1.87954653      12.21352358      -0.00074135       0.02283392      -0.00556654
H        7.00751149       1.50323864      10.96461760      -0.00626260      -0.01164849       0.00024885
H        5.46777638       4.55174877       9.46438977      -0.02072337       0.01659068       0.00541329
H        4.83043684       4.85708621      11.08847931       0.00878245      -0.01967067       0.02156001
O       12.58212924       7.89069681       8.40929207       0.01658881      -0.00621769       0.01571798
C       11.18197894       9.65031650       9.02861803       0.01235349      -0.00602114       0.00244483
C       10.63422462       8.39480092       9.71251697       0.01085556      -0.00391169       0.00504965
C       11.96141224       9.05274124       7.87111757       0.01906258      -0.00854343       0.00853539
C       11.69078182       7.32632439       9.37918856       0.00942272      -0.00594813       0.00852224
H       10.39191680      10.32977905       8.71770805       0.01303720      -0.00884083      -0.00402623
H       11.84744805      10.18553920       9.70962331       0.00836080      -0.00227141       0.00287241
H       10.51107016       8.53988383      10.78440487       0.01027868      -0.00099784       0.00438574
H        9.66342509       8.12623829       9.28758457       0.01104966      -0.00384296       0.00589426
H       11.28840555       8.78609610       7.04231742       0.02384043      -0.01167306       0.00609139
H       12.75015659       9.69226511       7.47695388       0.02073714      -0.00928110       0.01143594
H       12.29122677       7.05316980      10.25028936       0.00365460      -0.01046135       0.01072165
H       11.23746780       6.41834827       8.96291933       0.00916186      -0.00318331       0.00361481
O       10.79405832       6.13963335       6.29190203       0.00121102      -0.00827144       0.00569437
C        9.51693429       4.56791173       5.10589682       0.00385782      -0.00846601       0.00238955
C        8.56125551       5.46031982       5.89462794       0.00298864      -0.00873749       0.00120223
C       10.80286937       4.77092131       5.88818475       0.00396934      -0.00689745       0.00147158
C        9.45676790       6.65420774       6.20868878       0.00196159      -0.00793284      -0.00113720
H        9.20663002       3.52514539       5.04844836       0.00509805      -0.00869171       0.00353375
H        9.63263140       4.94823988       4.08821263       0.00293986      -0.00955459       0.00216761
H        7.66264836       5.73893202       5.34937063       0.00288224      -0.01060141       0.00055805
H        8.25304875       4.95640876       6.81569780       0.00374887      -0.00731684       0.00196075
H       10.82141035       4.12500148       6.77771248       0.00716786      -0.00881886      -0.00044000
H       11.70979940       4.58192255       5.31144268       0.00338981      -0.00326478      -0.00031200
H        9.41761770       7.40388125       5.40915209       0.00450860      -0.01186201      -0.00450650
H        9.20914561       7.14750952       7.15292258      -0.00018143      -0.00378853      -0.00427142
O        6.07864481       5.55768727       1.62037608       0.00869554       0.00528091      -0.01778239
C        6.89770175       7.27732948       2.97741474       0.00445949      -0.00438482      -0.00486904
C        7.16801232       7.67826322       1.53024080       0.00479907       0.00777638      -0.00113240
C        6.78110571       5.76926488       2.84586012       0.00879408      -0.00302941      -0.01669341
C        6.32758402       6.66491312       0.74449473       0.00962964       0.01115894      -0.00981521
H        7.68142627       7.60832361       3.65819493       0.00196409      -0.00732632      -0.00139771
H        5.94719572       7.69664681       3.31759265       0.00250700      -0.01054093      -0.00336784
H        6.88840450       8.70856356       1.32417926       0.00205052       0.00805941       0.00629931
H        8.23077642       7.57431214       1.30426638       0.00527444       0.01316426      -0.00027351
H        7.77795765       5.30842312       2.78746268       0.01001596       0.00065963      -0.02120200
H        6.20845393       5.27742544       3.63245811       0.01063094      -0.01016457      -0.02021286
H        5.35575611       7.07967399       0.45346508       0.00981534       0.01050107      -0.01061475
H        6.82957954       6.30254343      -0.15806253       0.01333258       0.01822096      -0.01023820
O       10.75318578       2.00353109      10.42716042       0.01089238       0.00091663      -0.00156581
C        9.06569225       2.35450407       8.78873934       0.01186770       0.01026842       0.00339842
C        9.27135660       3.62728091       9.61688792       0.01270127       0.00574362       0.00988731
C        9.78961645       1.28234688       9.59660771       0.00666461       0.00595850       0.00024965
C       10.66334623       3.42436337      10.17683320       0.01050952       0.00159693       0.01207722
H        8.01074797       2.11101346       8.66097245       0.01141158       0.01448107      -0.00024612
H        9.51051553       2.45889357       7.79604813       0.01576217       0.01333059       0.00579971
H        9.19798128       4.53895957       9.02286141       0.01423732       0.00874229       0.01464862
H        8.53010026       3.67866166      10.41445727       0.01184043       0.00178677       0.00856814
H        9.14852471       0.71812192      10.27263099       0.00450179       0.00927439       0.00046226
H       10.35468552       0.57609048       8.98755215       0.00261426       0.00394368      -0.00060061
H       11.44243782       3.68989003       9.45334210       0.01384959       0.00755557       0.01905316
H       10.85479067       3.94168954      11.11597517       0.00630433      -0.00755093       0.01772931
