137
Lattice="12.391287900137893 0.0 0.0 0.0 12.391287900137893 0.0 0.0 0.0 12.391287900137893" Properties=species:S:1:pos:R:3:forces:R:3 energy=-226025.8125 stress="-0.00017154391389340162 3.0107836209936067e-05 -0.00017795891471905634 3.0107836209936067e-05 0.00047748000361025333 9.915219197864644e-05 -0.00017795891471905634 9.915219197864644e-05 -0.001215312979184091" pbc="T T T"
Pd      12.05655812      11.69861617      -0.63911221      -0.01609766       0.03502786       0.01528999
S        1.26186872      10.77022234       6.88951215      -0.01122314      -0.00604430       0.00695956
O        0.93606215      12.02094642       7.56953434      -0.01219165      -0.00396585       0.00608253
O        0.12851744      10.12988804       6.22135016      -0.00747180      -0.00438738       0.00406086
O        2.03167792       9.84145610       7.72446003      -0.01532245      -0.00618362       0.01301432
C        2.37223618      11.27038261       5.58150501      -0.00250214      -0.00697291       0.01443732
H        3.28391462      11.66558674       6.02440437      -0.00272738      -0.01376034       0.02110439
H        2.58888196      10.42872944       4.92610131      -0.00407733      -0.00484154       0.01154864
H        1.86663370      12.05787600       5.03251980       0.00424794      -0.00115634       0.01581058
S        2.19678430      10.76784322       1.20116765      -0.02831179      -0.02108234       0.02395666
O        1.23324346      10.47548688       0.09573061      -0.02786899       0.01178189       0.00047946
O        3.36277255      11.50632784       0.76016225      -0.01757121       0.01408172      -0.00552607
O        2.47568540       9.56636594       1.96151063      -0.02887952       0.02446902      -0.01891601
C        1.29962931      11.87773597       2.26393551      -0.01552743       0.00353211       0.00816995
H        0.46580736      11.35285676       2.72351088      -0.02015192       0.00694214       0.01112284
H        1.98640565      12.22929558       3.02542676      -0.00976942      -0.00875538       0.01320952
H        0.95722647      12.71680322       1.65961950      -0.01360947       0.01460327       0.02231127
O        5.82266662      10.98594655       9.90287919      -0.00505284       0.01897019      -0.00103235
C        4.56955949      10.77105191       9.25511807      -0.00622219       0.01807088       0.00149085
C        6.84465820      10.18862658       9.36405851      -0.00913978       0.00859582       0.00533447
C        3.54270921      11.66959158       9.88361593      -0.00363827       0.02802244      -0.00758287
C        8.11701430      10.43742172      10.12906747      -0.00734437       0.00578861       0.00361943
H        4.67649655      10.96650697       8.17807881      -0.00522055       0.00770098      -0.00031990
H        4.27962247       9.71569845       9.35303587      -0.01061067       0.02052748       0.01133412
H        6.56476915       9.12299973       9.41439130      -0.01644136       0.01104122       0.01326477
H        6.98469819      10.42486877       8.29739996      -0.00781308      -0.00031868       0.00363880
H        2.58009879      11.50034698       9.40649492      -0.00320062       0.02893800      -0.00916083
H        3.47135520      11.47069087      10.95131071      -0.00784236       0.03614432      -0.00653437
H        3.81882702      12.71661473       9.74661730       0.00130436       0.02550535      -0.01544292
H        8.91407437       9.79195077       9.76831739      -0.01139262      -0.00241154       0.00845906
H        8.42534199      11.47885472      10.02578619       0.00058486       0.00248934      -0.00437034
H        7.97164753      10.22642271      11.18952167      -0.00916180       0.01515543       0.00515740
O        5.80943854       3.93819818      10.70635327      -0.00094441      -0.00405943       0.00480781
C        4.40349707       3.87694715      10.55343300      -0.00048327      -0.00235593       0.00012858
C        6.41069464       2.65923914      10.61786112      -0.00160474      -0.00393185       0.00010719
C        3.84555455       5.27348361      10.67115400      -0.00080474      -0.00309646       0.00644593
C        7.90395560       2.82917837      10.75807377      -0.00149554      -0.00618392       0.00183546
H        4.15624457       3.43651216       9.57672203       0.00249578       0.00332052      -0.00318158
H        3.97497316       3.21500617      11.31988433      -0.00324214      -0.00659353      -0.00514203
H        6.01251123       2.00083744      11.40230748      -0.00287898      -0.00709775      -0.00319308
H        6.15749003       2.19339317       9.65520620      -0.00113215       0.00030862      -0.00213635
H        2.76506448       5.26557274      10.52784157      -0.00048938      -0.00264326       0.00410585
H        4.06354557       5.69387291      11.65231116      -0.00318719      -0.00843157       0.00917138
H        4.28210513       5.92409058       9.91402023       0.00049505       0.00125685       0.01083416
H        8.40460530       1.86211129      10.69576735      -0.00261781      -0.00641838      -0.00339219
H        8.28948465       3.47407332       9.96729312      -0.00063845      -0.00244811       0.00542848
H        8.14524160       3.28629379      11.71870444      -0.00107734      -0.01172900       0.00432399
O       10.58010998       8.22590950      10.34102212       0.00275880       0.00001907      -0.00256094
C       11.83798213       8.80068565       9.97714043       0.00373786       0.00178105       0.00302300
C       10.69335230       7.00644270      11.02970658       0.00165975      -0.00257003      -0.00726056
C       11.60634845      10.23043834       9.57083147       0.00660255       0.00553018       0.01650017
C        9.30668328       6.56834799      11.44193103       0.00168264      -0.00073871      -0.00589314
H       12.52260445       8.75260015      10.83283984       0.00333744      -0.00919177       0.00286347
H       12.28449704       8.23777997       9.14772659       0.00231269       0.01086000      -0.00340873
H       11.17310099       6.24522303      10.39356308      -0.00128886      -0.00155413      -0.01060891
H       11.33788918       7.13841489      11.91245804       0.00360948      -0.00659977      -0.00807768
H       12.54933620      10.73168742       9.36320722       0.00878486       0.00260827       0.02008388
H       11.01120289      10.31653836       8.66053371       0.00515081       0.01482981       0.01855674
H       11.04728540      10.75944550      10.38038046       0.01212490       0.00032467       0.02323990
H        9.34076555       5.63383728      12.00335262       0.00030816      -0.00122203      -0.00663175
H        8.84674720       7.33073896      12.07124502       0.00399895      -0.00005715      -0.00516561
H        8.67114572       6.41922756      10.56891647       0.00025995       0.00187967      -0.00523823
O        8.25799584       6.98140433       6.09585966       0.00471663      -0.00300530       0.00265590
C        9.62596832       6.65455496       6.24129907       0.00479722      -0.00094581       0.00727829
C        8.03286481       8.37784909       6.14821790       0.00219852      -0.00337085       0.00258233
C        9.74787136       5.15002384       6.25558350       0.00648265      -0.00077605       0.01093614
C        6.54902668       8.62775658       6.04025105       0.00215584      -0.00530755      -0.00183303
H       10.20874408       7.09198503       5.41794943       0.00697023      -0.00202665       0.00845402
H       10.01818739       7.08969944       7.17170167       0.00134552       0.00123569       0.00770664
H        8.43696690       8.77931917       7.08969442      -0.00144628      -0.00330268       0.00401193
H        8.57730246       8.87652667       5.33287742       0.00384837      -0.00208333       0.00466222
H       10.79415144       4.85555457       6.34482892       0.00655581       0.00059091       0.01389844
H        9.19132937       4.73265632       7.09556756       0.00505967       0.00047626       0.01051563
H        9.34689557       4.72538776       5.33509094       0.00881753      -0.00323962       0.01107429
H        6.34129603       9.69341296       6.13534656       0.00061000      -0.00559539      -0.00209111
H        6.16444510       8.29250214       5.07744773       0.00528495      -0.00533947      -0.00301516
H        6.01327076       8.11062255       6.83637927       0.00016400      -0.00617668      -0.00360255
O        2.30926685       6.46345873       5.06857108       0.00571528      -0.00613225      -0.00492924
C        2.27984391       7.29178245       3.91814190       0.00525364      -0.00710805      -0.00687283
C        2.22808352       7.27167917       6.23781891       0.00085205      -0.00573328      -0.00623196
C        2.37855771       6.43925251       2.67964871       0.00594910      -0.00988752      -0.00500965
C        2.28897286       6.39939194       7.46450021      -0.00235933      -0.00565198      -0.00592154
H        1.35826669       7.89059090       3.91306905       0.00490320      -0.00866744      -0.00811648
H        3.10839800       8.01103053       3.94802992       0.00436074      -0.00671524      -0.00756483
H        3.05535086       7.99210425       6.24555613       0.00029415      -0.00482655      -0.00334931
H        1.31098070       7.87091316       6.22225878       0.00002515      -0.00671184      -0.00907017
H        2.29820672       7.08124006       1.80319382       0.00639148      -0.01169875      -0.00641462
H        3.33323484       5.91266816       2.64639388       0.00568892      -0.01058602      -0.00332547
H        1.57919719       5.69847218       2.66325884       0.00552866      -0.00954545      -0.00396202
H        2.26488481       7.03981838       8.34663093      -0.00587329      -0.00581905      -0.00594828
H        1.44075700       5.71360709       7.50355050      -0.00184701      -0.00642236      -0.00910808
H        3.20585864       5.80773636       7.47823660      -0.00194879      -0.00484629      -0.00320501
O       10.58072815       3.32923725       1.86719362       0.01143599      -0.01318628      -0.01811871
C       10.91979731       2.39991098       0.85281085       0.02448732      -0.00896978      -0.01757997
C       11.37664025       4.50059968       1.75961681       0.00347649      -0.00724411      -0.01194409
C       10.16586412       1.10585255       1.05544458       0.03298730      -0.01460524      -0.02275738
C       11.05636559       5.45138777       2.88471378      -0.00878486      -0.01136428      -0.01203501
H       10.69381122       2.82971975      -0.13482765       0.02686454      -0.00909537      -0.01812479
H       12.00281812       2.21193184       0.88226312       0.02591991       0.00037247      -0.01160187
H       12.43917208       4.21877422       1.78527770       0.00523955       0.00052658      -0.00701357
H       11.19897955       4.97713492       0.78535075       0.00490484      -0.00699310      -0.01208937
H       10.55824565       0.31750498       0.36298897       0.03830975      -0.01644158      -0.02247607
H       10.30472115       0.74133851       2.07334723       0.03064670      -0.01502398      -0.02266526
H        9.09822235       1.22688232       0.87043499       0.03315529      -0.02156487      -0.02744022
H       11.62114669       6.37625895       2.76027051      -0.01151974      -0.00886397      -0.00580333
H        9.99363698       5.69475007       2.90236434      -0.00982673      -0.01564196      -0.01881114
H       11.33031805       5.02115777       3.84693522      -0.01388673      -0.01276100      -0.01113656
O        5.29926318       2.06563450       5.02860827       0.00275141       0.00569955       0.00639138
C        6.70337794       2.19684017       5.09984930       0.00203639       0.00972241       0.00778365
C        4.70869779       2.98945396       4.13115197       0.00000489       0.00775129       0.01013862
C        7.23838584       1.14651898       6.04438615       0.00394394       0.00994307       0.00688067
C        3.23190163       2.69867692       4.04258241       0.00136000       0.00200266       0.00753175
H        7.14009398       2.07314018       4.09653877       0.00316226       0.01217628       0.00809938
H        6.96873192       3.20691612       5.44390522      -0.00090004       0.00998044       0.00926486
H        4.88696060       4.01621117       4.48025535      -0.00452514       0.00677627       0.01513398
H        5.18084417       2.89081664       3.14151883       0.00159457       0.01445980       0.01023048
H        8.32009245       1.24159857       6.14204434       0.00416134       0.00966432       0.00464233
H        6.78650011       1.25176192       7.03071846       0.00530545       0.00973593       0.00757720
H        7.01244677       0.14724787       5.67234943       0.00305957       0.01015782       0.00698248
H        2.74572486       3.42729887       3.39447291      -0.00127741       0.00322619       0.01111469
H        3.07057379       1.70212631       3.63356626       0.00566958       0.00329360       0.00260590
H        2.76721936       2.75045568       5.02646250       0.00080701      -0.00473334       0.00763422
O        5.96094135       9.33533968       2.49240124       0.00178421      -0.00016478      -0.00514370
C        6.55692522       8.69780750       1.38567637      -0.00218944      -0.00169951      -0.00627595
C        6.28398079      10.70941783       2.58902024      -0.00376439       0.00129962      -0.01145074
C        5.89383501       7.35395694       1.20673206       0.00167227      -0.00447023       0.00075494
C        5.32306802      11.35026810       3.55466887      -0.00103736       0.00145078      -0.00877273
H        6.41870829       9.31515642       0.48727096      -0.00893870      -0.00486180      -0.00747067
H        7.64180327       8.58781195       1.54965884      -0.00069004       0.00279392      -0.01223986
H        7.32943044      10.82634212       2.92098559      -0.00242424       0.00695414      -0.01744837
H        6.18926114      11.17805285       1.60097064      -0.01052292      -0.00258455      -0.01283514
H        6.34276140       6.80453888       0.37815334      -0.00417869      -0.00284005      -0.00340275
H        5.98936265       6.75654567       2.11432359       0.01280794      -0.00401578      -0.00011529
H        4.83328900       7.50116668       1.00486189      -0.00062540      -0.00848545       0.01091628
H        5.54185571      12.40901419       3.68761595      -0.00446156       0.00282022      -0.01461911
H        4.31259735      11.24826534       3.16667833      -0.00300017      -0.00514595      -0.00231552
H        5.36734123      10.86582786       4.52934262       0.00732271       0.00586484      -0.00673704
