147
Lattice="12.68412328438692 0.0 0.0 0.0 12.68412328438692 0.0 0.0 0.0 12.68412328438692" Properties=species:S:1:pos:R:3:forces:R:3 energy=-377175.90625 stress="-0.002043257700279355 -0.00023248326033353806 -0.00024209095136029646 -0.00023248326033353806 -0.0009381750132888556 -0.00041097577195614576 -0.00024209095136029646 -0.00041097577195614576 -0.001040531788021326" pbc="T T T"
Pd      13.77328991      12.76193083      -1.20592806       0.00190796       0.01387290       0.00959159
S       12.08478506       9.70871800       9.44850097      -0.00709021       0.01084512       0.00492722
N       12.21712396      11.52131552      11.57059991       0.00192368       0.01461065       0.00002788
C       12.17425504      10.74353980      10.65495341      -0.00309918       0.01267505       0.00348395
S        8.83392200      11.25940413      10.89090980       0.00040901       0.00116962       0.01062673
N        6.49282986      12.30238321      12.04939150       0.00006104      -0.00273663       0.00549352
C        7.46715638      11.86444801      11.55021412      -0.02347469       0.00928116       0.01961432
S       10.34815790       7.59816860       1.65162097      -0.00660872       0.01965225      -0.01465321
O        9.19446454       6.64744095       1.59712022      -0.02493882       0.04203343      -0.00346759
C       10.71057930       8.03690762      -0.05087376       0.00267033      -0.00388139      -0.01804352
C       11.83781059       6.63896181       1.99483438      -0.02553648      -0.00453609      -0.00476414
H        9.86886407       8.62977744      -0.40925682       0.01670533       0.01198819      -0.02413457
H       10.81132967       7.12901773      -0.64519337      -0.01740469      -0.01048368      -0.01072614
H       11.61450254       8.64460271      -0.09077469       0.01624529      -0.02513386      -0.02234257
H       12.70881395       7.27622291       1.83092330      -0.01377801      -0.02300267      -0.01162399
H       11.87150136       5.75840193       1.35487508      -0.04189112      -0.01188000       0.00497098
H       11.79484260       6.34922568       3.04314048      -0.03030525       0.00757848      -0.00174209
S       10.42618085       2.16369801       1.92822167       0.00235808       0.01706588      -0.01662719
O       10.78378428       3.47147320       1.30001967       0.00973034       0.00661039      -0.03364438
C       11.99304171       1.42502709       2.45263209      -0.00163293       0.01504573      -0.00950502
C       10.09570102       1.01475407       0.58786036      -0.00610530       0.00231478      -0.00117522
H       12.47543537       2.13618215       3.11969319       0.00255048       0.01976924      -0.01780128
H       12.62305726       1.24996927       1.58021888      -0.00341999       0.00357414      -0.00835432
H       11.78436938       0.49539252       2.98063761      -0.00469238       0.02126000      -0.00018784
H       10.06356821      -0.01137335       0.94928887      -0.01255809       0.00783170       0.01290066
H       10.88766713       1.13150969      -0.15132271      -0.00634825      -0.01302301      -0.00357006
H        9.12062264       1.25893896       0.17186265      -0.00462350       0.00245442      -0.00374216
S        9.43418439       3.11714166       6.37713860       0.01216602      -0.00057203       0.00044763
O        8.22987893       3.98746618       6.52219637       0.01446474      -0.00087863       0.01793589
C       10.42610421       3.78327189       5.02957527      -0.00209230       0.00710401      -0.00571293
C        8.90248760       1.59602054       5.57877730       0.00279292       0.00572801      -0.00411385
H       10.73752773       4.78615559       5.32281643      -0.00351145       0.00744729      -0.00556995
H        9.83840110       3.82843105       4.11373749      -0.01079367       0.00719705       0.00018863
H       11.29709478       3.14095488       4.90017375      -0.00104276       0.01090140      -0.01596425
H        9.76379604       0.93467866       5.47775792       0.00074500       0.00578114      -0.01905339
H        8.46106849       1.79030030       4.60279712      -0.00735101       0.01310661       0.00231269
H        8.17261495       1.14074453       6.24593109       0.00959244       0.00115948       0.00004289
S        7.78640425      11.58293093       2.32140567       0.00349754       0.00014520       0.01414025
O        7.77126309      12.97883992       2.86379146       0.00337754      -0.00066495       0.01539040
C        6.07622785      11.04030345       2.24062869       0.00432658      -0.00031784       0.01051731
C        8.28016335      10.52243531       3.70103615       0.00202962      -0.00145456       0.01344001
H        5.63525622      11.59723226       1.41496736       0.00555533       0.00104593       0.01100229
H        5.57577325      11.24313215       3.18954943       0.00222139      -0.00327347       0.00991416
H        6.07045009       9.97694416       2.00026734       0.00577992       0.00034270       0.00783814
H        8.24203963       9.48113636       3.38172107       0.00511290      -0.00065728       0.01132229
H        7.62693873      10.70576609       4.55499702      -0.00063029      -0.00435650       0.01196298
H        9.30968199      10.77617233       3.94508396       0.00074141       0.00056134       0.01652626
S        3.27358371       2.37379771      11.46646613       0.01098385       0.01232654       0.01214021
O        2.79281241       1.02914174      10.88634051       0.00939429       0.00730431       0.02494913
C        2.85276380       3.61873970      10.23814434       0.00404356       0.00022840       0.00303602
C        5.01406135       2.24444446      11.14507934       0.00931823       0.01145637       0.00475717
H        1.81232317       3.88776546      10.39988571       0.00342262      -0.00273923       0.00323530
H        3.01145778       3.18877340       9.24935982       0.00260868      -0.00993155       0.00749207
H        3.47986474       4.49564846      10.39807536       0.00131874       0.00392802      -0.00778355
H        5.48418049       3.18273994      11.43301913       0.01001053       0.01451603      -0.00636511
H        5.14764908       2.04125950      10.08200349       0.00392698       0.00232604       0.00591466
H        5.39790507       1.39656626      11.72062485       0.01306266       0.01662138       0.01010716
S        3.37589842       1.33564972       3.98000023      -0.00259048      -0.01799560       0.00140120
O        3.41543971      -0.14951459       4.21777470       0.00126080      -0.01978242      -0.01159970
C        3.27812657       1.56620753       2.20045552       0.00258790      -0.00285346       0.00366586
C        5.04376350       1.97371617       4.17750476      -0.00583988      -0.01415583       0.01336836
H        2.38659489       1.04151080       1.86102957       0.00490184      -0.00169464      -0.00383995
H        4.16003824       1.12879030       1.72883782       0.00483315       0.00323846       0.00251444
H        3.17325616       2.63127015       1.98161161       0.00075299      -0.00134441       0.01274423
H        5.06155405       3.01700510       3.85979768      -0.00970023      -0.00958614       0.02840092
H        5.74051247       1.36283358       3.60047264      -0.00203156      -0.00265662       0.00610013
H        5.29066484       1.93725579       5.23630855      -0.00670291      -0.02849204       0.01267241
S        6.19184063       6.41343846       4.93217388      -0.01202005       0.00190151       0.00331104
O        5.52619853       5.23281636       4.30182220      -0.01610035       0.00243568       0.00657541
C        5.72254371       7.83889283       3.92772550      -0.00219899       0.00084847      -0.00227225
C        7.91242056       6.40356921       4.45969331      -0.01079047      -0.00958527       0.00727215
H        4.63514822       7.87330942       3.91668608      -0.00186162       0.00650865      -0.00524150
H        6.11487835       7.70830178       2.91788680       0.00049067      -0.00345356      -0.00056158
H        6.10298564       8.74714301       4.39309046       0.00079482      -0.00009766      -0.00324181
H        8.38363278       7.33654445       4.76562121      -0.00536406      -0.01213099       0.00634998
H        8.01484917       6.26886331       3.38290084      -0.00975890      -0.01027811       0.00760210
H        8.36876050       5.58849339       5.01171004      -0.01777181      -0.01171750       0.00989221
S       11.75538589       2.26666153       9.82265065       0.00624502      -0.00833529      -0.00948122
O       12.73912700       1.73505429      10.86558541       0.00292110       0.00593990       0.00079560
C       10.80887154       0.89347476       9.19976122       0.00984702      -0.01476994      -0.00127965
C       12.69976862       2.62605961       8.33181798       0.01302844      -0.02361425      -0.00825986
H       10.23186838       0.46591522      10.02414456       0.00830130      -0.01005195      -0.00022563
H       11.47000403       0.13883885       8.77270185       0.01097526      -0.01624054       0.00389574
H       10.12525580       1.29865264       8.45289705       0.01141642      -0.01928969      -0.00477350
H       11.97402094       2.79850485       7.53676783       0.01626182      -0.02283092      -0.01100127
H       13.35491485       1.78840764       8.09806118       0.00743550      -0.02952333      -0.00193438
H       13.27004225       3.53468927       8.50461963       0.01879940      -0.02684653      -0.01122987
S        8.80096835       4.44814633      10.27709799       0.00412238       0.03361154      -0.00992115
O        9.39172016       5.81757328      10.16374820      -0.01520848       0.04249394       0.00118686
C        7.17302724       4.52924340       9.51578885       0.00078094       0.01796736      -0.00353493
C        8.28907684       4.26118534      11.98817804       0.01004833       0.01027495      -0.01110405
H        7.34209836       4.74562842       8.46296040      -0.00599193       0.03149677      -0.00142625
H        6.56194043       5.29361499       9.99861114      -0.00914743       0.00262308       0.00692089
H        6.70791284       3.54956875       9.59615681       0.01666670       0.00972101      -0.01336795
H        7.70237230       3.34720486      12.09597144       0.01804487       0.00430900      -0.02081921
H        7.71906220       5.14424757      12.27291730       0.00316676       0.00184010       0.00062007
H        9.18849785       4.20043121      12.60290142       0.01164696       0.00945773      -0.01386687
S       10.93453705       7.83996914       6.77725613       0.00917274      -0.00382721      -0.00295520
O       10.76943777       7.35945919       5.36678240       0.00421754      -0.01093513       0.00019109
C       11.29545419       6.38182363       7.77171300       0.01530124       0.00209820       0.00333899
C        9.29027534       8.12133317       7.46975964       0.01145917      -0.00231987      -0.00015819
H       12.26068856       6.00705494       7.43643837       0.01552206       0.00316540       0.00273822
H       10.50520678       5.64863711       7.60831652       0.01707178      -0.00076720       0.00884950
H       11.32067964       6.64913188       8.82591468       0.01751790       0.00825141       0.00161242
H        9.39473047       8.31252144       8.53698789       0.01352439       0.00517355      -0.00192203
H        8.67351957       7.24003627       7.29284790       0.01293875      -0.00458477       0.00761677
H        8.86792478       8.99531390       6.97743042       0.00870936      -0.00735991      -0.00661529
S        3.48231790       5.34537213       0.49592334      -0.00906456      -0.01193017       0.01125085
O        2.51510298       4.66727703       1.41197461      -0.00269186      -0.00761718       0.02052772
C        5.13254823       5.06813360       1.16067984      -0.00463015      -0.00244063       0.00418466
C        3.40764573       7.09907568       0.87401977      -0.01196593      -0.00992405      -0.00037706
H        5.38705088       4.02486267       0.97726467      -0.00027611      -0.00145200       0.00595589
H        5.13275436       5.25818208       2.23691904      -0.00184961       0.00011984       0.00363711
H        5.83930527       5.71599451       0.64268019      -0.01040621      -0.00005563      -0.00050227
H        4.14888649       7.61763500       0.26687492      -0.01523764      -0.01246133      -0.00630446
H        3.56095832       7.21811362       1.94656401      -0.00804101      -0.00309034      -0.00188598
H        2.41578082       7.43535629       0.58032492      -0.01405475      -0.01415102       0.00198504
S        5.28338644       8.28773505       9.75019717       0.00912225      -0.01773536       0.00442958
O        4.41494179       7.44293883      10.64399032       0.01446700      -0.02482200       0.00293159
C        6.86521407       8.43294483      10.57667815       0.00795233      -0.00916746       0.00478852
C        4.78433109      10.00715584       9.96812210      -0.00134476      -0.02163792       0.00720730
H        7.39678741       7.48600404      10.49117320       0.01615025      -0.00380814       0.00061890
H        6.68387500       8.68600841      11.62230357       0.00504009      -0.01604634       0.00574787
H        7.44912697       9.23391025      10.11985666       0.00113709      -0.00240451       0.00862572
H        5.40807322      10.62197902       9.32091221      -0.00948516      -0.01868830       0.00237919
H        4.89756921      10.31149636      11.00801323       0.00393617      -0.01927979       0.00601161
H        3.74623818      10.08458303       9.65172420      -0.00384723      -0.02846526       0.01427560
S        1.60450743      10.32675781       0.80686229      -0.00722083       0.00393486      -0.01079151
O        2.15459882      11.58889813       0.10321194       0.00017126       0.00243509      -0.00855714
C        0.19682308      10.79019326       1.82747368       0.00632846       0.01328570       0.00262922
C        2.75196631      10.13853223       2.16373462       0.00565818      -0.01035949      -0.02498823
H       -0.58236771      11.14366070       1.15706676       0.00201873       0.01778000       0.01030397
H        0.50719723      11.54366842       2.54768160       0.01811373       0.01132846      -0.00060876
H       -0.12957752       9.88064519       2.33762247       0.00501134       0.01559736       0.00566248
H        2.35960113       9.36299062       2.82295858       0.01103935      -0.01330288      -0.02582754
H        2.84522346      11.08268467       2.70805823       0.01446182      -0.01439261      -0.02008703
H        3.70859486       9.82801742       1.75658130      -0.00069286      -0.01054142      -0.03935565
S        3.61748416       9.48464185       5.99965458      -0.01156068       0.00251228      -0.00180352
O        4.86597720       9.96630025       6.65525149      -0.00805807      -0.00415725      -0.00400329
C        2.22919993      10.39168333       6.69167246      -0.00429940       0.01498750      -0.00386769
C        3.23132808       7.87363588       6.72934119      -0.02305542       0.00898993       0.00475186
H        2.33682534      11.41467993       6.33765495      -0.00057717       0.01059900      -0.01082884
H        2.25177939      10.33577470       7.77931112      -0.00005906       0.02236505      -0.00368817
H        1.30313225       9.95614135       6.31497581      -0.00808956       0.01800822       0.00262169
H        2.39406567       7.42863429       6.19098071      -0.03255047       0.01741549       0.01285093
H        3.00688857       7.97326924       7.79145509      -0.01375850       0.01495663       0.00602621
H        4.12274619       7.26184309       6.59778811      -0.03160504      -0.00195753      -0.00051115
