138
Lattice="12.722639767213543 0.0 0.0 0.0 12.722639767213543 0.0 0.0 0.0 12.722639767213543" Properties=species:S:1:pos:R:3:forces:R:3 energy=-201594.5 stress="0.0006620413041673601 3.840609588223742e-05 0.0001147338371083606 3.840609588223742e-05 0.00043505695066414773 9.054154361365363e-05 0.0001147338371083606 9.054154361365363e-05 -0.0001180534964078106" pbc="T T T"
Pd      13.63545013      15.71320338       0.23674935       0.00483647       0.00047480      -0.00556454
F        9.71573974      13.38352341       2.28157664      -0.02488124      -0.02587298      -0.00188533
F        3.54362233      14.11959291       5.30248326      -0.00026655       0.01260072      -0.03652334
O        5.61089527       4.98546773       8.85688212      -0.00132468      -0.00185284       0.00190458
C        5.92902461       6.34641967       9.07598009      -0.00213957      -0.00141880      -0.00176358
C        4.77191462       4.80495689       7.71596075       0.00662139      -0.00536323      -0.00203592
C        6.86251860       6.45084442      10.25756799      -0.00426209       0.00024855      -0.00091416
C        4.54997123       3.33497390       7.48460417       0.00773711      -0.00510138       0.00312511
H        6.40233340       6.77146598       8.17871912      -0.00060844      -0.00399815      -0.00224161
H        5.00642052       6.91847035       9.26073793      -0.00259775      -0.00129846      -0.00466774
H        3.82027293       5.33437698       7.88328580       0.00435704      -0.00666553      -0.01096974
H        5.25254734       5.27655402       6.84585529       0.01301458      -0.01137626      -0.00170994
H        7.12630244       7.49315390      10.44213920      -0.00505474       0.00058234      -0.00255765
H        6.39188944       6.04566507      11.15415186      -0.00574927       0.00073165      -0.00138974
H        7.78155315       5.89861751      10.06742827      -0.00409400      -0.00006145       0.00070290
H        3.95075646       3.11394962       6.59642359       0.01574525      -0.00074743      -0.00260755
H        5.50302240       2.82122124       7.35100157       0.00893717      -0.00579461       0.01463147
H        4.04086217       2.88846473       8.34039895      -0.00161209       0.00005037       0.00016350
O        3.51597192      10.19590942       7.12100045      -0.00635844       0.00063926       0.00287826
C        4.92220961      10.38004455       7.11192477      -0.00742009       0.00585222       0.00424078
C        3.12665505       8.87142206       7.40182483      -0.00289834      -0.00023270       0.00238851
C        5.21669003      11.83551161       6.85110254      -0.01265608       0.00752032       0.00484522
C        1.62615867       8.78377460       7.25837113      -0.00281680      -0.00468957       0.00218477
H        5.34263806      10.04217463       8.07375125      -0.00727636       0.00395727       0.00327307
H        5.36515959       9.74193804       6.33113887      -0.00249413       0.00971234       0.00352183
H        3.62025247       8.17089844       6.70926468       0.00032046       0.00318331       0.00149587
H        3.43904807       8.59220789       8.42009790      -0.00096588       0.00235288       0.00241220
H        6.28180844      11.98203286       6.66059924      -0.01227978       0.01043907       0.00971165
H        4.65363327      12.21977339       5.99836235      -0.00801089       0.00141127      -0.00075203
H        4.92946281      12.44830024       7.70565345      -0.01943512       0.01178458      -0.00023572
H        1.27643320       7.77489864       7.47974907       0.00234449      -0.00639160       0.00201004
H        1.14041567       9.48215933       7.94018072      -0.00599661      -0.00733098       0.00286989
H        1.33280139       9.04094709       6.24051011      -0.00487352      -0.00635438       0.00216118
O        8.78771182      10.63519267      10.65554211       0.00112872       0.00056529       0.00306924
C       10.13882227      10.59937648      11.07880882       0.00178316      -0.00221300       0.00078466
C        8.22310149      11.93162249      10.75880760       0.00471550       0.00214169       0.00221598
C       10.63187950       9.17624891      10.98948771      -0.00226613      -0.00367421       0.00371293
C        6.83091845      11.89408519      10.18101365       0.00341523       0.00478773       0.00522897
H       10.74037276      11.26591969      10.44261799       0.00243482      -0.00524831      -0.00173277
H       10.21673563      10.97724817      12.10888364       0.00443625       0.00016679      -0.00008649
H        8.20983591      12.24675955      11.81269542       0.00788359       0.00381127       0.00196666
H        8.84884818      12.65108257      10.21037338       0.00518382      -0.00012159      -0.00016445
H       11.67440153       9.11801168      11.30385710      -0.00166529      -0.00566117       0.00149418
H       10.03792994       8.52820172      11.63488674      -0.00260578      -0.00024740       0.00678101
H       10.55328092       8.80323230       9.96774541      -0.00552683      -0.00642396       0.00483596
H        6.36145071      12.87575579      10.24961261       0.00624195       0.00614548       0.00434158
H        6.86241533      11.60629419       9.13160290       0.00069256       0.00268412       0.00560528
H        6.20932059      11.17484547      10.71628915       0.00281422       0.00713965       0.00772794
O        9.10592057       7.31145424       7.35271653      -0.00053263      -0.00251443       0.00272402
C        9.60074847       6.09759965       6.81761903       0.00155777      -0.00162476       0.00216898
C        9.41942576       8.41642608       6.52182852      -0.00137247      -0.00152743       0.00376587
C        9.30186406       4.97657644       7.78108707       0.00134382      -0.00282779       0.00072503
C        8.84745454       9.67109185       7.13252712      -0.00457458      -0.00290298       0.00361335
H        9.13515359       5.90765552       5.83806361       0.00279480      -0.00119193       0.00140950
H       10.68409975       6.18607685       6.64596832       0.00162667      -0.00035608       0.00357783
H       10.51218750       8.49602957       6.41444859      -0.00136691       0.00048641       0.00513340
H        9.00861383       8.24745992       5.51602252       0.00016525      -0.00155874       0.00303280
H        9.69856130       4.03618158       7.39830886       0.00179822      -0.00231479      -0.00015377
H        9.76487479       5.17563752       8.74803633       0.00026860      -0.00375327       0.00146392
H        8.22726057       4.86037674       7.92878542       0.00119385      -0.00332380      -0.00035893
H        9.11562532      10.53826367       6.52827795      -0.00570320      -0.00210062       0.00415236
H        7.75991464       9.61291217       7.18343926      -0.00457501      -0.00522684       0.00209432
H        9.22135751       9.82094060       8.14501730      -0.00621085      -0.00258628       0.00421405
O        4.21183442       7.83899222       3.55781995      -0.00121909       0.00380850      -0.00034299
C        5.45308511       7.46750050       4.13196947      -0.00198427       0.00160843      -0.00025410
C        3.95580608       9.23230635       3.68167315       0.00065047       0.00382787       0.00141126
C        5.67263617       5.99362698       3.89533405      -0.00432326       0.00205559      -0.00284542
C        2.66227064       9.55155310       2.97642765       0.00244159       0.00748672      -0.00064884
H        6.25971056       8.06325614       3.68296246      -0.00105003       0.00232556       0.00200811
H        5.44366583       7.68432002       5.21161043      -0.00384077      -0.00275654       0.00043625
H        3.88472141       9.51183920       4.73919184      -0.00107908       0.00315842       0.00172687
H        4.79174282       9.80019553       3.24835482       0.00340384       0.00120673       0.00311407
H        6.60641233       5.67317417       4.35977911      -0.00474726      -0.00071831      -0.00428702
H        4.85999169       5.40128777       4.31680505      -0.00638087       0.00425507      -0.00353529
H        5.73222720       5.77680219       2.82817658      -0.00335850       0.00406424      -0.00297469
H        2.42956936      10.60897542       3.10278791       0.00551208       0.00823395      -0.00163799
H        2.73126484       9.32795243       1.91089317       0.00341392       0.00757094      -0.00064193
H        1.84590102       8.96254395       3.39597058      -0.00044970       0.01025991      -0.00190423
O       11.47010596       3.95833110       1.59947559       0.00864349       0.00183753      -0.00080131
C       10.31162041       4.06153391       0.76515838       0.01131579       0.00263119      -0.00466848
C       12.12816662       2.73018117       1.51193588       0.00759941       0.00130266      -0.00204208
C        9.84655134       5.49373289       0.75727652       0.00788470       0.00136507      -0.00065224
C       12.74416769       2.32229809       2.82445927       0.00374080       0.00386626      -0.00116959
H       10.56568495       3.71568778      -0.24419676       0.01607630       0.00794937      -0.00523201
H        9.53122863       3.39722216       1.16219408       0.01153865      -0.00033805      -0.00977644
H       10.42161238       1.25966506       2.24036014       0.03308883       0.02124745       0.00411633
H       11.49440712       1.97248407       1.01538808       0.00790679       0.00253552       0.00031901
H        8.94847051       5.58538831       0.14489998       0.00823295       0.00062474      -0.00123454
H        9.60749154       5.83104120       1.76580845       0.00585719      -0.00247665       0.00000218
H       10.61570597       6.14582123       0.34476643       0.00634052       0.00525585       0.00295230
H       12.95483041       1.25276912       2.83087567       0.03619738       0.01133731      -0.01348920
H       13.69297853       2.82788164       3.02056251      -0.01494241       0.02914688       0.01755585
H       12.08261014       2.56757089       3.66539339      -0.01174545      -0.03012803      -0.00373918
O        7.37964860       1.60726562       4.54326259      -0.00675917       0.00069153       0.00195423
C        6.41637737       2.41095539       3.85842249      -0.00062907      -0.00005312      -0.00927280
C        8.47419806       2.37650695       4.96524140      -0.00352085      -0.00164796       0.00083491
C        5.26241316       1.57256041       3.39339618       0.00049944       0.00371313      -0.01725733
C        9.46860382       1.49252621       5.68014773      -0.00501212      -0.00635564       0.00016397
H        6.06208806       3.19341444       4.54713987      -0.00150555      -0.00100088      -0.00776923
H        6.93636337       2.93216277       3.03333348       0.00837559      -0.00263530      -0.00357592
H        8.94895053       2.86099791       4.09385130       0.00654009      -0.00098233       0.00588715
H        8.13265424       3.18804050       5.62915142      -0.00622758      -0.00180072       0.00016165
H        4.70612349       2.12870920       2.63264142      -0.00153549      -0.00106211      -0.02075085
H        5.62366906       0.64144300       2.94903897      -0.01548097      -0.01611307       0.00874448
H        4.46303846       1.38812392       4.28947042      -0.00170088       0.02329560      -0.00865948
H       10.34075814       2.07121875       5.98924396      -0.00225742      -0.01096660       0.00453965
H        9.01738299       1.04458381       6.56638950      -0.01127180      -0.00424536      -0.00219299
H        9.80441897       0.69162069       5.02182830      -0.00545792      -0.00900418       0.00084168
O        7.37574720       9.53530562       1.90768464      -0.00405889       0.00004002       0.00051901
C        8.15902209      10.69130776       2.15743608      -0.00258356      -0.00151526       0.00112593
C        6.60566633       9.65420991       0.72610245      -0.00124478      -0.00020510      -0.00175875
C        8.95742278      10.45811571       3.41402155      -0.00670457      -0.00142327       0.00357318
C        5.84245770       8.36813184       0.52297672      -0.00284249       0.00075638      -0.00185373
H        8.82136786      10.87927993       1.30059715       0.00043720      -0.00383756       0.00267628
H        7.51235076      11.57223240       2.26739163      -0.00089025       0.00017181      -0.00154842
H        5.91600202      10.50817935       0.81888953       0.00017542       0.00115645      -0.00432215
H        7.26857623       9.85582295      -0.12713429       0.00108197      -0.00243869      -0.00047100
H        9.57730097      11.32684196       3.62639900      -0.00539747      -0.00213404       0.00431269
H        8.28748841      10.29526245       4.25788883      -0.00934143       0.00080814       0.00189398
H        9.59910817       9.58267933       3.30299822      -0.00779563      -0.00262670       0.00633056
H        5.25686886       8.41574249      -0.39654817      -0.00138190       0.00058464      -0.00281842
H        6.53910838       7.53274714       0.44133303      -0.00390498      -0.00037347      -0.00003002
H        5.16780933       8.17412839       1.35782335      -0.00442506       0.00251377      -0.00269192
O        2.62202316       3.08333697      11.58138984       0.00530514       0.00127428      -0.00890681
C        2.89465162       1.78942514      11.02183408       0.00573140      -0.00019553      -0.00435196
C        3.79481689       3.77449436      12.04099164       0.00427854       0.00134024      -0.00651150
C        1.61082984       1.26145972      10.43749305       0.00403327      -0.00255734       0.00148746
C        3.40028525       5.18969326      12.37604034      -0.00233313      -0.00377259       0.00604592
H        3.67129959       1.90146778      10.26055021       0.00344911      -0.00256133      -0.00694874
H        3.27477895       1.13313996      11.81358003       0.00840653       0.00335592      -0.00228670
H        4.19478479       3.25065935      12.91667618       0.00806742      -0.00415236      -0.01142657
H        4.53888983       3.74964865      11.23842892       0.00259355       0.01096650      -0.00843444
H        1.74919018       0.24278937      10.07674669       0.00228781      -0.00387383       0.00458386
H        0.82814235       1.25994959      11.20990419       0.00854338      -0.00011235       0.00646031
H        1.28055272       1.88150302       9.60518822       0.00065364      -0.00518627       0.00050505
H        4.24543080       5.72323686      12.81103215      -0.00504333      -0.00208358       0.00922773
H        3.07741467       5.71972849      11.47964033      -0.00736721       0.00094306       0.01064721
H        2.58277075       5.19688158      13.10232260      -0.00142987      -0.01675936       0.00751135
