147
Lattice="12.426695210396941 0.0 0.0 0.0 12.426695210396941 0.0 0.0 0.0 12.426695210396941" Properties=species:S:1:pos:R:3:forces:R:3 energy=-225544.203125 stress="0.0005294354632496834 0.0005258065066300333 -0.00012855264503741637 0.0005258065066300333 0.00047687379992567003 -0.0002830143930623308 -0.00012855264503741637 -0.0002830143930623308 0.0007333359098993242" pbc="T T T"
Pd      11.46098884      13.30074191      -0.22299262      -0.02067143       0.01121765      -0.01343977
F        1.29226564      12.06946860       4.47812904       0.00041372       0.01517022      -0.00811446
F        0.86606015      13.41915045      -0.90312324      -0.02693952       0.01329319      -0.03574213
O        3.72730181      11.70429098      10.02719002       0.00658703       0.00131124      -0.01938367
N        4.96281245       9.82484929      10.41978655      -0.00162459      -0.00072926      -0.00736138
C        3.81255242       9.01155319      10.75845596      -0.00510475       0.00498876      -0.00440592
C        6.24368141       9.16977587      10.26257565      -0.00233842      -0.00492093       0.00547163
C        4.79550167      11.11883889      10.07950542       0.00356328      -0.00246793      -0.01588936
H        4.10264825       8.30669928      11.53674961      -0.00733413       0.00591990      -0.00264964
H        3.44003178       8.47146115       9.88193918      -0.00789676       0.00405431      -0.00252146
H        3.02455101       9.66432418      11.12521670      -0.00262722       0.00855780      -0.00545023
H        6.43618839       8.53128389      11.12507276      -0.01041442       0.00178319       0.01200375
H        7.04240092       9.90787222      10.19787348      -0.00014213      -0.00713634       0.00453532
H        6.25667972       8.55137511       9.35859789       0.00192509      -0.01244582       0.01092958
H        5.75875835      11.61353843       9.85506005       0.00622386      -0.00845981      -0.01969662
O        6.50239004       3.57875434       8.35246360      -0.00575936      -0.01167858      -0.00182474
N        5.19542591       3.16517232      10.18573987      -0.00398336      -0.00347585       0.00118208
C        5.80114484       4.18683530      11.01634955      -0.00233664      -0.00024199      -0.00417493
C        4.12263336       2.38153407      10.77877442      -0.00555065       0.00149740       0.00468230
C        5.61968192       2.95007634       8.93347209      -0.00470233      -0.00959477       0.00152147
H        6.04878053       3.75054228      11.98351280      -0.00625043       0.00501785      -0.00078744
H        5.09596291       5.00595193      11.19147743       0.00044334       0.00362110      -0.01089386
H        6.69929185       4.56972953      10.53782986       0.00024104      -0.00650608      -0.00422829
H        4.46207361       1.95709283      11.72381862      -0.00682065       0.00708923       0.00757062
H        3.83008550       1.56788526      10.12011835      -0.00522240      -0.00219876       0.00903490
H        3.25265995       3.00943288      10.98497966      -0.00498042       0.00407937      -0.00013282
H        5.07615740       2.12006011       8.45074349      -0.00426066      -0.01254022       0.00603744
O        9.25347322      10.49886154      10.81155425       0.00488722       0.00636783      -0.00471485
N       11.39300665      10.57376973       9.99592933       0.00894552       0.00693366       0.00325075
C       12.03139459      10.15732616      11.22566995       0.00445297       0.01348495       0.00750475
C       12.25926866      10.83782642       8.86551098       0.01413412       0.00092403       0.00545595
C       10.05459258      10.69471082       9.90917778       0.01022816       0.00426918      -0.00485313
H       12.67651627      10.95567258      11.60306678       0.00781304       0.01332927       0.00147113
H       12.64267315       9.27171144      11.04074775      -0.00072862       0.00811189       0.01656187
H       11.25900206       9.90797996      11.94600727       0.00169325       0.02440831       0.00814064
H       13.01414320      11.57754773       9.13957728       0.01377699       0.00128978       0.00573225
H       11.67059841      11.20998486       8.02853586       0.01834860      -0.00177237       0.00140622
H       12.77681185       9.92723186       8.55028419       0.01420471      -0.00106740       0.01170199
H        9.73306039      11.00917585       8.89984842       0.01274300      -0.00108916      -0.00592571
O       10.57806136       7.43421339      10.68899823       0.01431751       0.00250638       0.01178384
N       10.83308141       6.89320899       8.47937428       0.00637996       0.00311406       0.00510351
C        9.45266097       7.13090844       8.12291508       0.00507340      -0.00347494       0.00997114
C       11.70751027       6.38123658       7.45325514       0.00332551       0.00716629      -0.00384170
C       11.25443956       7.05375010       9.75436832       0.02518398      -0.00116414      -0.01081204
H        8.96698263       6.19076947       7.84707868       0.00586553      -0.00436383       0.01392376
H        9.39553170       7.82320871       7.27945737      -0.00356636      -0.00268522       0.01215422
H        8.94425128       7.55464213       8.98526936       0.00814843      -0.00494758       0.01491216
H       11.36675618       5.40062654       7.10536976       0.00407948       0.00661752      -0.00456110
H       12.71654240       6.28512452       7.84923956       0.00589350       0.00994440      -0.01108800
H       11.74178720       7.06403821       6.60143839      -0.00433138       0.00922647      -0.00339130
H       12.32636859       6.80414568       9.85955350       0.01489794       0.00917976      -0.00853169
O        2.68818841      10.54122208       2.00143080       0.00090039       0.00939548      -0.00581193
N        1.81674162       8.86633057       3.24724688      -0.00131707       0.01147729       0.00219707
C        2.37102377       7.82636746       2.40656732      -0.00521614       0.00657515       0.00602524
C        0.97918258       8.45621163       4.35074017      -0.00167610       0.01731963       0.00539902
C        2.03618821      10.18404951       2.97913187       0.00202262       0.01047921      -0.00349021
H        1.57895077       7.26903585       1.89399491      -0.00775725       0.00658965       0.00985587
H        2.95424877       7.12392920       3.01055096      -0.00529057       0.00730245       0.00714731
H        3.02749414       8.28789595       1.67139300      -0.00619785       0.00293529       0.00302503
H        0.09766322       7.91706984       3.98321566      -0.00487742       0.01977332       0.00882445
H        0.65791521       9.34143397       4.89758372       0.00332165       0.02004442       0.00392443
H        1.52729506       7.80958763       5.04024007      -0.00274193       0.01700827       0.00599891
H        1.59923316      11.13803146       3.79659229      -0.00003237       0.00760972      -0.00971925
O        9.55969503       1.06983811       0.52696986      -0.01212493       0.00267589       0.00847307
N       10.41371202       2.60530169       2.03310715       0.00092343      -0.00362957       0.00678980
C       10.27058341       1.70460110       3.15657411       0.01630516      -0.01100391       0.00266125
C       11.22997179       3.77676047       2.21412915      -0.00501560       0.00025490       0.00592927
C       10.16472689       2.17276503       0.76397740      -0.01184008       0.00305599       0.00741029
H        9.86653483       2.25729610       4.00629107       0.02022679      -0.01858984       0.00929880
H       11.22374453       1.25211456       3.44805259       0.02158827      -0.00640753      -0.00822367
H        9.57619682       0.91683781       2.87934723       0.01898392      -0.01373059       0.00354320
H       10.83315057       4.40154245       3.01787754       0.00114714      -0.00927950       0.01603052
H       11.24202307       4.35816742       1.29222511      -0.02076429       0.00781722       0.01081669
H       12.25805793       3.49912123       2.46848633       0.00008613       0.00622074      -0.00945878
H       10.19544587       2.99121537       0.02732928      -0.02142137       0.00681466       0.01135617
O        8.66419048       0.47060029       6.38081925      -0.01172864       0.00506568       0.02650321
N        7.21637985       1.88466588       5.30681272       0.00000796       0.00031872       0.00559139
C        6.62660843       0.87634739       4.45068936       0.00183909      -0.00474092       0.01037399
C        6.73738794       3.23687151       5.17251081      -0.00084582      -0.00095594      -0.00265639
C        8.18188160       1.57456222       6.20089356      -0.00683236       0.00443065       0.01482800
H        6.78801530       1.13051640       3.40006254       0.00304966      -0.00996403       0.00928348
H        5.54760980       0.81753288       4.62305792       0.00165248      -0.00491819       0.00929387
H        7.08013254      -0.08477582       4.67702706       0.00217950      -0.00336733       0.01554453
H        6.92659664       3.61822086       4.16479482      -0.00247086      -0.00779221      -0.00546724
H        7.22736424       3.86338740       5.91317102       0.00048010       0.00426796      -0.00789323
H        5.66123316       3.27899924       5.36438634      -0.00052750       0.00003238      -0.00105063
H        8.50119344       2.46424494       6.77156986      -0.00832219       0.00833148       0.00995433
O        7.43949752       9.52154150       4.31553343      -0.00466371      -0.01203716       0.00030422
N        7.03473825      10.58046820       2.32605881      -0.00059053      -0.00745434       0.00217941
C        5.59585779      10.61806918       2.48156639      -0.00099964      -0.00755543      -0.00055790
C        7.56390401      11.08910467       1.07815634       0.00241594      -0.00274591       0.00540058
C        7.81915693      10.01623664       3.26246014      -0.00299518      -0.00984484       0.00321305
H        5.11584530       9.98621666       1.73588414       0.00016516      -0.00407436      -0.00423077
H        5.22555151      11.63586033       2.34926084      -0.00057985      -0.00693214       0.00325760
H        5.33559046      10.26061079       3.47357961      -0.00308655      -0.01181285      -0.00270930
H        7.13542894      10.54358811       0.23511582       0.00405639       0.00113520       0.00209796
H        8.64490231      10.98539648       1.04195571       0.00254339      -0.00353213       0.00751420
H        7.32535265      12.14753681       0.95895566       0.00379976      -0.00208774       0.00918884
H        8.88698418      10.05079561       2.97903386      -0.00198621      -0.00878121       0.00493696
O        5.19999373       2.93552273       1.71646446      -0.00298083       0.00771487       0.00175858
N        3.29133261       2.74245276       2.97384208      -0.00297052      -0.00699037      -0.00088514
C        2.75246048       1.57333522       2.28955187       0.00398335      -0.00647849      -0.00749163
C        2.50847367       3.29103755       4.05960544      -0.00687078      -0.01685124       0.00159834
C        4.44343229       3.31491650       2.60423777      -0.00567871       0.00012656       0.00350422
H        1.91308740       1.85675323       1.64914743       0.01027894      -0.00561491      -0.01530200
H        2.40396801       0.85054963       3.02950448      -0.00358327      -0.00599134      -0.01061893
H        3.52467634       1.13911118       1.66460802       0.00988257      -0.00676702      -0.00036547
H        1.59713510       3.76807625       3.68881751      -0.00681832      -0.01525788       0.00332922
H        3.09490948       4.04267699       4.58734367      -0.00928603      -0.02022901       0.00908858
H        2.22335517       2.49188182       4.74620909      -0.00738089      -0.02328852      -0.00614519
H        4.66840289       4.21176495       3.21028273      -0.00969705      -0.00201207       0.00800216
O        5.60018590       7.65325934       0.84864716      -0.00038946      -0.00534499      -0.00729376
N        7.46581108       6.35881052       1.12788349       0.00031403      -0.00357785      -0.00551351
C        8.41588197       7.41360856       0.83443336       0.00024459      -0.00420825      -0.00696787
C        8.00153893       5.03986262       1.38355773       0.00007008      -0.00251502      -0.00077674
C        6.14322483       6.58695019       1.11353386      -0.00079691      -0.00324249      -0.00595400
H        8.97248491       7.19295029      -0.07699214       0.00396746      -0.00828263      -0.00375310
H        9.12082322       7.50844339       1.66406342      -0.00266461       0.00034400      -0.00487602
H        7.87402405       8.34667081       0.72065194       0.00045717      -0.00494584      -0.01342679
H        8.58652608       4.70809692       0.52252731       0.00160789      -0.00434448       0.00094318
H        7.18760128       4.33614656       1.55656827       0.00001976      -0.00239073      -0.00038023
H        8.64806235       5.06142276       2.26485514      -0.00143100       0.00021404       0.00024313
H        5.56799732       5.67966422       1.36171642       0.00028348      -0.00404841      -0.00439657
O        9.30961030       4.49770940      10.61406864      -0.00154177      -0.00189054      -0.00359392
N       10.66332299       2.98022022       9.56825713       0.00271159       0.00126013      -0.00518326
C       11.90690609       3.55741656      10.03613741       0.00179188       0.00896692      -0.01190829
C       10.75663698       1.74848051       8.81566361       0.00659649      -0.00015472      -0.00328538
C        9.47223210       3.51053904       9.90460048       0.00195926      -0.00591666      -0.00341576
H       12.50566366       3.89207855       9.18322053      -0.00844795       0.01892942      -0.01507238
H       12.48268032       2.80883125      10.58944806       0.01082003       0.00987786      -0.02049872
H       11.67229562       4.40873564      10.67004571       0.00008962       0.00409552      -0.00587970
H       11.34745201       1.89324419       7.90721402       0.00470802       0.00043696      -0.00436065
H        9.76565905       1.40450270       8.52915136       0.00747389      -0.00455727      -0.00124842
H       11.24079936       0.98249104       9.42788690       0.01108257       0.00302757      -0.00287086
H        8.62564547       2.96217691       9.46371724       0.00327873      -0.01061833       0.00293362
O        2.89131505       8.36189407       7.15411296      -0.01078427      -0.00949755       0.00128463
N        4.71533864       6.99816952       7.28293359      -0.00406569      -0.00036129      -0.00253148
C        3.97626534       5.88258815       7.82722388       0.00228424      -0.00252089       0.00171831
C        6.13835194       6.82446603       7.10561373      -0.00450353       0.00418067      -0.01051804
C        4.08435616       8.15936885       6.99484940      -0.01135767      -0.00414366      -0.00301314
H        4.29639068       5.67095694       8.85014093       0.00767314      -0.00048521       0.00044611
H        4.15678839       4.98613983       7.23113677       0.00263713      -0.00234783       0.00151707
H        2.92051132       6.13790785       7.81595972       0.00146165      -0.00598173       0.00625713
H        6.60420389       6.55225498       8.05524998       0.00136916       0.00444550      -0.01336607
H        6.57860108       7.74299950       6.72055945      -0.00897358       0.00575438      -0.01184150
H        6.33960050       6.01536396       6.39975981      -0.00632444       0.00570670      -0.01287414
H        4.77258363       8.91852564       6.58701853      -0.01649475      -0.00143111      -0.00754449
