147
Lattice="12.139706602100045 0.0 0.0 0.0 12.139706602100045 0.0 0.0 0.0 12.139706602100045" Properties=species:S:1:pos:R:3:forces:R:3 energy=-225782.140625 stress="0.000650032190605998 -0.0004853532591369003 -0.0002058864847640507 -0.0004853532591369003 0.0010109390132129192 -0.000563108769711107 -0.0002058864847640507 -0.000563108769711107 -1.9722261640708894e-05" pbc="T T T"
Pd      12.50525441      12.11124644       0.30801951       0.00714540      -0.01640262       0.01091254
O        1.68074601      10.57789652      -0.00973520      -0.00911593      -0.03029697       0.00996512
O        2.52098337      11.94693999       1.50610211       0.01247253       0.00097764      -0.03366524
C        3.78072971       9.98760830       0.93065365       0.00417274      -0.01211590      -0.00493781
C        2.59192928      10.90753874       0.82264403       0.00332648      -0.01490867      -0.01051743
H        4.42653435      10.30421951       1.74669446      -0.00180228      -0.00989246      -0.00176241
H        4.34359115      10.00864525      -0.00423892       0.00989348      -0.00775252      -0.00104250
H        3.44256790       8.96507498       1.09480496       0.00660085      -0.01292139      -0.00975673
O       -0.05691110      10.00761378       5.50142657      -0.01573730       0.02195764      -0.01681137
O       -0.05890338      11.98752221       4.43211355       0.02094042       0.00602221      -0.04480767
C        1.62230100      11.60667410       6.07333305      -0.00863647       0.01242954      -0.01262587
C        0.39132991      11.16236017       5.26069187       0.00061667       0.01343381      -0.02617657
H        2.33446479      12.12575671       5.42926698      -0.00344130       0.01660937      -0.00211334
H        2.10938043      10.76464614       6.57032190      -0.01330626       0.01128792      -0.00991639
H        1.29217149      12.31025818       6.84045230      -0.01865005       0.00798479      -0.01383683
O        8.30660297       8.54079174      10.64454612      -0.00686657       0.00718189      -0.00458378
N        6.53745597       9.40090919       9.48972016      -0.00491779       0.00494984      -0.00212295
C        7.30903646      10.46248774       8.87751036      -0.00497137       0.00341253      -0.00401069
C        5.11926355       9.36812574       9.22897505      -0.00013177      -0.00331783      -0.00672486
C        7.13499144       8.51497748      10.31954064       0.01154840       0.00781858      -0.00085348
H        7.05507877      11.43613351       9.30484452      -0.01320915       0.00643468      -0.01348549
H        7.10023673      10.49448290       7.80792652       0.00117120      -0.00464176      -0.00632304
H        8.36527820      10.26368727       9.03322108      -0.00450861       0.01068026       0.00230880
H        4.63164576      10.27962674       9.58791878      -0.00555460      -0.00228778      -0.01560076
H        4.67278325       8.51536891       9.73682516      -0.00047420      -0.00030890      -0.00064152
H        4.92283032       9.27877016       8.15752218       0.00241924      -0.01153238      -0.00640509
H        6.43016058       7.75149544      10.68957252       0.00165400       0.00216696      -0.00138187
O        7.94526606       5.74659623       9.44778551       0.00067359      -0.00908566       0.00787395
N        8.36415239       3.66722240      10.31061870       0.00459827      -0.00851187       0.00785860
C        9.59633030       3.46273716       9.57500630       0.00071704      -0.00982324       0.00108917
C        7.81547460       2.51575298      10.99622537       0.00853258      -0.00622538       0.01378961
C        7.65214202       4.79966585      10.16137047       0.00482883      -0.00760531       0.01086766
H        9.42576336       2.82107012       8.70627994      -0.00353600      -0.01141092       0.00356030
H       10.32183765       2.97028490      10.22342856       0.00403470      -0.00876419      -0.00203839
H        9.97770101       4.42798175       9.25234303      -0.00053193      -0.01021910      -0.00306585
H        7.61166047       1.72434468      10.27102188       0.00048438      -0.00745887       0.01690733
H        6.87722706       2.80076393      11.47032637       0.01317744      -0.00405291       0.02171746
H        8.50277585       2.13966922      11.75655470       0.01373294      -0.00689042       0.00865340
H        6.73004751       4.78738507      10.77130364       0.00901860      -0.00636958       0.01765937
O       11.13657707      11.59564977       8.33215187      -0.01758504       0.02066326       0.00201276
N       11.18588819       9.90722218       9.85555040      -0.00546266       0.01838771       0.00090510
C       10.49393157      10.68394731      10.83018138      -0.00575727       0.01320308       0.00384265
C       11.64285481       8.58110232      10.23218593      -0.00025385       0.01873287      -0.00269336
C       11.48396174      10.46974125       8.65648565      -0.01152602       0.01939762       0.00042981
H       11.22848974      11.25345026      11.51322521      -0.00554420       0.01576484       0.00359745
H        9.89281970      10.05115105      11.47382476      -0.00070243       0.00964385       0.00533316
H        9.90165719      11.45705462      10.35043945      -0.01047841       0.01202367       0.00772695
H       12.32258909       8.63204068      11.08487701       0.00069812       0.01980580      -0.00339028
H       12.17072224       8.13333230       9.39117815       0.00004661       0.02229193      -0.00422099
H       10.78805010       7.95305867      10.49066735       0.00184742       0.01550385      -0.00275512
H       12.05383839       9.80993854       7.98164362      -0.01177710       0.02384913      -0.00276238
O        9.14610544       6.40026508       3.71711076       0.00120473      -0.00755370       0.00360405
N        9.82121407       7.49108198       5.61830868       0.00234082       0.00153816      -0.00194499
C       11.17453440       6.97448217       5.61077333       0.00399905       0.00635094      -0.00374385
C        9.48871375       8.45748192       6.64409662       0.00019341       0.00046961      -0.00197741
C        8.94711870       7.15424221       4.65705264       0.00071282      -0.00588977       0.00128245
H       11.31361530       6.27225495       6.43872169       0.00752016       0.00577173      -0.00465623
H       11.86569791       7.81377969       5.70440432       0.00115961       0.00877696      -0.00320400
H       11.33777462       6.46471349       4.66601431       0.00560782       0.00822081      -0.00450376
H        9.56472859       8.01181673       7.64062856       0.00285321       0.00128198      -0.00186655
H        8.46103954       8.78759186       6.49670719      -0.00112510      -0.00288136      -0.00088592
H       10.16405593       9.31300190       6.56045593      -0.00300914       0.00306675      -0.00291968
H        7.97749573       7.66882908       4.80327763      -0.00131786      -0.00965184       0.00296436
O        0.32326594       7.93531635       2.45585094      -0.00941026      -0.00544846      -0.01021087
N        2.40229568       7.76631264       3.37090804      -0.01235646       0.00486276      -0.00339289
C        2.58249266       6.38961445       2.97308397      -0.00498953       0.00542458      -0.00180107
C        3.46372777       8.37817919       4.12917443      -0.02143973       0.00913888       0.00426256
C        1.25406064       8.42932485       3.06813776      -0.01624930      -0.00244880      -0.01067221
H        2.74059444       5.75341530       3.84637638      -0.01166036       0.00539318      -0.00017187
H        3.46638613       6.28126264       2.34077687       0.00226596       0.00811074       0.00748326
H        1.69864039       6.07458663       2.42502395       0.00188345       0.00228244      -0.01078080
H        3.61269996       7.85833756       5.08104361      -0.02638662       0.00964268       0.00557140
H        3.21464619       9.41869757       4.33338872      -0.02670781       0.00798568       0.00284212
H        4.40782549       8.33313295       3.57576129      -0.01663622       0.01285224       0.01173174
H        1.24570898       9.46483170       3.43733157      -0.02038936       0.00068647      -0.01199591
O        6.74849256       2.27919519       7.90753931      -0.02332783      -0.00777590       0.01210132
N        5.78632057       4.20940489       7.15482824      -0.00715154      -0.00300550      -0.00036247
C        4.46257511       3.64334403       7.02410455      -0.01075295       0.00626080      -0.00416266
C        5.96982857       5.58407478       6.73789072       0.00417681      -0.00532623      -0.00401896
C        6.82498122       3.45310845       7.56168887      -0.01411951      -0.00662768       0.00727218
H        4.12237731       3.74387368       5.99124818      -0.00753735       0.00965700      -0.00476515
H        3.75452009       4.15984476       7.67871758      -0.00921120       0.00981353      -0.00514939
H        4.50812019       2.59213791       7.29831745      -0.01837490       0.00546294      -0.00508150
H        5.72725994       5.69095684       5.67845572       0.01060949      -0.00688051      -0.00556260
H        7.00258071       5.87601185       6.91385269       0.00521022      -0.01147716       0.00060497
H        5.32566399       6.24132784       7.33027644       0.00525014       0.00102589      -0.00971290
H        7.76945387       4.01263663       7.53895855      -0.01070893      -0.01457465       0.01067664
O       11.35353946       1.63784080       0.62435459       0.02993667      -0.00697231       0.02232563
N       11.06931571       3.27459264       2.17292214       0.01844600      -0.00744021       0.01843193
C       10.77802171       4.32885910       1.21254072       0.00227117      -0.01699999       0.01307516
C       11.21977916       3.68919150       3.55830890       0.01261322      -0.00028493       0.01648101
C       11.32637794       2.02645916       1.82234862       0.03202026      -0.00635934       0.02150556
H       11.65364114       4.96234542       1.05480355      -0.00431061      -0.01086339       0.00074874
H        9.97439485       4.94775033       1.61076855       0.00035045      -0.02059679       0.01490039
H       10.48968401       3.88669698       0.26338488      -0.00220263      -0.02743065       0.01941401
H       12.10761410       4.32256628       3.64399113       0.00312367       0.01295069       0.01502663
H       11.33674273       2.80804701       4.18448625       0.02458943       0.00383744       0.01991883
H       10.34320921       4.25012675       3.87194493       0.00468999      -0.01091275       0.01385669
H       11.52454757       1.33254136       2.64886649       0.04479061      -0.00308567       0.02183536
O        8.55072816       3.19984441       5.00768972      -0.00432932      -0.00925827       0.00637981
N        7.84013874       1.02297530       5.10655622       0.00278944      -0.01120740       0.00335964
C        9.15335294       0.44153610       5.31868550       0.00516938      -0.00711922       0.00172158
C        6.69344347       0.16879726       5.26762291       0.00638326      -0.01550093      -0.00120655
C        7.67273395       2.35283958       4.99694582       0.00085336      -0.01065016       0.00499358
H        9.35714594      -0.34008639       4.58753031       0.00532329      -0.00802785       0.00275469
H        9.23572069       0.02651666       6.32661947       0.00887031      -0.00495109       0.00257650
H        9.90550663       1.21295749       5.20540728       0.00276637      -0.00493148      -0.00192835
H        6.77353064      -0.70684240       4.61769458       0.01131148      -0.01422629      -0.00167280
H        5.78816689       0.71823281       5.01028328       0.00458160      -0.01837657      -0.00336073
H        6.60078769      -0.15969008       6.30629634       0.00363143      -0.01687209      -0.00180358
H        6.60830366       2.62355849       4.89516293      -0.00223845      -0.01429027       0.00462696
O        8.51549719      12.15665612       1.42249069      -0.00510383       0.00519443      -0.00237560
N        8.49075968       9.88193302       1.74571860      -0.00014523       0.00597861       0.00376387
C        9.86880201       9.76513547       2.19712973      -0.00224589       0.01189031       0.01161677
C        7.72533942       8.65850338       1.63429544       0.00475305       0.00325288       0.00183736
C        7.96200867      11.06601825       1.39218598      -0.00159565       0.00432074      -0.00174011
H       10.39999263       9.02868376       1.59515112       0.00463751       0.01358360       0.01564318
H        9.91781144       9.43352939       3.23554250      -0.00737446       0.01232792       0.01239297
H       10.35513511      10.73422728       2.11964669      -0.00537962       0.01384190       0.01491636
H        8.19342642       7.98162226       0.91829620       0.00902656       0.00444984       0.00346711
H        6.72019914       8.89530781       1.28561708       0.00474760      -0.00068166      -0.00131401
H        7.66577477       8.14656762       2.59454766       0.00352542       0.00362328       0.00194973
H        6.91423642      10.95429682       1.05165206      -0.00036234       0.00007733      -0.00608897
O        1.24509824       5.12939660      11.23677127       0.00465711      -0.00442266      -0.00450070
N        2.52017018       3.25656882      10.93966431       0.00533715      -0.00274623      -0.00965367
C        3.77871558       3.95832916      11.03063744       0.00511752      -0.00277466      -0.00602753
C        2.56183718       1.82376795      10.76305938       0.00605698      -0.00213631      -0.01311622
C        1.35083118       3.92500688      11.07722678       0.00519323      -0.00282478      -0.00860420
H        4.39975567       3.74289559      10.15734739       0.00772721      -0.00398292      -0.00376731
H        4.32233122       3.64996836      11.93007644       0.00253837      -0.00245766      -0.00445855
H        3.57188131       5.02396759      11.08620931       0.00557278      -0.00265202      -0.00680951
H        2.97684978       1.55890193       9.78584649       0.01220497       0.00124050      -0.01129147
H        1.55270851       1.40697896      10.84528781       0.00570984      -0.00192489      -0.02034263
H        3.16826824       1.36141217      11.54540876       0.00133869      -0.00469663      -0.01093498
H        0.48363422       3.24603630      11.03649266       0.00497293      -0.00331900      -0.01267354
O        5.05210664       4.54084360       3.59532275      -0.00461638       0.00206435       0.00136596
N        4.81980095       2.45654213       2.69433736      -0.00165996       0.00171010       0.00063431
C        3.52908742       2.20786944       3.30865939      -0.00510108       0.00245667      -0.00605112
C        5.42328991       1.37776531       1.94308302       0.00111794       0.00116988       0.00331332
C        5.46999043       3.61790011       2.90964966      -0.00168946       0.00101006       0.00358170
H        3.61465611       1.44359732       4.08519026      -0.00890868       0.00596467      -0.00217032
H        2.82500546       1.83675923       2.56801914      -0.00040150      -0.00092863      -0.00894773
H        3.17538204       3.13361046       3.75142882      -0.00903758       0.00368124      -0.01162548
H        5.52349448       0.49159503       2.57421743      -0.00637150      -0.00012761       0.00277263
H        6.41816449       1.66059206       1.60489986       0.00458172      -0.00140464       0.01133540
H        4.79446389       1.10495783       1.09356582       0.00685611       0.00405190      -0.00179401
H        6.44474848       3.66020541       2.39491273       0.00089002       0.00040662       0.00890169
