146
Lattice="12.681251654658288 0.0 0.0 0.0 12.681251654658288 0.0 0.0 0.0 12.681251654658288" Properties=species:S:1:pos:R:3:forces:R:3 energy=-398037.25 stress="-0.001089834957383573 7.316883420571685e-05 -0.0009853658848442137 7.316883420571685e-05 -0.00035626700264401734 0.00012306939970585518 -0.0009853658848442137 0.00012306939970585518 -0.0009920286247506738" pbc="T T T"
Pm       8.84227456      13.25468000       1.17043248       0.01190192       0.00465369      -0.00742117
O       12.16895091      12.03818455       3.99366662       0.00300109       0.01728572      -0.01887208
N       10.42411546      12.83235823       2.57919384       0.01138079       0.01516496      -0.01563659
C       11.30232516      12.41360640       3.30284026       0.03386742       0.00358923       0.00646985
O        6.36231319      13.24915379       7.76184589      -0.00359720      -0.00080144      -0.00780758
N        7.02463135      11.02470703       7.15181866      -0.01300066      -0.00651908      -0.00900173
C        6.69621223      12.11624860       7.45649940      -0.01089291       0.02149415      -0.00517310
O        7.06052917       9.29747730      13.02141138      -0.01557109       0.03229249       0.01050586
N        7.55488577      11.56387338      13.55938099       0.02010173       0.00893593      -0.00018835
C        7.30613012      10.40938465      13.28881297      -0.01053094      -0.03453296      -0.00810232
O        7.67926787       2.17100393       6.30145732       0.00379795       0.01186660      -0.00663396
O        8.90584083       2.84165444       8.04559546       0.00372001      -0.00525143       0.00387388
C        9.62426096       3.39090117       5.82940213       0.01198149       0.00292760       0.00732869
C        8.70323101       2.77888958       6.82991678       0.00584055       0.00463532       0.00217521
H       10.15400062       2.57122477       5.33793970       0.01664454       0.00232935       0.01492382
H        9.05722870       3.93096931       5.07192110       0.01807435       0.00029124       0.00025052
H       10.34129130       4.05631907       6.29900295       0.00648677       0.00315037       0.01159658
H        7.16190504       1.59824001       6.97147876      -0.00889796       0.02022301      -0.00060394
O        3.08324306       5.54566567       9.75865725      -0.02541906       0.00744048       0.03372797
O        4.63184375       5.11205576       8.20726982       0.03875226       0.01287067       0.01770318
C        5.28522241       6.29099798      10.19301025       0.00894272       0.00613946       0.01479197
C        4.34353178       5.57253850       9.29933030       0.00831038      -0.00677648      -0.04797488
H        5.11189338       7.36304477      10.06363819       0.01355784       0.00853232       0.01052648
H        5.10604234       6.06420040      11.24015549      -0.01118428       0.00753953       0.03762582
H        6.30409767       6.05764110       9.91108884       0.02380691      -0.00783703       0.03313671
H        2.52193927       5.27563887       9.00585918       0.02721304       0.01448497       0.00170141
O       -0.18518004       2.96030011       3.80948345       0.00335187       0.00384963      -0.00217277
O        0.02932147       4.86337808       4.96780752       0.02253899       0.01208043      -0.01889278
C        1.38758220       2.96553679       5.56455219       0.00547677       0.00472796      -0.00404066
C        0.35854306       3.71981105       4.78373575       0.01137018       0.00661004      -0.00959578
H        0.99426112       1.98131002       5.82891867       0.00003092       0.00850630       0.00092259
H        2.26273624       2.81648946       4.92928104       0.00525916      -0.00363866      -0.00187014
H        1.66959187       3.55443629       6.43349138       0.00776926       0.00826794      -0.00731939
H       -0.78846412       3.54738783       3.33277669       0.00765669       0.00400114      -0.00692925
O        9.69962156      10.55811350       7.23182108      -0.00651830       0.01116878      -0.00411242
O       10.06139759      12.64063039       6.45576152      -0.01291668       0.00637197      -0.01530522
C       11.91769158      11.33797316       7.24757510      -0.00826263       0.01733257      -0.00970405
C       10.47036294      11.60542438       6.93414371      -0.00854123       0.01198095      -0.01040676
H       12.02267831      10.58259368       8.02423005      -0.00547241       0.02211804      -0.00598649
H       12.40068053      10.97972915       6.33743456      -0.00827819       0.01382587      -0.00811341
H       12.39892510      12.26635625       7.54432703      -0.01072805       0.02011611      -0.01519063
H        8.73151250      10.76859537       7.05534359      -0.00370326       0.00778477      -0.00727858
O        5.64108497       8.82798272       2.84787407      -0.00397107      -0.01001132       0.00567168
O        7.58250435       7.73911708       2.72163965      -0.00274307      -0.00612587      -0.00869572
C        6.89726982       8.70478291       4.82440392       0.00816316      -0.01084372      -0.00291800
C        6.77564855       8.36758705       3.38334074      -0.00071794      -0.00843289      -0.00314343
H        7.03807900       9.78226602       4.92647715       0.00409982      -0.01068488      -0.00292748
H        5.96623557       8.47247044       5.34257013       0.01309052      -0.01593472       0.00309633
H        7.72598595       8.17719989       5.28383377       0.01329596      -0.00815187      -0.00965010
H        5.63630244       8.69371346       1.87956077      -0.00916162      -0.00556144       0.00435463
O        4.87337765       3.20000958       1.96442595       0.00095043      -0.01236281      -0.00401559
O        4.44056619       4.85929464       0.52772643       0.00576541      -0.01490188      -0.01046145
C        5.70923126       5.34376210       2.48512297      -0.01416203      -0.00780487       0.00214088
C        4.93566816       4.45438862       1.57516168      -0.00025120      -0.01312181      -0.00111324
H        5.01830140       5.97002883       3.04823072      -0.02231750      -0.01031248      -0.00557755
H        6.31337444       4.77859279       3.19039141      -0.01829896      -0.00404911       0.00893949
H        6.33297914       6.01557130       1.89973770      -0.01140958      -0.00595337       0.00721575
H        4.41824977       2.64217623       1.25876049       0.00687563      -0.01328945      -0.00659549
O       10.03291150       7.12659851       3.54078829      -0.00682890       0.00898892       0.00553262
O       10.31394846       9.34534854       3.32713790      -0.01226485       0.00929022       0.00287956
C       11.77988944       8.10780822       4.77381351      -0.00332397       0.01295066      -0.00387681
C       10.65560468       8.28393089       3.79945603      -0.00814950       0.01005018       0.00160539
H       11.34231985       8.08470470       5.77563690       0.00192712       0.02632997      -0.00235774
H       12.28909040       7.15714732       4.63317698      -0.00906247       0.00908825       0.00328665
H       12.45674305       8.95532514       4.70731228       0.00055642       0.00844602      -0.01414112
H        9.18127630       7.34480260       3.08518496      -0.00763886       0.00521567       0.00375727
O       10.50485069       4.74911442       9.16193171       0.00270951      -0.01303184       0.00379705
O       10.66175717       3.55762403      11.06057337      -0.00612870      -0.01498675       0.00312543
C       11.42170403       5.83202468      11.04059285       0.00169879      -0.01728368       0.00586459
C       10.82943485       4.58884695      10.43599190      -0.00150886      -0.01460093       0.00422192
H       11.76686411       6.52757095      10.28043835      -0.00678494      -0.01239528       0.00676449
H       10.65255053       6.31981015      11.64524294       0.00686044      -0.02308978       0.01680057
H       12.23823706       5.55290824      11.70307827       0.00910597      -0.01949384      -0.00423656
H       10.00214880       3.96609442       8.82099399      -0.00031848      -0.01033622       0.00158635
O        4.83073729       1.08083248       4.33231978       0.02271259      -0.00011551       0.01480722
O        6.08450296      -0.76223782       4.05245581       0.00661776      -0.00600588      -0.01383610
C        6.95378516       1.35258009       3.32156266       0.01449123      -0.00576156      -0.00231133
C        5.93926699       0.42458391       3.94530154       0.01353991      -0.00369656      -0.00149277
H        6.70168003       1.42747513       2.25321608       0.01276162      -0.00536389      -0.00184646
H        6.89132598       2.35120678       3.74331476       0.01859181      -0.00599489      -0.00129467
H        7.94647626       0.92432582       3.50171121       0.01399083      -0.00885325      -0.00507711
H        4.23457726       0.41977605       4.71453609       0.02135488       0.00103688       0.01534036
O        3.69908051       7.19604537       6.81598705      -0.01310509      -0.01010692       0.00044515
O        1.81214171       6.12021785       7.39396422      -0.01871419       0.01067901       0.03332153
C        1.78665641       8.50965202       7.21520802      -0.00932080       0.00777495      -0.01185697
C        2.40302588       7.14934907       7.13993903      -0.01524720       0.01072818       0.01070832
H        2.04831994       8.92771302       8.19055636      -0.01367000       0.02140692      -0.01599154
H        2.18618413       9.17883820       6.45663948      -0.00309205      -0.00296336      -0.01899852
H        0.70767051       8.43253956       7.14563326      -0.01039055       0.01242602      -0.01648055
H        4.09449494       6.31591909       7.02370797      -0.01972592      -0.00032896       0.01289620
O       10.30374144      13.15018343       9.68578258       0.00055957       0.00176311      -0.00655007
O        9.93404876      13.14303237      11.88334502       0.00685822       0.00280495      -0.00582917
C        8.65571623      11.69595853      10.44697813       0.00329125       0.00104776      -0.00112626
C        9.67494155      12.72848246      10.72649822       0.00317562       0.00168367      -0.00751816
H        7.66295418      12.10446875      10.64037945       0.00418636      -0.00710860       0.01751202
H        8.70410215      11.36876963       9.41481996      -0.00909297       0.00866351      -0.00400484
H        8.77244249      10.84985364      11.12057933       0.01710715      -0.00375310      -0.00979319
H       11.00435456      13.84508939       9.82819495       0.00461882      -0.00199205      -0.00486156
O        1.35609422       6.84116670       1.66629703      -0.01301745      -0.00036234      -0.00209624
O        2.09540117       4.92826259       2.56664061       0.00632953       0.00159335      -0.01500060
C        2.62711548       7.01334622       3.65168775      -0.01310733      -0.00006938      -0.00178039
C        2.02369822       6.12723529       2.61782528      -0.00558085       0.00081772      -0.00671053
H        3.41907075       7.61759403       3.20176479      -0.01176006       0.00104049       0.00248119
H        1.88279111       7.70495216       4.04297353      -0.01611610      -0.00219199      -0.00472172
H        3.03358446       6.40849257       4.45444965      -0.01572668       0.00009114      -0.00086488
H        1.06481024       6.20640266       0.99751756      -0.00610346       0.00069827      -0.00576317
O        7.81945915       2.20442507      10.32897881      -0.00769824      -0.00227326      -0.00016665
O        7.83206913       4.43778770      10.64174438       0.00431360      -0.00253248       0.00104076
C        7.75740409       2.97804956      12.53773106      -0.00470845      -0.00298745       0.00018877
C        7.79245157       3.31200108      11.06122843      -0.00194693      -0.00344729       0.00094581
H        7.16902511       2.06379071      12.70673767       0.00105031      -0.00697276      -0.00101600
H        8.81010991       2.83419948      12.82566993      -0.00473128       0.00581815       0.00450402
H        7.34871233       3.80662741      13.10933326      -0.01270501      -0.00605386      -0.00112307
H        8.04810107       2.42794969       9.38067052      -0.00650828      -0.00197834       0.00064003
O        1.93161776       9.65542108       1.57759392      -0.01574427       0.00121176      -0.00136141
O        3.91201958       9.04556487       0.72880663      -0.01343930      -0.01457179       0.01534903
C        3.65888519      11.27200998       1.59054758      -0.00667337      -0.00812119       0.00081828
C        3.20839535       9.89185818       1.23637171      -0.01219591      -0.00722539       0.00644553
H        2.82474206      11.92562196       1.83061313      -0.00345738      -0.00493865       0.00150214
H        4.32073645      11.18545311       2.45675865      -0.00345539      -0.00609199      -0.00179121
H        4.24764217      11.69468627       0.77959945      -0.01016435      -0.01101746      -0.00308718
H        1.74356549       8.71516573       1.39881332      -0.01918396       0.00152788       0.00155063
O        1.92388029       2.13656962       8.90816146       0.00210959       0.04176232       0.00804663
O       -0.26211863       1.77731306       9.11204387       0.01079597      -0.00407322       0.00967939
C        1.01889676       2.28505214      11.08444429       0.00517064       0.00933873       0.01012290
C        0.80170308       2.04650124       9.63155312       0.00607520       0.01448515       0.00977400
H        1.47723882       1.39648030      11.52518896       0.00595276       0.00767273       0.00579154
H        1.71131435       3.11204712      11.23464529       0.00307918       0.00991237       0.01571498
H        0.06363224       2.47792327      11.56358372       0.00437978       0.00334644       0.01099209
H        1.69591929       1.94260216       7.98524798       0.00382161       0.04369850       0.00695831
O        7.37411736       8.46803417       7.94377037       0.01613995       0.02648453      -0.00477433
O        6.92927681       9.41778249       9.92569238       0.00379884       0.00596249       0.00272453
C        8.87229314       8.02282041       9.70760366      -0.01810104      -0.02444291       0.00940683
C        7.61861802       8.69785910       9.23880191       0.00235820       0.00299567       0.00056893
H        8.91037801       6.98034484       9.39533002      -0.03350103      -0.02274150       0.00186476
H        9.70762535       8.53500150       9.22196240      -0.00195095      -0.03647194       0.02568869
H        8.95778319       8.10746475      10.78713434      -0.03008579      -0.03713346       0.01099652
H        6.87038928       9.25531558       7.61601410       0.03064666       0.03818215      -0.00297502
O        4.43173782       3.23455094      11.21162395       0.01878044      -0.01613766      -0.00776479
O        4.15830826       1.61398195      12.73119935       0.00571631      -0.01163648      -0.00608253
C        4.65922748       1.01970491      10.46489267      -0.00218287      -0.01928681      -0.00539893
C        4.37916333       1.97179759      11.57214183       0.00801569      -0.01477532      -0.00666690
H        4.28309877       1.39978294       9.52093917      -0.01241654      -0.02312841      -0.00256521
H        5.74309829       0.95205989      10.35232559      -0.00393233      -0.01802700      -0.01709592
H        4.26639282       0.03272887      10.68981389       0.00049092      -0.01792225       0.00334170
H        4.31428698       3.84442796      12.01138033       0.01829201      -0.01482709      -0.00834864
