148
Lattice="12.474837998337172 0.0 0.0 0.0 12.474837998337172 0.0 0.0 0.0 12.474837998337172" Properties=species:S:1:pos:R:3:forces:R:3 energy=-560020.375 stress="0.0008347078110091388 -0.00044410327973309904 -4.281411202100571e-05 -0.00044410327973309904 -0.00010314808605471626 7.74447871663142e-05 -4.281411202100571e-05 7.74447871663142e-05 0.00016263026918750256" pbc="T T T"
Pm      13.97297328      12.89611921       0.29901626       0.00518465      -0.01560679       0.00354886
Br      11.50107337      12.19680696      -0.59489456       0.01839474      -0.02252668      -0.02401209
Br      13.00730306      13.36717910       2.70852503      -0.01349029       0.01692901      -0.01069474
Br       9.32451442      13.66605817       4.28184458      -0.01592988       0.00691664       0.01213908
O        8.58817048      10.37290682       0.66953387      -0.01900119       0.00764200      -0.01732583
C        7.31022667      10.95790514       0.87527337      -0.01489410       0.00699701      -0.00577208
C        6.96166452      11.17005268       2.33662676      -0.00351969       0.00995901      -0.00366294
H        7.24216591      11.91045197       0.32901423      -0.02335644       0.00515836      -0.00814848
H        6.60872951      10.25610201       0.40687840      -0.01845315       0.00342408       0.00225869
H        5.96444928      11.61720413       2.42269867      -0.00476272       0.00527885       0.00439096
H        6.95509465      10.22591684       2.88160425       0.00586045       0.01208693      -0.00018307
H        7.67077652      11.84446526       2.82591964      -0.00243528       0.01498131      -0.01145719
H        9.26008798      11.00893863       0.94429927      -0.01383617       0.01045133      -0.01515315
O        1.28712263       2.54095206      11.60570955      -0.00611025      -0.00542015       0.01771712
C        1.88652830       2.41956623      10.27077408      -0.00867657      -0.00724524       0.01234460
C        2.54197537       1.06035994      10.24681095      -0.00043082      -0.00200763       0.00246158
H        1.10521218       2.48212490       9.51660404      -0.01910526      -0.01146222       0.02083914
H        2.61843482       3.21488025      10.13545572      -0.01857080      -0.00018054       0.00619431
H        3.07273787       0.89611714       9.31023051      -0.00597560       0.00527681       0.00015092
H        3.29561577       0.98835546      11.04486175       0.00548963      -0.00035524      -0.00155421
H        1.77429189       0.26486053      10.31391459       0.00638527      -0.00876826       0.00462165
H        0.54332362       3.15284861      11.57265965       0.00113606      -0.02350676       0.02273732
O        3.54945971       1.42577618       1.21207117       0.00604305      -0.01370716       0.00437492
C        4.08563861       2.48096646       2.07781678      -0.00493979      -0.00080764      -0.00270624
C        3.81031011       2.21580432       3.53630800       0.00844795      -0.00111704      -0.00038898
H        5.15227712       2.55384833       1.86186312      -0.00769922       0.01376022      -0.01050709
H        3.60774290       3.39296044       1.72254138      -0.02266288      -0.01056628      -0.00309803
H        4.33247642       2.94522788       4.15460350       0.00519918       0.00472037      -0.00451306
H        2.74751510       2.26616037       3.75606742       0.00959110      -0.01224866       0.00732258
H        4.18033947       1.22835039       3.82220827       0.02165554       0.00319029      -0.00253275
H        4.07228587       0.63466017       1.39385487       0.01396447      -0.00494164       0.00945595
O        6.99319276       4.29219485       1.77695467       0.02526158       0.02862450      -0.01008570
C        6.49540158       4.49765882       3.10519456       0.01439989       0.00026348      -0.00098419
C        7.12238379       5.69961444       3.76106173       0.00178716       0.00456399       0.00897697
H        5.40509578       4.61837658       3.08695963       0.01288617      -0.00088442      -0.01501960
H        6.72983935       3.58417732       3.65143347       0.01275796       0.00353003      -0.00892955
H        6.68170234       5.87993105       4.74074932      -0.00743476      -0.00603302       0.00761420
H        8.19439775       5.54539384       3.88790942       0.00146274       0.00850916       0.01799223
H        6.96960032       6.59557535       3.15424272       0.00183525       0.00664935       0.01544511
H        6.89724084       5.12425650       1.30174262       0.02061895       0.00221041       0.00721781
O       12.20665706       0.34699874       8.61829888       0.01483119       0.00078812      -0.04599380
C       10.87524671       0.87486625       8.48645067       0.01100543       0.00115657      -0.02755408
C       10.87123759       2.21470120       7.78588636       0.00227948       0.00801861      -0.01467392
H       10.23652188       0.16314080       7.95410252       0.00903592       0.00415948      -0.03126225
H       10.49445954       0.95992956       9.50483847       0.01914208      -0.01067421      -0.02576888
H        9.85278967       2.59584711       7.71548765       0.00089005       0.00641466       0.00056223
H       11.47604599       2.94230733       8.33283060       0.00607641       0.00424714      -0.01357701
H       11.24258732       2.11840131       6.76387373      -0.00919426       0.01921138      -0.01908219
H       12.47918780       0.06777781       7.73946607       0.00994307       0.01756593      -0.04316528
O        8.17084239       3.54540536      10.40634866       0.00150996      -0.00901079      -0.00178963
C        8.89223991       3.82341863      11.61778026      -0.00173941       0.00589637      -0.00181347
C       10.38744257       3.83228737      11.38037322      -0.00076371      -0.00216153       0.00138224
H        8.57303460       4.78528637      12.03103833       0.00048229       0.01412845      -0.01887587
H        8.60238983       3.04597751      12.32204397      -0.00508523       0.01891840       0.00891557
H       10.90219626       4.01503528      12.32675335      -0.00393119       0.01660474      -0.00067352
H       10.70789342       2.87500937      10.96469768      -0.00221673      -0.01167585       0.02277511
H       10.66106683       4.63535008      10.68902084       0.00352535      -0.01795502      -0.01415132
H        8.59398344       4.03713734       9.69376677       0.00416362      -0.02669382      -0.00498594
O       10.91491716       5.76666823       7.13685949      -0.00538224      -0.00513947       0.01516341
C        9.60755456       6.25264927       6.83963069       0.00329739      -0.01081893       0.00003954
C        8.55930679       5.16541998       6.88942639      -0.00519377      -0.00092000       0.00758850
H        9.41341584       7.02861788       7.58093292       0.00162355      -0.00026643      -0.00736493
H        9.59564841       6.74819586       5.86110104       0.00826022      -0.01949099      -0.00425065
H        7.55288315       5.57400144       6.80275791      -0.00003104       0.00592604      -0.00517967
H        8.69387316       4.43252590       6.09043817      -0.00358170      -0.01188891       0.01742981
H        8.62152650       4.62276411       7.83438195      -0.01749760       0.01226784       0.01578926
H       11.06708613       4.99226845       6.58721332       0.00215258      -0.01176889      -0.00591858
O        2.14997235       5.54739629       2.87806935       0.00780672      -0.00507706      -0.00414145
C        2.32276724       6.94747073       3.04840361      -0.00079444      -0.00074401       0.00344908
C        3.72786101       7.31538945       3.47777772       0.00128824       0.00083589      -0.00312549
H        2.05833830       7.47244916       2.11999328      -0.00536500      -0.00115862       0.00448713
H        1.59357000       7.24437012       3.80370955       0.00315112      -0.00504562       0.00570726
H        3.81839651       8.39387814       3.62467989      -0.00147347       0.00103906      -0.00058782
H        3.99453593       6.82339200       4.41367688       0.00627536      -0.00080332      -0.00562292
H        4.45394157       7.02050167       2.71452186      -0.00110359       0.00493871      -0.00643612
H        2.80711213       5.25302294       2.24112043      -0.00867935       0.00383220      -0.00500742
O        5.79183632       8.94312507       9.71776844       0.00037530       0.00457418       0.02091655
C        6.48119816      10.19776346       9.58180517       0.00417975       0.00064433       0.00683384
C        5.47455831      11.32439285       9.48331117       0.00701579       0.00257182       0.00440456
H        7.13131163      10.33946440      10.44933815       0.01056302       0.00482798       0.00153348
H        7.11892677      10.18210433       8.69123171      -0.00192109      -0.00828383       0.00242507
H        5.96083574      12.29310977       9.60584701       0.00839210       0.00247128      -0.00377288
H        4.96723935      11.33182320       8.51828966       0.00103301      -0.00302209       0.00783890
H        4.70652144      11.20191239      10.25026483       0.01030386       0.00861093       0.00955452
H        6.33549922       8.40646675      10.32056762       0.00840525       0.00144564       0.01195678
O        3.64219840      11.45222576       0.20272389       0.01165837      -0.01299489      -0.00969803
C        3.27754180      10.06968847       0.47194874      -0.00268811      -0.01605386      -0.00287372
C        1.78241829      10.12400093       0.65325784       0.00063804      -0.02026452       0.00782980
H        3.56926919       9.45142859      -0.37716659      -0.00606673      -0.01278220      -0.01023878
H        3.79761057       9.73334299       1.36972869       0.00691728      -0.01890159      -0.01029959
H        1.34751410       9.15116984       0.87137383       0.00611117      -0.01761997       0.01266684
H        1.50961453      10.77795657       1.50577095       0.00644094      -0.01677196       0.00884846
H        1.29505271      10.47523382      -0.27199163      -0.00789563      -0.02022406       0.01146007
H        4.50811068      11.48823330      -0.22322409      -0.01809704      -0.01301059      -0.00145245
O        5.52381388       3.86317046       9.51962962      -0.00334340      -0.01020759       0.00704090
C        5.14142886       5.19824857       9.85126962       0.00340477      -0.00643605       0.00028381
C        4.63765807       5.30239882      11.27916427       0.00895216       0.00414713       0.00136149
H        5.98502620       5.88226608       9.70256561       0.00583068      -0.01103261      -0.00702050
H        4.36540923       5.48619983       9.13968254       0.00224856      -0.00702917       0.00135306
H        4.37130343       6.33516854      11.51620085       0.01364301       0.00637005      -0.00394254
H        3.75667166       4.67494216      11.43038793       0.00742258       0.00774840       0.00805489
H        5.40758492       4.97464146      11.98088356       0.01075891       0.00574809       0.00059807
H        6.37621234       3.68419352       9.95846692      -0.00106570      -0.00963064       0.00217521
O        4.94692287       7.81571712       7.09560165       0.00786892       0.01052535       0.03716233
C        4.08112173       8.89914626       6.77950227       0.00367689      -0.00093567       0.01021995
C        2.61628320       8.51343771       6.87371612       0.00494534      -0.00740829       0.00714961
H        4.27935172       9.73755696       7.45041230      -0.00521219       0.01382264      -0.00481454
H        4.31802893       9.23935866       5.76661204       0.00939478      -0.01777410       0.00672448
H        1.98130209       9.38136202       6.68066133       0.00092395      -0.01668011      -0.01681886
H        2.36645507       7.73718422       6.14962807       0.01592602      -0.02380669       0.02115311
H        2.38574370       8.13508275       7.87020802      -0.00160769       0.01086917       0.01214768
H        5.30105037       7.99606687       7.97854725      -0.00330580       0.02387148       0.03682220
O        7.74589977       7.69812302      11.26950251      -0.00535154      -0.01821950      -0.00903523
C        8.66726881       7.33002553      10.23156071       0.00132352      -0.00451443      -0.00557169
C       10.09848213       7.69075451      10.54765200      -0.00373834       0.01061425      -0.00269230
H        8.57288328       6.25212769      10.05339365       0.01336598      -0.00508499      -0.00977645
H        8.32641424       7.83792261       9.32518668      -0.00358270      -0.00566500      -0.00559154
H       10.74639701       7.38392709       9.72397964       0.00188785       0.02160216      -0.00163874
H       10.20703682       8.76603379      10.69744331      -0.01703447       0.01132628       0.00224301
H       10.42744705       7.17316294      11.45035410       0.00001623       0.01100843      -0.00342053
H        8.24097082       7.83071968      12.08776088      -0.00431839      -0.01440710      -0.00302517
O        9.70714157       6.60526890       1.24436281      -0.02581686       0.00297958      -0.00387549
C       10.28655629       7.71821408       1.94774398      -0.00708510       0.00442904      -0.00988077
C        9.36246741       8.26591135       3.00780874       0.00219837       0.00667723      -0.00173655
H       11.25329225       7.42416920       2.37606448      -0.00893953      -0.01042375      -0.01407799
H       10.47166990       8.46937546       1.17899047      -0.00310426       0.00266188      -0.00469953
H        9.71702507       9.21194708       3.41242453       0.01276845       0.00412489      -0.00276060
H        8.38068942       8.44905314       2.57586316       0.00180121       0.01616605       0.00393946
H        9.25451756       7.56926643       3.83933286       0.00168768       0.00757129      -0.00244737
H        9.44335267       5.94469678       1.89471596      -0.02020242       0.01434095      -0.01934209
O        9.25064312      10.69267496       5.64453711      -0.00148726      -0.00453119      -0.01319490
C       10.52425315      10.15535363       5.92062706       0.00095522       0.00969292       0.00234301
C       11.61562303      10.66465068       4.99684045       0.00381160       0.01206756       0.00700974
H       10.81533186      10.35079592       6.96671768      -0.00924219       0.02059582       0.00289494
H       10.43305680       9.06685404       5.82964730       0.01106305       0.00816458       0.01015580
H       12.54898362      10.12665687       5.18528427       0.00824847       0.02642163       0.02152953
H       11.33841078      10.52510233       3.95113181       0.01537991      -0.00316564       0.00593525
H       11.77723601      11.73512804       5.13047661      -0.01149819       0.01590994      -0.00375684
H        9.33938805      11.61205004       5.29485029      -0.00730982      -0.00080252      -0.00477715
O        5.92255989       3.16630780       6.74731944      -0.01877995      -0.00393128       0.00444991
C        5.95634376       1.74563131       6.80020484      -0.00734171      -0.00386322      -0.00057135
C        7.25614211       1.19671096       7.35490750      -0.00939572       0.00468177       0.01258236
H        5.09684368       1.37481837       7.37947742      -0.01111007      -0.01353137      -0.01226649
H        5.83464368       1.39808179       5.77245797       0.00793231      -0.00082260      -0.00301200
H        7.23414512       0.10372909       7.36598917      -0.00126033       0.00451021       0.01019366
H        8.08134459       1.48442603       6.70161167      -0.00486456       0.01202871       0.02189867
H        7.44038022       1.55370799       8.37238952      -0.02274813       0.00371680       0.01520913
H        5.81669862       3.48430134       7.65842667      -0.01584020      -0.00810181       0.00582077
