148
Lattice="12.401968300813161 0.0 0.0 0.0 12.401968300813161 0.0 0.0 0.0 12.401968300813161" Properties=species:S:1:pos:R:3:forces:R:3 energy=-363475.53125 stress="-0.0010837045265361667 0.0011004754342138767 -0.0004831630503758788 0.0011004754342138767 -0.0028491816483438015 -0.000797497108578682 -0.0004831630503758788 -0.000797497108578682 -0.004204124212265015" pbc="T T T"
Pr      13.36546795      10.42727064       1.79972958      -0.01052318       0.00135940       0.00271454
O        7.02375752       8.30364412       6.37960905       0.00426984      -0.02701116      -0.00845757
O        6.86753048      10.47228942       5.78254257       0.00949860      -0.02240682       0.00903964
C        4.92821543       9.39505492       6.57324606       0.00723648      -0.02427975       0.00129741
C        4.26061806      10.59646187       6.80954865       0.00788137      -0.02368429       0.00000397
C        4.20757885       8.20217367       6.59087149       0.00778735      -0.02394894       0.00492411
C        2.89311073      10.59917804       7.05837385       0.00815286      -0.02328844       0.00184511
C        2.83596258       8.20753133       6.82366800       0.00867437      -0.02351472       0.00710219
C        2.17386485       9.40703507       7.06678351       0.00885035      -0.02350849       0.00522301
C        6.41837219       9.39182185       6.22498717       0.00670755      -0.02627465       0.00082564
H        4.83524122      11.51552292       6.77654446       0.00826392      -0.02471778      -0.00040099
H        4.73470300       7.28107670       6.38505663       0.00764284      -0.02377528       0.00606735
H        2.37318632      11.53651140       7.21093495       0.00887766      -0.02386980       0.00438964
H        2.28209086       7.27739120       6.79260541       0.00871485      -0.02360605       0.01066038
H        1.10213773       9.41980359       7.23341047       0.01004100      -0.02433007       0.00954273
O        2.25079238       7.19202339       3.70150377       0.01475549       0.02449536       0.00621668
O        0.74117322       8.73140967       3.06647175       0.00294518       0.01515669       0.01684874
C        2.82970992       9.52687129       3.76246239       0.00888717       0.02353802      -0.00306821
C        2.28380980      10.80541933       4.01613159       0.01384494       0.02710500      -0.01024427
C        4.20570961       9.40428199       3.57331403       0.00879499       0.01683798       0.00237521
C        3.09072055      11.94043654       3.96884835       0.02108575       0.02193730      -0.00141872
C        5.01309601      10.53683036       3.56071082       0.01452801       0.01214551       0.00697872
C        4.45430427      11.80039447       3.72365881       0.02165006       0.01460417       0.00889345
C        1.92843215       8.34676647       3.56316670       0.00954713       0.02141279       0.00652508
H        1.24018565      10.88052734       4.33705181       0.01285445       0.03484745      -0.01524111
H        4.61898406       8.41131439       3.44581755       0.00429825       0.01510692       0.00458973
H        2.67381513      12.91877425       4.17706261       0.02603966       0.02424051      -0.00426343
H        6.08325847      10.43267180       3.46070572       0.01425055       0.00616328       0.01253566
H        5.08647000      12.67811351       3.71589665       0.02786329       0.00996907       0.01915948
O       11.74038178      10.42731018       0.42763045      -0.00430614      -0.00199878      -0.00505134
O       10.13035609       8.87758489       0.20262719      -0.01808769       0.01382893      -0.01220602
C       10.43077698       9.92367907       2.33550007      -0.00946310       0.00324494      -0.00886208
C        9.64846560       9.00148787       3.03560943      -0.00563012       0.00203535      -0.00676008
C       10.97536498      11.01660950       3.03573081      -0.01089062       0.00540036      -0.01127942
C        9.34728874       9.20044786       4.37255079       0.00038968       0.00032456      -0.00523911
C       10.70550990      11.19518859       4.39445093      -0.00696380       0.00527898      -0.01082449
C        9.87538748      10.29790456       5.04990148       0.00015207       0.00159168      -0.00757274
C       10.70914480       9.68858673       0.88649465      -0.01117793       0.00540149      -0.00931865
H        9.27181592       8.13961596       2.50201542      -0.00691750       0.00166911      -0.00495784
H       11.46241633      11.84121582       2.50028968      -0.01646623       0.00576578      -0.01497122
H        8.66849781       8.54376240       4.91000763       0.00539014      -0.00245509      -0.00271204
H       11.08411621      12.07010330       4.91172313      -0.00878584       0.00681946      -0.01267232
H        9.57101675      10.46530578       6.07355981       0.00518112      -0.00015849      -0.00602189
O       10.19207597       3.28987861       3.64611742      -0.00350063       0.00610487      -0.00118852
O       11.19301251       4.86388298       4.74376521       0.00549453      -0.00053810      -0.00078303
O        9.30074448       5.36971005       3.61019963       0.00682259       0.01051611       0.00264499
C        9.09342856       2.85860189       2.81801912      -0.00420557       0.01327974      -0.00320922
C        9.10979830       1.35758828       2.80270163      -0.01963718       0.01320869       0.00107013
C       10.14835914       4.58828562       3.96913426       0.00322282       0.00591624       0.00045571
C       11.24922000       6.23964067       5.16612841       0.01253349      -0.00232382       0.00294900
H        8.16790637       3.24936866       3.23202586      -0.00152123       0.02349274      -0.00786442
H        9.22016118       3.28727771       1.82101550       0.00318635       0.00882471      -0.00402707
H        8.27109920       0.97695761       2.22001645      -0.02100322       0.02168126      -0.00204592
H       10.02689385       0.99400415       2.34558332      -0.02218853       0.00158979       0.00653625
H        9.03488825       0.95122412       3.81074525      -0.02904996       0.01648733       0.00156376
H       11.42738772       6.88930614       4.31141339       0.00989524      -0.00022092       0.00437456
H       12.08359860       6.29194631       5.85856518       0.01658145      -0.00734381      -0.00190213
H       10.31674073       6.51897970       5.65355376       0.01641619      -0.00074349       0.00905365
O        5.11599151       9.63748264       0.41282950      -0.01765579       0.00301725       0.00227178
O        3.33125029       8.45947832       0.35196401      -0.01461399      -0.00033367       0.00023924
O        3.11789426      10.69188973       0.63915680      -0.01895991      -0.00042737      -0.00381459
C        5.91380673      10.86956969       0.37540145      -0.02136944       0.00479436      -0.00212523
C        7.33730987      10.43121604       0.56732569      -0.02047646       0.00769763      -0.00565178
C        3.82675488       9.68614830       0.48449045      -0.01736413       0.00008446      -0.00077330
C        1.91403617       8.34626060       0.12449855      -0.01368892      -0.00582602      -0.00164731
H        5.75073802      11.32514857      -0.60162981      -0.02483656       0.00264496      -0.00236720
H        5.55243261      11.53058772       1.16025375      -0.02074198       0.00532137      -0.00266856
H        7.98824047      11.30420001       0.59105356      -0.02151901       0.00824364      -0.01085476
H        7.46003659       9.89863607       1.50947278      -0.01689204       0.01057640      -0.00480932
H        7.67232010       9.78696197      -0.24358550      -0.02300700       0.00583564      -0.00479604
H        1.39653731       8.13295437       1.06759999      -0.01335618      -0.01181006      -0.00283834
H        1.76389372       7.47291634      -0.50164796      -0.00750763      -0.00207841      -0.00842863
H        1.52243786       9.21417373      -0.41527711      -0.01769840      -0.00451258       0.00400646
O        2.90322827       2.83865930      10.15691416       0.01280759      -0.01052733       0.00374910
O        3.08455382       4.93660171      10.59185811       0.02080959      -0.01144814       0.00402628
O        4.48508753       3.49893761      11.63958454       0.01301157      -0.01699400       0.00481987
C        3.39588484       1.48669214      10.25145918       0.00141758      -0.01377581       0.01161736
C        2.42133392       0.64799683       9.47581961      -0.00294876      -0.01043203       0.01295193
C        3.58195702       3.72964937      10.87771474       0.01671201      -0.01311055       0.00500995
C        3.77103778       6.00718295      11.24788860       0.02038494      -0.01280607       0.00714594
H        4.40374699       1.45882235       9.83252476       0.00253844      -0.02400428       0.01522365
H        3.45122918       1.19956877      11.30280948      -0.00478772      -0.00896147       0.01313514
H        2.75386662      -0.38703562       9.43057215      -0.01110867      -0.01327193       0.01958232
H        1.43325935       0.68467033       9.93218582      -0.00399938      -0.00041404       0.00951782
H        2.33814293       1.02168965       8.45478669       0.00315228      -0.01604404       0.01078002
H        3.52406037       6.01457423      12.30798540       0.01029453      -0.00816538       0.00453955
H        3.42493308       6.90301550      10.74722328       0.02949847      -0.01231678       0.00190340
H        4.84785372       5.92685937      11.12151658       0.02081987      -0.01956983       0.01713759
O        5.21200440       5.78272741       3.73437536      -0.00993407      -0.00418276      -0.00588525
O        3.84128600       5.03071753       5.22757783      -0.00930150       0.00134622      -0.00375301
O        4.34162353       3.70746258       3.46090009      -0.00507435      -0.00706136       0.00399423
C        6.04336393       5.57978017       2.56093119      -0.00821996      -0.00774443      -0.00344734
C        6.78942773       6.86302643       2.31965966      -0.01065415      -0.00754237      -0.00787058
C        4.45130560       4.74583799       4.06900508      -0.00768878      -0.00348997      -0.00129402
C        2.89336782       4.04122812       5.64193814      -0.00913808       0.00390835       0.00112605
H        6.73399455       4.76426829       2.77347641      -0.00745586      -0.00555626       0.00110872
H        5.40940321       5.28418684       1.72462672      -0.00609794      -0.01297371      -0.00293621
H        7.52881058       6.71306744       1.53225872      -0.00876996      -0.00914123      -0.00546114
H        6.11918965       7.66169090       2.00400340      -0.01212989      -0.01087758      -0.01263767
H        7.30998890       7.16362428       3.22802587      -0.01348317      -0.00222190      -0.00821808
H        2.09033575       3.95948484       4.91031657      -0.01172438       0.00388498       0.00431764
H        2.50182905       4.39038443       6.59330338      -0.00534351       0.00647877       0.00152418
H        3.37924473       3.07209315       5.76295813      -0.01079538       0.00346312       0.00206708
O        9.63179658       2.06458651       7.33383475      -0.01076156      -0.00206844       0.00298136
O        8.20542683       3.30729275       6.27558645      -0.00723754      -0.00211973       0.00289133
O        7.64828328       1.15655188       6.71950678      -0.00064206      -0.02177823      -0.03574897
C        9.98054791       0.78713473       7.90388549      -0.00556225      -0.00302407      -0.00377457
C       11.40893274       0.87681493       8.37097656      -0.00769833      -0.00307167      -0.00087556
C        8.41277916       2.08085626       6.77584385       0.00859576       0.00728697      -0.01130472
C        6.92723182       3.44506120       5.63772430      -0.00202566      -0.00115263      -0.00632711
H        9.28637086       0.57010670       8.71621095      -0.00737405      -0.01118891      -0.00650549
H        9.84199254       0.01443041       7.14801113      -0.00243783       0.00035828      -0.00878495
H       11.71138518      -0.07401939       8.81204596      -0.00715599      -0.00240761      -0.00238240
H       12.07690054       1.09806416       7.53765495      -0.00662017      -0.00011102       0.00060913
H       11.53450978       1.65983875       9.11966012      -0.00992825      -0.00394718       0.00050843
H        6.85397392       2.78382024       4.77584377       0.00440235      -0.00034332      -0.00796524
H        6.86789766       4.48724177       5.33839130      -0.00276614      -0.00193456      -0.00420749
H        6.13213282       3.18912328       6.33221413      -0.00684938      -0.00467238      -0.01187736
O        7.69834776       2.43480978      10.21001539       0.00789820       0.00112237      -0.00877010
O        6.17773844       3.33098573       8.94263720       0.00894362       0.00536487      -0.00751400
O        7.58391000       4.68946831      10.08205173       0.00094029      -0.00549853       0.00166449
C        8.81052093       2.62001866      11.10834583       0.00734146      -0.00091857      -0.00697123
C        9.18655943       1.27098497      11.65762353       0.00285649      -0.00168100      -0.00638330
C        7.18794519       3.59694385       9.77443009       0.01041523       0.01232922      -0.00068128
C        5.53627158       4.51888177       8.43525813       0.01339379       0.00833212      -0.00763741
H        9.62714086       3.09112610      10.55768504       0.00878355      -0.00343606      -0.00601953
H        8.50566892       3.30828942      11.89792202       0.00785390      -0.00050640      -0.00783461
H       10.02179520       1.37525562      12.35090028       0.00057860      -0.00302543      -0.00373550
H        8.34546172       0.83884891      12.19685996       0.00075547      -0.00005909      -0.00914541
H        9.48203266       0.57836755      10.87095944       0.00443693      -0.00215633      -0.00500374
H        5.25881585       5.17886907       9.24635456       0.01619713       0.00994322      -0.00827581
H        4.66181962       4.16448903       7.89771061       0.01249512       0.01078036      -0.00684494
H        6.20703511       5.06518628       7.77622611       0.01546454       0.00421824      -0.00832330
O        7.89775615       8.77276489       9.30160382       0.00222671       0.01020797       0.00132947
O        5.94328434       9.64337447       9.63519393       0.00585437       0.01350641       0.01227590
O        6.11003600       7.39603496       9.50075143       0.00304443       0.01906729       0.00756326
C        8.73485186       7.62079107       9.01646306      -0.00128996       0.00630340       0.00269800
C       10.00717855       8.15664028       8.41638409       0.00192249       0.00312316       0.00829676
C        6.61958138       8.48720014       9.46651482      -0.00065109       0.00464141       0.00734086
C        4.54283467       9.42048821       9.80165979       0.00535876       0.01620850       0.01431458
H        8.90047027       7.08138412       9.94915658      -0.00692717       0.00489676       0.00239223
H        8.19542197       6.97932312       8.32316185      -0.00170150       0.01037204      -0.00001317
H       10.71406142       7.33927284       8.26481920      -0.00196761       0.00085588       0.00523233
H        9.79388340       8.61771427       7.45268211       0.00593810       0.00884674       0.01034878
H       10.46709409       8.89374492       9.07576999       0.00399317      -0.00282553       0.01294756
H        4.12651164       8.91723670       8.93626677      -0.00207630       0.04296789       0.00292277
H        4.09608280      10.40523068       9.90950675       0.01284285       0.01623940       0.04475029
H        4.37564002       8.80242006      10.67548345       0.00714387      -0.00610340      -0.00152025
