145
Lattice="12.416985877995186 0.0 0.0 0.0 12.416985877995186 0.0 0.0 0.0 12.416985877995186" Properties=species:S:1:pos:R:3:forces:R:3 energy=-370545.0625 stress="-1.6580127066845307e-06 -0.0007245016749948263 -0.00048244190111290663 -0.0007245016749948263 -0.000699617259670049 0.0003083219489781186 -0.00048244190111290663 0.0003083219489781186 0.0001851128472480923" pbc="T T T"
Pr      13.91773999      12.00337252       1.81723899      -0.00022268      -0.00364014       0.00617135
Cl       2.57528403      11.79067246       5.30029070       0.00746953      -0.00586805      -0.00477242
O        1.53154034      11.63839180       4.17818518       0.00506216      -0.00066736      -0.00497693
O        3.31988026      13.05951093       4.95451613      -0.00006205       0.00182962      -0.00242805
O        3.48532482      10.66170411       5.20661021      -0.00006986       0.01075602      -0.00237650
Cl       4.37145140      11.72896226       0.67858314      -0.03125286       0.02531521      -0.00725102
O        0.03535678      11.88658381       0.77763588      -0.01682049      -0.01107181       0.03582579
O        2.97696172      12.08882577      -0.01206215      -0.03134274       0.03147313      -0.00702852
O        3.95601590      11.22078255       2.10254736      -0.01744848       0.01901335      -0.00628126
Cl       7.16408485      10.85558809       9.76470912      -0.00368118       0.00227606      -0.00920999
O        7.21327476      12.33644814       9.71595766       0.00252187       0.00277948       0.00618589
O        7.21848101      10.45421884      11.20326613      -0.01358321      -0.01075029      -0.01262403
O        8.42249485      10.34423960       9.12267998      -0.00193596       0.00519633      -0.00796402
O       10.85266984       6.35805608       0.55816619      -0.00684467      -0.00553882       0.00979427
C        9.94594317       7.29807951       1.14136105      -0.00557297      -0.00316983       0.00795507
C        8.55646329       6.70558526       1.30271846      -0.00633758      -0.00143668       0.01001623
C       10.53369761       7.70988542       2.47528697      -0.00474602      -0.00033544       0.00659084
H        9.87238229       8.18194099       0.49464360      -0.00508106      -0.00452507       0.00601900
H        7.88788457       7.42858561       1.77269303      -0.00529271      -0.00057620       0.01019388
H        8.13562878       6.44099153       0.33465471      -0.00770979      -0.00161793       0.01070088
H        8.59886473       5.81037990       1.92896381      -0.00672317      -0.00116347       0.01036421
H        9.85052470       8.37393157       3.00420625      -0.00470151       0.00010771       0.00601466
H       11.47694478       8.23443638       2.33944006      -0.00543544       0.00074670       0.00533207
H       10.70912884       6.82664038       3.09024879      -0.00408723       0.00063832       0.00784893
H       10.40116299       5.90949702      -0.17264991      -0.00609232      -0.00214520       0.00720028
O       12.51402011       1.79515150       2.91087184       0.02247357       0.00377863      -0.00452420
C       11.41756925       2.55454603       3.47612616       0.01791072      -0.00855377       0.00174227
C       11.68389147       4.04045330       3.31577518       0.00757384      -0.00513083       0.00858931
C       10.14153572       2.12799677       2.78579530       0.01745754      -0.01234214       0.00262851
H       11.34838118       2.31895772       4.54447035       0.02242267      -0.01322240       0.00090510
H       10.90378124       4.60962249       3.82413729       0.00283770      -0.01376461       0.01075362
H       12.63917240       4.31968641       3.76544314       0.00539605      -0.00002487       0.01052357
H       11.68744598       4.33374970       2.26409835       0.00652297       0.00030169       0.01000050
H        9.31521730       2.75868669       3.12058700       0.01577753      -0.01786112       0.00633313
H        9.88891302       1.09426931       3.01174064       0.00777297      -0.01005006       0.00287678
H       10.24213615       2.22517530       1.70373192       0.01707787      -0.00813706       0.00270614
H       13.33470459       2.20475379       3.21586875       0.02160620       0.00252964      -0.00151676
O        5.31013026       2.24478884       6.15474515      -0.00993240      -0.00027613       0.00841573
C        6.63778145       1.81752744       5.80050936      -0.01034564      -0.00423095       0.00848791
C        7.60455391       2.80888074       6.41236042      -0.00675696      -0.00698128       0.00662512
C        6.89288870       0.40069814       6.27585290      -0.01507332      -0.00469619       0.00979644
H        6.73599795       1.85721019       4.70601760      -0.01118480      -0.00615773       0.00828171
H        8.62732862       2.55834095       6.12664872      -0.00783953      -0.01111963       0.00813717
H        7.39085626       3.82435787       6.07871100      -0.00270445      -0.00652276       0.00429834
H        7.52723218       2.77740029       7.50091569      -0.00766865      -0.00399911       0.00682443
H        7.89382337       0.08188441       5.98044752      -0.01643451      -0.00846458       0.00916309
H        6.17678512      -0.29598761       5.83628946      -0.01798955      -0.00242209       0.01130306
H        6.82816957       0.34450917       7.36333224      -0.01382956      -0.00231814       0.00997308
H        4.68181881       1.56600673       5.85522886      -0.01116763       0.00391008       0.00566917
O        7.13956656      11.84210531       1.07740364      -0.02486157      -0.01576304      -0.00838250
C        7.95421599      10.82338805       1.65708825      -0.01798338      -0.00610688      -0.00030482
C        9.39837662      11.00850848       1.22875386      -0.01982498      -0.00369450      -0.00663808
C        7.75725699      10.89265972       3.15691188      -0.01022315       0.00701720       0.00022030
H        7.60047687       9.84883425       1.29202342      -0.01603451      -0.01130366       0.01188216
H       10.04968951      10.25731501       1.67413130      -0.01383195       0.00619115       0.00110117
H        9.49134240      10.93463335       0.14563923      -0.02138580      -0.01576975      -0.00592765
H        9.76285030      11.98703756       1.53190245      -0.02497906       0.00165533      -0.01891795
H        8.33783677      10.11966247       3.66447964      -0.00989550       0.00875044       0.00224945
H        6.70467682      10.76534829       3.41086773      -0.00901058       0.01233723       0.00771954
H        8.08525481      11.86422383       3.53229764      -0.00404015       0.00796880      -0.00787038
H        7.15925515      11.64923078       0.11848805      -0.02063304      -0.02148063      -0.00731234
O        4.67465220       3.58458406       9.13121964       0.00765029      -0.00080073      -0.00838751
C        3.60175203       3.53111249      10.07329404       0.00677443      -0.00270368      -0.00918017
C        2.55652763       4.59832112       9.78766656       0.00825298      -0.00121546      -0.00859269
C        3.00737698       2.13615973      10.13655028       0.00517780      -0.00217706      -0.01218652
H        4.07918812       3.76089368      11.03233282       0.00585893      -0.00518882      -0.00809962
H        1.76886322       4.57654274      10.54335967       0.00853668       0.00014862      -0.00834948
H        2.99914753       5.59283821       9.80071801       0.01052390      -0.00222102      -0.00853940
H        2.09977169       4.42881488       8.80949609       0.00860485       0.00006480      -0.00887728
H        2.23676119       2.06910859      10.90550193       0.00554615      -0.00276583      -0.01190315
H        3.77366317       1.39360635      10.35436978       0.00439864      -0.00360386      -0.01434523
H        2.53896656       1.88123701       9.18136456       0.00431457       0.00077329      -0.01253320
H        4.35421593       3.28484954       8.27222138       0.01727134      -0.02294028      -0.00389244
O        2.78789273       1.59062609       2.48611401       0.01491065       0.00560057      -0.00463271
C        3.58026128       2.55789011       1.74628281       0.01093249       0.00896302      -0.00297935
C        2.82774987       3.86992328       1.75167270       0.01334405       0.01120883      -0.00389577
C        4.96314415       2.63516821       2.35291231       0.01197779       0.00558137      -0.00566882
H        3.64086371       2.16631469       0.72719219       0.00919715       0.00923935      -0.00268519
H        3.31068694       4.60552291       1.10944798       0.01350598       0.01169568      -0.00396392
H        1.81064777       3.72498411       1.38300206       0.01332931       0.01598214      -0.00529017
H        2.78063727       4.26630235       2.76846649       0.01572898       0.01548848      -0.00568959
H        5.57033335       3.35776250       1.80573363       0.01549001       0.00349589      -0.00442682
H        5.46049339       1.66487187       2.31082091       0.00239575       0.00105956      -0.00988590
H        4.89545695       2.97198509       3.39023923       0.01510913       0.00226110      -0.00457689
H        3.19662041       1.35710452       3.35067194       0.01793116      -0.00185388      -0.00727145
O        3.79508339       4.51406442       5.46865369       0.00164366       0.00425261      -0.01222491
C        4.48098761       5.76566059       5.49484430       0.00289100       0.00352699      -0.00573159
C        5.03044925       6.07925948       6.87602309      -0.00076321      -0.00043534      -0.00331748
C        5.57299054       5.80415193       4.43421394       0.00622988       0.00637360      -0.00223535
H        3.71761283       6.50733414       5.23987429       0.00427240       0.00514281      -0.00605258
H        5.54793309       7.03957455       6.89661412      -0.00099100      -0.00203303       0.00160448
H        4.23222587       6.08942806       7.61648635      -0.00341181      -0.00404314      -0.00536942
H        5.74660132       5.31238241       7.18049940      -0.00220560      -0.00299177      -0.00369491
H        6.03710914       6.79081656       4.38942102       0.00606713       0.00655760       0.00177698
H        5.16638412       5.56167218       3.45376255       0.00923853       0.00882496      -0.00420184
H        6.35296058       5.07556173       4.66859784       0.00538440       0.00571978      -0.00138249
H        4.42884156       3.81166926       5.70449313      -0.00204438       0.00387782      -0.00403112
O       11.11909971       2.72615834       7.21819281      -0.00145462      -0.00346518       0.00320590
C       11.46519522       1.67724379       8.14037424      -0.00071726      -0.00444993       0.00187463
C       11.71290423       2.24944194       9.52423534      -0.00037782      -0.00598225       0.00251317
C       10.41128990       0.58578199       8.15162416      -0.00042123      -0.00478828       0.00126863
H       12.40074160       1.27736550       7.73739343      -0.00080144      -0.00399640       0.00116864
H       12.05004997       1.47456575      10.21367512      -0.00186293      -0.00760883       0.00152022
H       12.46184387       3.03943129       9.48597060       0.00055452      -0.00679667       0.00334138
H       10.79263857       2.67423987       9.93350874      -0.00014086      -0.00606742       0.00323891
H       10.69423378      -0.22961325       8.81816622       0.00051768      -0.00598446      -0.00049824
H       10.26380799       0.17600052       7.15228414      -0.00128520      -0.00322001       0.00076847
H        9.45179506       0.96378433       8.51135389      -0.00007057      -0.00612485       0.00297542
H       10.37213075       3.19908304       7.59851193      -0.00199095      -0.00552113       0.00294505
O        9.34997420       4.43591717      11.41095654       0.00134400       0.00529999       0.00149727
C        8.30291432       4.14791865      10.45517698       0.00091320       0.00400642       0.00249425
C        7.71731762       2.77742595      10.71059543       0.00097615       0.00470382       0.00591230
C        7.25315484       5.24300711      10.45209352       0.00131804       0.00438350       0.00111973
H        8.81508129       4.15566005       9.48762791       0.00003156       0.00218005       0.00197148
H        6.94062387       2.54351752       9.98386311      -0.00063954       0.00372095       0.00797512
H        8.46942010       1.99061417      10.66761112       0.00057361       0.00428857       0.00562785
H        7.24718956       2.74313783      11.69919305       0.00339051       0.00670062       0.00707743
H        6.51617728       5.05185097       9.67185129       0.00258832       0.00408614      -0.00009492
H        7.69998453       6.22256659      10.28295697       0.00161055       0.00425735       0.00128419
H        6.72041682       5.25648654      11.40628158       0.00008515       0.00494631       0.00029382
H        9.11299907       4.00093414      12.23581545       0.00731957      -0.00299087      -0.00068940
O        7.66883945       8.19957375       7.62407208       0.00332856       0.00077090      -0.00427753
C        8.74843252       7.72262425       6.84938592       0.00377297       0.00053865      -0.00350812
C        9.85324289       8.76025866       6.71884119       0.00272876       0.00143433      -0.00444910
C        9.26885115       6.40897389       7.42660811       0.00468025       0.00147480      -0.00230500
H        8.34647754       7.51018736       5.84774368       0.00418243      -0.00078283      -0.00337273
H       10.64957333       8.39741989       6.06609607       0.00340878       0.00158678      -0.00388497
H        9.45744166       9.69005570       6.31020310       0.00178292       0.00033464      -0.00552370
H       10.27801459       8.98494706       7.69864836       0.00218909       0.00279623      -0.00449225
H       10.01755385       5.95749716       6.77051249       0.00591972       0.00204328      -0.00125395
H        8.44051025       5.70997810       7.55085397       0.00559273       0.00042912      -0.00275042
H        9.72091428       6.57955090       8.40592501       0.00360061       0.00254564      -0.00192620
H        7.97455416       8.94772215       8.18226693       0.00223807       0.00199439      -0.00565982
O        2.21589804       7.02013023      -0.00632118       0.00193954       0.00787002      -0.00036040
C        2.82075182       8.00452056       0.83776754      -0.00168122       0.00756627       0.00060433
C        1.76359500       8.86320517       1.51185346      -0.00689566      -0.00526865       0.00986212
C        3.72300463       7.36286565       1.87691996       0.00855201       0.00955904      -0.00790894
H        3.43158065       8.62339724       0.17459416      -0.01004314       0.01716384       0.00100648
H        2.26146739       9.53931722       2.21985839      -0.01513249      -0.00888611       0.01661084
H        1.16691229       9.42166346       0.78169526      -0.00996874      -0.00405360       0.01539278
H        1.09553552       8.22113158       2.09136468      -0.00263967      -0.01483360       0.00171801
H        4.24401700       8.13250936       2.44930128       0.00852150       0.01101036      -0.00919458
H        4.46241757       6.71920100       1.40047697       0.00881856       0.01312965      -0.01413345
H        3.13518022       6.75827837       2.57079744       0.01618688       0.00414253      -0.00562603
H        1.34304918       6.80743159       0.34174880       0.00317495       0.00331922       0.00024294
