149
Lattice="17.978777015545244 0.0 0.0 0.0 17.978777015545244 0.0 0.0 0.0 17.978777015545244" Properties=species:S:1:pos:R:3:forces:R:3 energy=-1783675.25 stress="-0.0005114732193760574 7.30266074242536e-05 -0.00016293816588586196 7.30266074242536e-05 -0.0001306851045228541 0.00027385647990740836 -0.00016293816588586196 0.00027385647990740836 -0.00027347213472239673" pbc="T T T"
Pr      17.71973864      18.11438039      -2.90012161       0.00362194       0.00836563       0.00210893
Cl       2.59205445      17.31287598       8.02012685       0.00182462      -0.00221588      -0.02204150
Cl      14.04108909      19.04447835       7.44430428      -0.00804256      -0.01756689      -0.03282920
Cl      16.85383720      16.06151610      13.93309634       0.00078528       0.00456312       0.00312863
Cl       9.97763964       4.74103215       9.17570558       0.00119627       0.00298801      -0.00445401
Cl       7.60616130       3.32042233      10.04633420       0.00300147       0.00922021       0.00814024
Cl       7.60981253       4.73244806       7.51424959      -0.00462526       0.00294849       0.00484949
Cl       7.62537618       6.22484384       9.99894932       0.00501256       0.00874358       0.00002536
C        8.20585519       4.75583304       9.18637805       0.00109724       0.00645795       0.00223940
Cl       2.26349585      10.86406775      10.56459174      -0.00035548       0.01032692      -0.00095847
Cl       1.12803240      12.73955383      12.46512725      -0.00853160       0.01498833      -0.01030928
Cl       0.47501340      12.94896623       9.64393993      -0.00219017       0.00416036      -0.01357847
Cl       3.12783387      13.64340502      10.56773876      -0.00417900       0.00985163      -0.00761211
C        1.75018974      12.55557398      10.81242888      -0.00512327       0.00920294      -0.00841392
Cl       7.93906652       0.86108253       6.32907336       0.01112175      -0.01688941      -0.00188836
Cl       9.72732435       0.05750622       4.18275924      -0.00254309       0.00370866      -0.01554218
Cl      10.81385334       1.28271737       6.55435308       0.00947720      -0.00205680      -0.01762003
Cl       9.23389577       2.87063117       4.68918481      -0.00719794       0.00120550       0.00247979
C        9.42475795       1.26425767       5.45658963       0.00356942      -0.00375585      -0.00917009
Cl      12.30210372      13.49611711      13.89323276      -0.00925279       0.00886947      -0.00500590
Cl      11.11532513      14.50927652      16.34509724       0.01021492       0.00477935       0.00487313
Cl      13.26158854      15.97785085      15.06674536      -0.00606450       0.01119024      -0.01440190
Cl      13.81299265      13.44638561      16.36612455       0.01320055       0.01406315      -0.01835200
C       12.62609575      14.35812280      15.41052825       0.00196153       0.00948585      -0.00768984
Cl      13.28647916      11.87770962       1.52085793       0.00152260       0.01246735       0.00426579
Cl      16.09553731      11.28810830       1.19372032       0.00118935       0.01656989      -0.00339399
Cl      14.22298587       9.13822763       1.73207422       0.00545585       0.01400346      -0.00002427
Cl      14.84877756      11.05629093       3.81116882       0.00976283       0.01198932      -0.00073832
C       14.60693992      10.84333640       2.07024396       0.00483608       0.01436638       0.00026915
Cl      12.57409927       3.20083935       2.93498633      -0.01456833       0.00380514       0.00423574
Cl      15.64105051       0.50233866      -1.57294053       0.00856134      -0.01574688       0.01786092
Cl      14.15188242       2.14711439       5.12148348       0.00081612      -0.00690559      -0.01493106
Cl      15.01744472       4.50416600       3.68470227      -0.00889137      -0.01224276       0.00099892
C       13.94456279       3.22818861       3.90511756       0.02292013       0.00712686      -0.00301536
Cl       6.27771705       7.36889538       3.53128750      -0.00583774       0.00438148      -0.00554445
Cl       4.00827340       9.16954843       3.54834063      -0.00083780       0.00968960       0.00639912
Cl       3.92691757       6.74731627       1.95782744      -0.01821598       0.00714958       0.01184778
Cl       5.64801255       8.94818774       1.17526458      -0.01814587       0.00035530      -0.00393996
C        4.96969477       8.06214187       2.55578285      -0.01102028       0.00559845       0.00265857
Cl      12.27429780       5.00536725      14.39835424       0.00799820      -0.00262305      -0.01062350
Cl      11.05087768       3.11107050      12.57122592       0.00282226      -0.00554204      -0.00249696
Cl       9.87244893       5.73241872      12.94238606       0.00781533      -0.00286898      -0.01026148
Cl       9.74045138       3.76780474      15.07509484       0.00676513       0.00461724      -0.00368336
C       10.73299105       4.39924514      13.74660721       0.00594372      -0.00146919      -0.00687021
Cl       3.92301322      12.51599458       1.28251995       0.01020694      -0.00413930       0.01446813
Cl       5.78508085      12.33619880      -0.93833508       0.00177784      -0.00278479       0.00770742
Cl       6.41536665      13.99002488       1.36265464       0.00247961       0.00895943      -0.00118250
Cl       4.30770470      14.79456057      -0.46762643      -0.00916541      -0.00959486       0.00426248
C        5.10522155      13.40560117       0.30281961      -0.00001351      -0.00083823       0.00703449
Cl      -0.48331852       2.57198633      18.50278892       0.00414656       0.00633673      -0.00566684
Cl       0.61223041       2.96137951      15.78922823      -0.00354490       0.00685127      -0.00746316
Cl       1.76862558       4.33722908      18.05917871       0.00145392       0.00545787      -0.00706480
Cl      -0.87635181       5.07821746      17.12786385       0.00101560       0.00862398       0.00100528
C        0.23860566       3.75168070      17.44264046       0.00085320       0.00655513      -0.00359932
Cl      10.75099031      11.48245367      10.17346350       0.00211239      -0.00814730       0.00165518
Cl       8.27908328       9.96640073      10.27201017       0.00047082      -0.00480787       0.00195677
Cl      10.24887600       9.64384189      12.35865719      -0.00122134      -0.00559527       0.00299418
Cl      10.78688306       8.61556807       9.70827684      -0.00114918      -0.00792086       0.00445780
C       10.01623331       9.92460141      10.62163702       0.00019446      -0.00642725       0.00293236
Cl       6.72200091       6.06520229      14.87700813       0.00485724      -0.01412302      -0.01634693
Cl       5.15542775       4.07592562      16.28714969      -0.00422702       0.00393909      -0.00175729
Cl       4.17264162       5.19414581      13.79940776      -0.00737265       0.00120749      -0.00050554
Cl       4.25710157       6.83250832      16.18637540       0.01412612       0.00651279      -0.00515968
C        5.08256485       5.54428410      15.28683188       0.00240492       0.00009421      -0.00639777
Cl       5.00674410      13.35658304       5.19032994       0.01040566      -0.01247644       0.00335470
Cl       2.23463202      12.64174818       4.76166997       0.01008469      -0.00659972       0.00202084
Cl       2.96312358      14.40210541       6.95709728       0.01142889      -0.00774121      -0.00005394
Cl       3.65987049      11.58710470       7.05959221       0.00656830      -0.01065356       0.00028071
C        3.46018436      13.00272016       6.00765465       0.00988913      -0.00898461      -0.00013488
Cl       9.62931254      11.12703755      15.65509330       0.00491810      -0.01270863       0.00922322
Cl      11.45258118       9.84986433      17.49814820      -0.00027746      -0.03148110       0.00205135
Cl      10.13584205       8.27321431      15.45321791      -0.01673152      -0.01516023       0.00029993
Cl       8.61514159       9.31830305      17.68493700      -0.00427485      -0.00951000       0.00623474
C        9.96082519       9.64531401      16.57486356      -0.00443294      -0.01722178       0.00454906
Cl      -0.45691137       5.80414688      13.68517924       0.00559638       0.02400599       0.00277013
Cl      -0.87742416       6.12342726      10.84017739      -0.00250497      -0.00614095       0.00167242
Cl       1.29583769       4.46534734      11.80168983      -0.00719586      -0.00377542       0.01207647
Cl       1.42325506       7.34840067      12.11406111       0.00549212      -0.00120121      -0.02013005
C        0.34527333       5.94311433      12.10172303       0.00088981       0.00385949      -0.00184396
Cl      13.89193570      16.86270749       3.97906017       0.00827730      -0.01860227       0.01258415
Cl      15.62901315      15.03702858       2.54579306       0.00429571       0.00049335      -0.01226830
Cl      15.97039241      17.90431446       2.25603120      -0.00097665       0.00352174       0.01892785
Cl      13.65628770      16.58980072       1.09365827      -0.00381595       0.01170420       0.01002312
C       14.76699762      16.59514745       2.46983322       0.00320800       0.00001582       0.00372615
Cl       2.60560557      17.41575803       5.43090978       0.01068350       0.02746703      -0.03636156
Cl       3.99386929      16.33387314       3.13327310      -0.02184510       0.00411121       0.01297882
Cl       1.30891481      17.39646107      -1.05475590      -0.01727927      -0.02449479      -0.00432594
Cl       1.12927318      16.24453477       3.24859032       0.03004816      -0.00010638       0.02600749
C        2.57911123      16.73832453       3.93870259       0.01033185       0.01233939      -0.02318198
Cl       5.00599424       2.06813409       3.80145327      -0.00967002      -0.00003326       0.00396839
Cl       6.91332102       0.66358787       2.13267027      -0.01600480       0.00352803      -0.00353875
Cl       6.45901013       3.49951325       1.74374524      -0.01834565       0.00298154       0.00047168
Cl       4.40140304       1.58205129       1.00435289      -0.01959154       0.00144748       0.00560954
C        5.69925871       1.95427956       2.17314516      -0.01675689       0.00102086       0.00086999
Cl      15.70827498       5.51872795       7.55171392       0.00079122      -0.00004015       0.00025778
Cl      13.82917256       6.65885339       9.45380942       0.00109246      -0.00771470       0.00273272
Cl      13.17404036       4.23444693       7.98649166       0.00025827      -0.00288212      -0.00244461
Cl      13.27019363       6.79301522       6.61093179      -0.00035508      -0.00034034       0.00435641
C       13.98328182       5.79669566       7.90676305       0.00145976      -0.00318262      -0.00023850
Cl       4.33934099      -0.92412820      14.26354347       0.01783001       0.01533219      -0.01096803
Cl       3.20725512       1.67303456      13.63114189      -0.04024917      -0.01129287      -0.00696823
Cl       1.70698303      -0.76076909      13.02118833       0.00250321      -0.03810880       0.01345909
Cl       4.07488598      -0.10766789      11.49050453      -0.01876849       0.00404813      -0.00876904
C        3.40242766      -0.01213920      13.08846064      -0.00996387      -0.00997157      -0.00322694
Cl      -0.57146342      10.69567502       6.34606321       0.00094719       0.00507322      -0.00655740
Cl      -1.23191626       8.03464601       5.41590690      -0.01065603       0.00795856      -0.00713235
Cl       1.51136373       8.71327389       6.04734123      -0.00891262      -0.00636476      -0.00026372
Cl       0.25404994       9.82508177       3.69275866       0.00275539       0.00155884      -0.00252879
C       -0.00441621       9.32207596       5.37594809      -0.00433607       0.00145233      -0.00436699
Cl       3.94073113       7.69076575       9.02400718       0.00693133      -0.00264657      -0.00146061
Cl       1.73197352       5.96309939       8.30454793      -0.00142032       0.00102258       0.01898410
Cl       4.26696979       4.80477867       9.05909140      -0.00224629      -0.00201473       0.01183677
Cl       4.03158161       6.21801160       6.53702656      -0.01196146      -0.01623943       0.00461698
C        3.48890726       6.16158645       8.22831621      -0.00163378      -0.00441927       0.00758613
Cl       3.91299698      10.14236262      14.16000317      -0.01733702       0.01079752       0.00038916
Cl       5.21344183       8.61816845      12.06706265      -0.01208332       0.00803512       0.00577039
Cl       6.80024325       9.86697685      14.14971612      -0.01746443      -0.00763860       0.01919019
Cl       5.49523589      11.50303379      12.15332488       0.00732557       0.00504959       0.01640055
C        5.35882669      10.03696243      13.13445430      -0.01015567       0.00407711       0.01122195
Cl       6.87562230      14.62234361      10.55512039       0.00117098       0.00740880       0.00667650
Cl       7.93182818      15.02213928       7.87984340       0.00704974       0.00219557       0.00867301
Cl       8.09836412      17.15294651       9.84222791      -0.00164694       0.00679827       0.00398126
Cl       5.52323594      16.41622546       8.70899005       0.00393087      -0.00030643      -0.00224605
C        7.10397872      15.80433188       9.23758418       0.00250953       0.00379000       0.00388107
Cl      15.29206416      12.36008581      11.81523664      -0.00581156       0.00155735       0.00006247
Cl      13.79053267       9.88437897      11.80023032       0.00400287      -0.00446317      -0.00017005
Cl      16.62160346       9.86596859      11.16784504       0.00522459       0.00651336       0.00594990
Cl      14.72804881      11.02475042       9.30234558       0.00505963      -0.00237009       0.00083733
C       15.11234093      10.78466820      11.02489210       0.00205453       0.00002237       0.00144815
Cl       9.11814165       9.67467808       4.27224524       0.01046138      -0.00723768      -0.00857377
Cl       8.36411811       8.09321557       6.58698635       0.01075894      -0.01414603      -0.01346749
Cl       6.87692674      10.48893701       5.92243650       0.00776136      -0.01541123      -0.00927194
Cl       9.57428332      10.70214817       6.94073463       0.00559032      -0.01324618      -0.00524688
C        8.48148926       9.74257310       5.93286519       0.00841800      -0.01228955      -0.00926103
Cl      -0.43806713       2.20556258       6.14696134      -0.00105527      -0.00297689       0.00932926
Cl       2.39182580       2.79908385       6.22103467      -0.00074604      -0.00404248       0.00431561
Cl       0.56046512       4.67965427       4.98391841      -0.00455339       0.00789464       0.03623003
Cl       1.11651625       2.15259435       3.69062530      -0.01190149       0.02261131       0.00264177
C        0.90502007       2.95426818       5.27285914      -0.00620084       0.00511871       0.00988647
Cl      16.96786343       1.47499216      10.45362471       0.01063502       0.00053032       0.00383228
Cl      16.26276876       1.94576519      13.27768049       0.02003810       0.04070544      -0.00675189
Cl      14.59396103       0.23394562      11.55332195       0.02719587      -0.00113964       0.03724637
Cl      14.67678064       3.10443995      11.16313571      -0.00315654      -0.02262470      -0.02366105
C       15.59761313       1.66201988      11.52399693       0.01095581      -0.00136009      -0.00666314
Cl      11.09528317      15.12039782       5.79858065      -0.00489138      -0.00429469       0.00925738
Cl      11.49618718      12.55880229       4.52576230       0.00951907       0.00047928       0.00652133
Cl      10.86763179      14.87065771       2.91031489      -0.00070073      -0.00086409       0.00855958
Cl       8.83901554      13.71907427       4.63440648       0.00374949      -0.01336460       0.00498015
C       10.57766141      14.06931612       4.47329106       0.00153795      -0.00415613       0.00694329
