150
Lattice="16.156956360827287 0.0 0.0 0.0 16.156956360827287 0.0 0.0 0.0 16.156956360827287" Properties=species:S:1:pos:R:3:forces:R:3 energy=-1578473.625 stress="-0.00021868626936338842 -2.932588176918216e-05 -0.00025366565387230366 -2.932588176918216e-05 -0.0002604452893137932 -0.0001543429316370748 -0.00025366565387230366 -0.0001543429316370748 -0.00011334223381709307" pbc="T T T"
Pt      15.79544437      17.00298400       0.94048162      -0.00923156       0.00170212      -0.00414794
O        7.95623883      16.30266580       7.67890267      -0.00372529       0.00645185       0.01157981
O        9.03696018      14.89658586       9.03118060       0.00463144       0.00566387       0.00350618
C       10.22138403      15.76770332       7.15817322      -0.00260687      -0.00150433       0.00232297
C        8.97431613      15.65708370       8.03501853       0.00756741      -0.00537176       0.01433313
H       11.12764568      15.63339153       7.74759728      -0.00007957       0.00383794      -0.00176696
H       10.24662657      16.71946546       6.62787489      -0.00666787      -0.00612057      -0.00527959
H       10.17222948      14.96776412       6.41531493      -0.00442117      -0.00807996       0.00777049
O        3.03639087      14.37928334      14.01958335       0.01959914       0.00194049       0.00252676
O        2.45830386      12.22217851      14.14695405       0.00780487       0.00185847       0.01403391
C        4.34456176      12.82387449      12.80058637       0.00092733      -0.00668511      -0.00350869
C        3.18147808      13.17006616      13.73603684       0.01270366       0.00557011       0.00431955
H        4.44265238      11.74807083      12.66682280      -0.00442774      -0.00786597      -0.00172414
H        5.26823103      13.23478904      13.20990781       0.00675593      -0.00968840      -0.01290397
H        4.17361446      13.30390847      11.83608916      -0.00473491      -0.00867434      -0.00316826
Cl       2.57429679       5.06909018       7.48017639       0.00084665       0.00441921       0.00164080
Cl       1.86953421       3.71159032       9.96183051       0.00067177       0.00548469       0.00279206
Cl       0.98049856       2.61967331       7.41271992       0.00327709       0.00330602       0.00310536
C        2.25610712       3.49440642       8.24887546       0.00177616       0.00519428       0.00326365
H        3.16985971       2.91597987       8.18245192       0.00291136       0.00608803       0.00478097
Cl      11.65794390      13.64464171       9.89504239      -0.00873709       0.00094487      -0.00191271
Cl      13.12085973      11.42843964      11.14347651      -0.00244234       0.00283656      -0.00428839
Cl      14.19462070      12.72062926       8.77387443      -0.00468680       0.01056030      -0.00076690
C       13.24760587      12.96182086      10.25745725      -0.00697182       0.00501489      -0.00126212
H       13.79953410      13.65516173      10.88020614      -0.01007013       0.00547108       0.00032914
Cl       7.77759588       9.63389155       7.14932607       0.01100339       0.00249362       0.00220180
Cl       7.73838290      12.51947682       7.65844353       0.00738372       0.00215507       0.00260621
Cl       8.31251211      11.51425851       4.98880828      -0.00365525       0.00275928      -0.00051659
C        7.41272968      11.24117797       6.49287833       0.00423613       0.00162647       0.00383797
H        6.35909451      11.25644580       6.24261160       0.00308630      -0.00053782       0.00949141
Cl       7.73594283       5.10236239       1.76934732      -0.00200704       0.01016008       0.01217300
Cl       6.82319569       4.55280781       4.48639078       0.00114739      -0.00416353       0.01067539
Cl       9.62735197       4.16239841       3.78113871       0.00008297      -0.00142226       0.00399189
C        8.17839034       5.11139938       3.49515026      -0.00008846       0.00122471       0.01171485
H        8.38123500       6.13930646       3.76857101       0.00035597      -0.00038695       0.01737767
Cl       1.17684307      13.59511171      10.96049569      -0.00077933       0.00613761       0.01129740
Cl      -0.08765358      15.84209599       9.59789475       0.00369757       0.00414523       0.00345924
Cl       2.77127606      15.36607135       9.27317850       0.00033185      -0.00790387      -0.00297180
C        1.18283877      14.60750509       9.52300693      -0.00109563      -0.00116142       0.00607269
H        0.98639293      13.98400540       8.65950135      -0.00577746      -0.00460806       0.01017416
Cl      11.37615296       8.77182635       6.26301804       0.00778127      -0.00269529       0.00210723
Cl      14.01069602      10.00764790       6.34384124       0.00234169       0.00937148      -0.00268921
Cl      11.60356373      11.67145142       6.44804392      -0.00558537      -0.00215232       0.00037065
C       12.32893882      10.12541757       6.89073500       0.00286368       0.00185683       0.00009038
H       12.32500679      10.06141297       7.97217968       0.00481503       0.00256272      -0.00000235
Cl      12.70763432       8.02911659      12.16708183       0.00415181       0.00800671       0.00034329
Cl      13.68463550       9.46903392      14.51205760       0.02416758       0.00597960      -0.00659618
Cl      13.59014116       6.56111209      14.53247485      -0.00183882       0.00621632       0.00124675
C       13.82871770       8.01003593      13.54319218       0.00824774       0.00175044      -0.00285753
H       14.83379777       7.96973316      13.14144543       0.00666854      -0.00762625      -0.00592084
Cl       6.50913250       5.38673282       8.39226687      -0.00799817      -0.01780055       0.01260004
Cl       8.23342449       3.10506620       7.78499532      -0.01048086      -0.00007284       0.00264108
Cl       9.06084393       5.83189035       7.04989868       0.01555602      -0.01670268       0.00497615
C        8.18206484       4.80641190       8.20992750      -0.01473850      -0.00113329       0.00172460
H        8.67274651       4.93902895       9.16671453      -0.01817814       0.00756286      -0.00115794
Cl       1.61523835       9.65936170       7.95591025       0.00633860       0.01216112      -0.00654121
Cl       3.75998119       8.23383577       6.58213575      -0.00128423       0.00478426      -0.01038823
Cl       4.39443803      10.04604573       8.77051989       0.00812382      -0.00564364      -0.00401230
C        3.20889996       8.90937801       8.13051956       0.00224477       0.00288943      -0.00852261
H        3.11274873       8.08992919       8.83368593      -0.00269496       0.00085533      -0.01123357
Cl       7.68015824       0.83014889       4.56007122       0.00880378      -0.00634629       0.00435477
Cl       8.56157461       1.23384278       1.77806841       0.00297570      -0.00347729       0.00260451
Cl       5.86885579       0.30355260       2.33621957       0.00494939      -0.00567481       0.00715841
C        7.21241674       1.29526182       2.92084655       0.00538606      -0.00523967       0.00535472
H        6.86369063       2.32060088       2.95623608       0.00505719      -0.00552514       0.00748725
Cl      12.43596313      16.38949386      14.62783324       0.00055274       0.00177807      -0.01916140
Cl      12.22806754      13.53479859      14.07190771      -0.00611638       0.00211984      -0.01548837
Cl       9.86686850      15.04358557      14.90471873       0.00578028       0.00093127       0.01946163
C       11.39269644      15.09759974      14.02018672      -0.00784691       0.00134552      -0.00296501
H       11.17459274      15.31082958      12.98115997      -0.02395038       0.00105354       0.00021127
Cl      13.77985010       9.68246827       2.35282070       0.00058952       0.00496569      -0.00323357
Cl      14.41979249      11.87875500       0.54055967      -0.00792801       0.01003018      -0.00035530
Cl      15.39804835      11.92459182       3.28460239      -0.00291139       0.00698715      -0.00214696
C       14.97565683      10.89885451       1.90086797      -0.00329353       0.00853946      -0.00339528
H       15.87692591      10.37877154       1.60040070      -0.00254706       0.01125374      -0.00617072
Cl      12.68984688       2.24700132       4.21796949       0.01063013      -0.01824827      -0.00162217
Cl      12.05614825       2.47413489       1.37989291      -0.00042698      -0.00048566       0.00215074
Cl      14.04277210       4.23839992       2.57312786       0.01168878      -0.01534495       0.00237440
C       13.31833927       2.62060212       2.60747662       0.00541520      -0.01276541      -0.00236603
H       14.11124017       1.89980935       2.35180334       0.00194970      -0.01421584      -0.01082104
Cl       9.40752536       8.40553975       2.60460091      -0.00325599       0.01041619       0.01483353
Cl       6.69463781       8.37133887       3.68541487      -0.00786728       0.00514132       0.00282121
Cl       7.49607384      10.44958833       1.80411886      -0.00678471       0.00096771      -0.00128281
C        7.69535868       8.77343697       2.28805898      -0.00294401       0.00362895       0.00575110
H        7.37703417       8.14299781       1.46424427       0.00278926      -0.00041404       0.00678200
Cl       8.40936638       3.84214445      14.07351537       0.01163825      -0.00287221       0.01448855
Cl      11.04645787       4.60882084      13.09142570      -0.00115028       0.00067845      -0.01960686
Cl       9.49535539       2.57188471      11.67470491      -0.02058635       0.00668752      -0.00535236
C        9.42661330       4.04775968      12.64042371      -0.00876591       0.00306396       0.00263345
H        8.98008118       4.82217125      12.02834727      -0.02212022       0.00606740       0.01624465
Cl       5.09989541      12.16873165       0.09448540       0.01254186       0.01826522       0.00728884
Cl       4.21530555       9.38256043       0.33337906       0.00263384       0.01907331      -0.02337047
Cl       3.31637259      11.37932861       2.25195752      -0.00389071       0.00483288      -0.01117131
C        3.78364761      11.09009875       0.55453092       0.00614602       0.01801813      -0.01102560
H        2.95028961      11.31968731      -0.10626323       0.01221305       0.02642018      -0.01611587
Cl       9.74066246       7.68367430      10.22605248       0.00567743      -0.00230742      -0.00241490
Cl       9.49145265      10.58697933      10.36462683       0.00640360      -0.00230527       0.00478771
Cl       7.15040696       8.89846206      10.79731410       0.00552768      -0.00287972      -0.00326632
C        8.89851609       9.05728541      10.99065210       0.00489133      -0.00354820      -0.00006444
H        9.12224203       9.01224600      12.04936619       0.00348743      -0.00665011       0.00006711
Cl       1.90287548       2.18698491      14.75926393      -0.00874817      -0.02993685      -0.02591062
Cl       0.17196406       4.28712752      13.72747017       0.01369365       0.00409964      -0.00321314
Cl      -0.96208349       2.30239231      15.54425960       0.00019258       0.00489414      -0.00751865
C        0.58727077       3.25881214      15.08689451       0.01042277      -0.01154724      -0.01249763
H        0.77615372       3.86039515      15.96953398       0.02354363      -0.01880805      -0.01020733
Cl       5.41721393      13.60892423       4.74639983      -0.00500154      -0.00298232       0.00319314
Cl       3.10464823      15.30916085       5.24246688      -0.00238657       0.00111108       0.00021905
Cl       3.22377753      12.63951263       6.40187067      -0.00648424       0.00285453       0.00414917
C        4.16977890      14.05655502       5.90383669      -0.00453214       0.00053402       0.00213169
H        4.65411653      14.46131352       6.78428667      -0.00407036       0.00123328       0.00141549
Cl       9.98644833      10.61673828      14.17537791       0.00253341       0.00084963       0.00500178
Cl       7.44423223       9.24613337      14.59372517       0.00182083      -0.00174751      -0.00503357
Cl       9.92321560       7.72152533      14.57098564       0.00453138       0.00171259       0.00483057
C        9.17176347       9.27066066      14.97761701       0.00041173       0.00028521       0.00160948
H        9.27630378       9.41924413      16.04610776      -0.00511735       0.00074831       0.00162274
Cl       3.41725822       8.66487374      11.95464819      -0.00648703      -0.00489503       0.00319451
Cl       1.50069839       8.11237700      14.08637371      -0.01328731      -0.00918007      -0.00374299
Cl       0.91352193       7.30276309      11.33819499       0.00061533      -0.01510148      -0.00538416
C        2.18705179       7.55396626      12.55768531      -0.00500173      -0.00915055      -0.00014698
H        2.65465623       6.59122665      12.72915050      -0.00181167      -0.00726557       0.00274514
Cl      11.49220287      12.55848214       2.57895091      -0.01379669      -0.00141811       0.00452411
Cl      13.08020722      14.98411910       2.18104368      -0.01619077      -0.00290397      -0.01210281
Cl      10.49445332      15.12675693       3.51043868      -0.00234663      -0.00041080       0.01337447
C       11.92438541      14.14062203       3.23593126      -0.00608023      -0.00158295      -0.00046034
H       12.41634990      13.97631703       4.18657502       0.00332807      -0.00169226      -0.00531238
Cl       0.35277542      15.49649414       2.40449302      -0.02035309       0.00088376       0.00115603
Cl       1.35336905      13.62233006       0.30548647       0.00649025       0.01776800      -0.00214458
Cl       2.99795583      15.83163381       1.13117378      -0.00615349       0.01331279       0.03068627
C        1.84498909      14.62340128       1.60859157      -0.01045018       0.00933802       0.00981978
H        2.22998839      14.04191982       2.44129121      -0.01789565       0.00508356       0.00972822
Cl      12.05109615       5.08054329       8.75226581       0.01170525      -0.00050746      -0.00964761
Cl      14.11577992       4.19143084      10.62797512       0.00347255      -0.00142553      -0.00064810
Cl      14.84204934       5.81169130       8.30761789       0.00719911       0.01148024       0.00927007
C       13.59603229       5.47074531       9.52025300       0.00360329       0.00183508       0.00305140
H       13.45451707       6.36940090      10.10775621      -0.00210474      -0.00105196       0.00564261
Cl       4.36098360       0.34536135      12.55400943      -0.02542784      -0.03207529      -0.02462101
Cl       5.16895766       3.12582220      12.06188979       0.00774053      -0.01295203      -0.01841575
Cl       5.86023887       1.03635811      10.11862239       0.00760961      -0.00277957       0.00703019
C        4.67982812       1.56855947      11.32562687      -0.00156899      -0.01015565      -0.00049351
H        3.74708917       1.76109605      10.81157491       0.00019640      -0.00640601       0.00034989
Cl       1.42150745       8.74393884       3.44907501       0.00056634       0.00224268      -0.01841530
Cl      -0.71082735       7.03082026       4.47401869       0.00870657       0.00435072       0.00284317
Cl       0.05413729       6.91000438       1.64835816      -0.00828211      -0.00799770      -0.00089595
C        0.60854863       7.18341957       3.31577784       0.00171031       0.00041923      -0.00579261
H        1.32887847       6.40683738       3.53762066       0.00441501       0.00273189      -0.00639220
Cl       3.77804709       4.11507109       2.26668804       0.00561488       0.00473305      -0.00629294
Cl       1.37234163       3.77623940       3.87496097       0.00488824      -0.00165480      -0.00201376
Cl       3.86186736       2.50973794       4.70323246      -0.00072067      -0.00340328      -0.00444964
C        3.13992969       3.90339821       3.90808298       0.00587303       0.00004613      -0.00390205
H        3.40154154       4.78625910       4.48093840      -0.00102025      -0.00052428      -0.00073162
