131
Lattice="12.504709581112875 0.0 0.0 0.0 12.504709581112875 0.0 0.0 0.0 12.504709581112875" Properties=species:S:1:pos:R:3:forces:R:3 energy=-716226.5625 stress="-0.0003915919514838606 -0.0005145955074112862 0.00016656006482662633 -0.0005145955074112862 -0.00010195937647949904 0.00016745761968195438 0.00016656006482662633 0.00016745761968195438 -0.0005032092449255288" pbc="T T T"
Pt      12.87327887      11.67807898       1.23729695       0.01230717      -0.01837350      -0.01470566
Br       3.57758432      11.47988447       1.18480043       0.03241590       0.02577222       0.00691682
O        2.07136973      11.26429019       0.33659000       0.01985168      -0.00198739      -0.00222126
O        3.84502547      10.21989018       2.14476968       0.02524865      -0.00650567       0.00188398
O        4.65783690      11.52124131      -0.01636107       0.01748294      -0.00632059      -0.00241464
O        3.50015245      12.87875209       1.97598661       0.03943340      -0.01623785      -0.01130980
Br       1.22344201      10.23215742       5.02989725      -0.01136140      -0.00342653      -0.00761103
O        2.49057412      11.21492651       4.84359745      -0.02678525       0.00848949      -0.01096000
O        1.21179292       9.59158896       6.52297167       0.00073053      -0.01391965      -0.01006174
O       -0.15853503      11.07852733       4.81357915      -0.02354670      -0.02042091       0.00724497
O        1.25953792       9.02758247       3.93230815      -0.00286546       0.00187516      -0.01433778
C        4.89008555       1.21115823       9.86514517      -0.00332503       0.00580925       0.00041023
C        6.04806456       1.71934097       9.01838643      -0.00238613      -0.00105292      -0.00292458
C        4.05746503       2.34736689      10.44946402      -0.00248346       0.00980067      -0.00566256
C        6.84960399       0.62139299       8.33046962      -0.00551604      -0.00543886       0.00006121
C        2.90637909       1.86155090      11.31729066       0.00118068       0.01510064       0.00220308
C        7.96636384       1.17288066       7.45447929      -0.00280669      -0.01228924      -0.00106481
H        4.24380539       0.57092498       9.25365108      -0.00470546       0.00356007       0.00447842
H        5.25872954       0.57461856      10.67423992      -0.00506592       0.00956631       0.00402194
H        6.71997857       2.31538323       9.64745826      -0.00024246      -0.00055751      -0.00579837
H        5.66269716       2.40899303       8.25752163      -0.00137474      -0.00322427      -0.00524637
H        4.71068327       2.99887700      11.04053869      -0.00151560       0.01310705      -0.01064858
H        3.67776481       2.96544726       9.62816429      -0.00546959       0.00378083      -0.00901255
H        7.26606638      -0.05089229       9.08743550      -0.00754382      -0.00458717       0.00175598
H        6.17284407       0.01064739       7.72462329      -0.00722313      -0.00528666       0.00190729
H        2.28143274       1.14550594      10.78114430       0.00235530       0.00693731       0.01238436
H        2.27140874       2.68563662      11.64550158      -0.00192268       0.01565267      -0.00531282
H        3.27668787       1.36095289      12.20913324       0.00468583       0.02644970       0.00718263
H        7.56552518       1.83552403       6.68334926       0.00120445      -0.01380385      -0.00438021
H        8.67616792       1.75548266       8.04556628      -0.00120732      -0.01283774      -0.00262649
H        8.52707955       0.38316372       6.95358716      -0.00526379      -0.01636052       0.00277600
C        3.90515596       7.05423299       3.24249791      -0.00823857      -0.00238866      -0.00504465
C        4.04380097       6.05604031       4.38371506      -0.01272206       0.00072086      -0.00188754
C        3.41855010       6.39275072       1.95809725      -0.00910432      -0.00252819      -0.00473782
C        4.44190561       6.67987780       5.71524669      -0.01152976       0.00428015      -0.00393401
C        3.21857538       7.37187029       0.80909128      -0.01014400      -0.00137445      -0.00373107
C        4.46661311       5.65617086       6.84268880      -0.01324513       0.00818935      -0.00042340
H        3.20809763       7.84640922       3.52848980      -0.00584716       0.00037146      -0.00767696
H        4.86607623       7.54879825       3.06211691      -0.00647554      -0.00567420      -0.00446435
H        4.77174409       5.27921708       4.11356234      -0.01487735      -0.00224751       0.00174243
H        3.08667276       5.53724483       4.51572683      -0.01422903       0.00386679      -0.00081358
H        4.12244762       5.60542771       1.66423310      -0.00926566      -0.00236523      -0.00555270
H        2.47252106       5.88080238       2.16686802      -0.00898388      -0.00261523      -0.00444008
H        5.42562822       7.15222409       5.61878229      -0.00978500       0.00002968      -0.00563058
H        3.74170950       7.48419360       5.95694394      -0.00874221       0.00730124      -0.00637782
H        2.47903360       8.12878277       1.07112324      -0.00673531       0.00099666      -0.00091730
H        2.88648428       6.86006466      -0.09655051      -0.01475693       0.00054567      -0.00296542
H        4.14055217       7.90759808       0.57823590      -0.00936450      -0.00383681      -0.00631811
H        3.48827710       5.18473256       6.95770891      -0.01416048       0.01079827       0.00255486
H        5.18810307       4.86089036       6.64022359      -0.01510708       0.00596108       0.00180993
H        4.73237232       6.10648153       7.79966123      -0.01098218       0.01131587      -0.00260447
C        8.86354697      10.15814114       1.62361487       0.00456586       0.00320566       0.00420535
C        8.51945862       8.67749776       1.74427594      -0.00565493       0.00587839       0.00529552
C       10.16732397      10.46777162       2.36343979      -0.00015545      -0.00149822       0.01107603
C        7.23603619       8.23283911       1.05856009      -0.00360534       0.00932363      -0.00166994
C       10.81399569      11.79119736       2.00744065       0.01360577      -0.00887048       0.01471128
C        7.05148373       6.72294436       1.15512238      -0.00533865       0.00858057      -0.00898901
H        8.96266237      10.41719314       0.56310818       0.01100063       0.00047103       0.00465757
H        8.03921133      10.76695563       2.00997126       0.00764561       0.01019911      -0.00248659
H        8.46618577       8.40835348       2.80506557      -0.01435021       0.00853828       0.00537288
H        9.35813340       8.09857396       1.33557697      -0.00702432      -0.00054257       0.01178615
H        9.99874857      10.42825570       3.44335127      -0.00482991       0.01196326       0.01000646
H       10.88843666       9.67292550       2.15595310      -0.00351602      -0.00717330       0.02496602
H        6.37972101       8.74990999       1.50059164      -0.00598651       0.00678709      -0.00308943
H        7.25713970       8.53545550       0.00664289      -0.00030633       0.01237451      -0.00056729
H       11.07700893      11.86911543       0.88885439       0.01961154      -0.00931410       0.01381552
H       11.79129700      11.94060454       2.63776477       0.00303765      -0.03009579       0.01899737
H       10.23693677      12.69138531       2.22201662       0.01556359      -0.00561674       0.00415848
H        7.89283560       6.19875364       0.69349991      -0.00524125       0.00968562      -0.01042394
H        7.00315722       6.40139279       2.19806778      -0.00726739       0.00286555      -0.01084512
H        6.13707898       6.38880991       0.66502135      -0.00521213       0.01182447      -0.01183756
C       11.69342960       1.66131228       7.43234914       0.00433484      -0.00704092       0.00477853
C       11.57287498       2.46466493       8.72101655       0.00520996      -0.00649077       0.00491418
C       11.58113626       2.52262609       6.17958339       0.00854257      -0.00567800       0.00551596
C       11.60332241       1.61323457       9.98452636       0.00517279      -0.00549930       0.00466047
C       11.60755121       1.70468520       4.89738066       0.00498476      -0.00442389       0.00444108
C       11.50726576       2.43715401      11.26155067       0.00117937      -0.00638041       0.00383168
H       12.64431384       1.11965398       7.41561668       0.00546911      -0.00564043      -0.00083566
H       10.91763048       0.89024046       7.40885805       0.00222310      -0.00722885       0.00318871
H       10.64243974       3.04522617       8.70189725       0.00543982      -0.00561480       0.00193601
H       12.38113103       3.20482156       8.76636773       0.00682417      -0.00760081       0.00184287
H       10.65629322       3.11120410       6.22712244       0.01082608      -0.00236216       0.00860671
H       12.39869960       3.25131990       6.17622531       0.00876191      -0.00666609       0.00200022
H       10.78172588       0.88927547       9.95021106       0.00729412      -0.00718291       0.00217266
H       12.52200904       1.02107773      10.00006794       0.00602683      -0.00374794       0.00672521
H       12.50313944       1.08669489       4.83326252       0.00627565      -0.00241384       0.00106680
H       11.56241350       2.34176491       4.01386450       0.01069713      -0.00402761       0.00537534
H       10.75844490       1.01937449       4.86061575       0.00593814      -0.00602309       0.00395565
H       12.29094173       3.19667399      11.29255674       0.00033446      -0.00597538       0.00718698
H       10.54731292       2.95574698      11.32520828       0.00090550      -0.00701065       0.00120296
H       11.62139635       1.81434602      12.14988224      -0.00111785      -0.00747506       0.00282340
C        8.86231823       6.88470507       9.66122773       0.00560403       0.00136298       0.00322380
C       10.17472126       7.26715186      10.32910623       0.00610602      -0.00035092       0.00333425
C        8.84713444       5.44767289       9.15860270       0.00580934       0.00368696      -0.00329300
C       10.24721204       8.72980317      10.74492148       0.00780758      -0.00077593       0.00462316
C        7.55784598       5.08655934       8.44166454       0.00548309       0.00534426      -0.00367261
C       11.59554085       9.10620068      11.33844923       0.00986752      -0.00011886      -0.00040038
H        8.03173455       7.03891646      10.36032303       0.00617120      -0.00224560       0.00477600
H        8.67952223       7.55829790       8.81715695       0.00417191       0.00478658       0.00646639
H       11.00060580       7.04774893       9.64309084       0.00559157       0.00012785       0.00223902
H       10.33789772       6.63086164      11.20752256       0.00651361      -0.00177054       0.00204304
H        9.69672486       5.30273783       8.48358008       0.00528750       0.00725524      -0.00455394
H        9.01095836       4.76615699      10.00043055       0.00718933      -0.00006451      -0.00650662
H       10.03951942       9.35825700       9.87415574       0.00438639      -0.00020680       0.00592291
H        9.44903733       8.93339249      11.46480065       0.01061049      -0.00123555       0.00776604
H        6.69960026       5.14882457       9.11339978       0.00588393       0.00157409      -0.00299977
H        7.58519931       4.07353009       8.04116860       0.00664559       0.00681609      -0.00768173
H        7.37222027       5.76949035       7.61089913       0.00389537       0.00807346      -0.00090724
H       11.82773417       8.49458930      12.21303038       0.01241855       0.00205354       0.00041413
H       12.39568134       8.95809402      10.61094614       0.00755073      -0.00196781      -0.00249556
H       11.63460217      10.14941979      11.65718224       0.01203018       0.00046930      -0.00239202
C       11.09093532       7.19259336       5.33705145      -0.00704670      -0.00072755       0.00054234
C       10.58711936       6.29730818       4.21237785      -0.00363719      -0.00028434      -0.00105982
C        9.99392528       8.09510042       5.89216409      -0.00915301      -0.00441170       0.00213983
C       11.65660812       5.40997915       3.58729872       0.00019830       0.00604134      -0.00231582
C       10.47976746       9.04813412       6.97427061      -0.01002017      -0.00268942       0.00093329
C       11.11041481       4.57099916       2.43834550       0.00514781       0.00860497      -0.00567156
H       11.50308322       6.57661599       6.14564512      -0.00521795      -0.00055110      -0.00040460
H       11.91908784       7.80430171       4.97019614      -0.00874344       0.00203758       0.00154780
H       10.15477402       6.92741205       3.42850342      -0.00600474      -0.00076056      -0.00002700
H        9.76585238       5.66773467       4.57998120      -0.00086370      -0.00463177      -0.00273478
H        9.56992236       8.67618216       5.06714061      -0.01223411      -0.00575620       0.00282919
H        9.17464298       7.47332150       6.27541692      -0.00634366      -0.00681227       0.00383653
H       12.47873271       6.03928653       3.23521640      -0.00174916       0.01000932       0.00046092
H       12.08135998       4.75508212       4.35348980       0.00204995       0.00507876      -0.00409833
H       10.93728276       8.50257048       7.80068215      -0.00441769      -0.00070220      -0.00088370
H        9.65664319       9.64302469       7.37706954      -0.01125896      -0.00695534       0.00423352
H       11.23678398       9.72814114       6.58656365      -0.01545423       0.00132629      -0.00227024
H       10.26320087       3.96414508       2.76742204       0.00765310       0.00281703      -0.01010627
H       10.75588906       5.20822080       1.62501156       0.00500846       0.00862561      -0.00511126
H       11.85915997       3.89123666       2.02874889       0.01120940       0.01820695      -0.00778999
