143
Lattice="11.921562397651716 0.0 0.0 0.0 11.921562397651716 0.0 0.0 0.0 11.921562397651716" Properties=species:S:1:pos:R:3:forces:R:3 energy=-648571.0625 stress="-0.0002885204157792032 -0.0008444362902082503 5.6022034186753444e-05 -0.0008444362902082503 -0.0016702853608876467 0.0004815824067918584 5.6022034186753444e-05 0.0004815824067918584 -0.0005195815465413034" pbc="T T T"
Pt      12.36314985      11.88392114      -0.56707014       0.01345050      -0.00482064      -0.00717014
S        8.52790620      11.43039171       5.54220392      -0.00168800       0.00406784       0.01956257
S       10.26898017       8.37871371       2.07288420      -0.01182939       0.01211701       0.00052404
S       10.39307833      10.51185043       4.76864331      -0.00683925       0.01764305      -0.00726613
S       10.05890544       8.61120902       4.22721837      -0.00701144       0.01463118       0.00124514
O        8.03699222      10.53859629       6.58240709       0.02418500      -0.00019193       0.02905750
O       11.61234838       8.83523318       1.73183792      -0.01400340       0.01458055      -0.00223109
O        7.63538124      11.62398265       4.42310362      -0.02295947      -0.00454493       0.03640807
O        9.18866941      12.63270520       6.04329449      -0.00604999       0.01051903       0.00891733
O       10.10595492       6.92841710       2.05029168      -0.00870672       0.01150227       0.00398630
O        9.21043006       9.12352518       1.41680191      -0.01510286       0.00801063       0.00072801
O        7.72971486       7.00829844       6.94258279       0.00583434      -0.03504443      -0.00030699
N        9.98661078       6.85236146       7.22707769       0.00681147      -0.01486939      -0.00024942
C        9.98309128       5.41607826       7.37303869       0.01880712      -0.01389877       0.00473796
C       11.27382106       7.51010126       7.26277354       0.00061440      -0.00331922      -0.00241903
C        8.83415903       7.52910285       7.00832301       0.00198960      -0.02539313      -0.00265692
H       10.41382375       5.13398584       8.33821900       0.02049416      -0.00621055       0.00601131
H       10.57347457       4.95643936       6.57840150       0.02332601      -0.01065136       0.00649473
H        8.95380919       5.07106493       7.31497930       0.02217177      -0.02372143       0.00552561
H       11.80237710       7.24907762       8.18505450       0.00231646       0.00773199      -0.00046122
H       11.14013577       8.59094528       7.21480320      -0.00973188      -0.00517505      -0.00930269
H       11.89836234       7.20468452       6.42092215       0.00417474      -0.00266661       0.00032306
H        8.97562634       8.61766154       6.91512613      -0.00629411      -0.02529049      -0.00796969
O        2.21462925       4.93232271       9.49847870      -0.00945652       0.00628352       0.00256896
N        3.52500458       4.71540798       7.63122863      -0.00779527       0.00329772       0.00243619
C        3.52623052       3.27478601       7.64475836      -0.00198072       0.00356735       0.00803939
C        4.33899808       5.38325969       6.63778059      -0.01175303       0.00215606      -0.00180550
C        2.91012203       5.40406507       8.60970346      -0.00977212       0.00704911      -0.00449324
H        4.54983959       2.91105056       7.76962036      -0.00044280       0.00809146       0.00752252
H        3.11846544       2.87966390       6.71100112      -0.00196871      -0.00138267       0.01010430
H        2.91912044       2.93811155       8.48173214      -0.00026114       0.00416285       0.01000738
H        5.37004118       5.03319662       6.69820016      -0.00903878       0.01071659       0.00090927
H        4.33332191       6.45538645       6.82121883      -0.02106952       0.00333112      -0.00988489
H        3.93730822       5.21205354       5.63613455      -0.00981605      -0.00836813      -0.00071308
H        3.08897606       6.48421058       8.50843223      -0.01811402       0.00560039      -0.00928352
O        6.09952129       5.04246816       9.02154350       0.00917947      -0.00655586      -0.00269163
N        7.26386826       6.82027692       9.87205237      -0.00131566      -0.00707060       0.00076511
C        6.21783974       7.79932570       9.66086963      -0.00138927      -0.00915049      -0.00680343
C        8.54698234       7.31560588      10.30735633      -0.00419863      -0.00441980       0.00336269
C        7.11414582       5.54778281       9.46929287      -0.00199670      -0.00962740      -0.00281715
H        6.44734594       8.40710978       8.78296762       0.00187200      -0.01122409      -0.00755012
H        6.16046022       8.45475258      10.53040600      -0.00517095      -0.00607985      -0.00901839
H        5.27856635       7.27328344       9.50682072      -0.00023848      -0.00943959      -0.00874702
H        8.91674848       8.05779066       9.60121125      -0.00074419      -0.00735331       0.00141647
H        9.25264789       6.48813555      10.37169292      -0.00365223      -0.00329548       0.01131299
H        8.46710662       7.79692393      11.28297164      -0.00835476       0.00032039       0.00087151
H        8.04187811       4.96651737       9.62266499       0.00215268      -0.00547799       0.00186780
O        2.42780994       6.80839882       3.57708972      -0.00546491       0.00830197      -0.00674498
N        1.69281113       6.47432394       1.44234469      -0.00870493       0.00801449      -0.00482351
C        2.59727907       7.43140660       0.85328115      -0.00337276       0.00103908      -0.00757957
C        0.72669737       5.86310562       0.55556548      -0.01224703       0.01112256      -0.00256691
C        1.64035731       6.30747550       2.77936623      -0.00753641       0.01150948      -0.00377160
H        2.02625664       8.29513787       0.49764208       0.00209388       0.00449717      -0.00785003
H        3.12773286       6.97699473       0.01342465      -0.00898932      -0.00389412      -0.00835833
H        3.30523433       7.75862562       1.61104833       0.00048348      -0.00317445      -0.00958049
H        0.08635507       6.63134904       0.11726214      -0.01076525       0.01278695      -0.00167401
H        0.09096802       5.18868715       1.12527343      -0.01310097       0.01371464      -0.00069597
H        1.24138413       5.32569498      -0.24399448      -0.01552299       0.00921689      -0.00328276
H        0.82210040       5.64607722       3.10159875      -0.01110041       0.01555419      -0.00255767
O        5.46953292       1.69319842       2.74806614      -0.01316929       0.00228611      -0.00192833
N        3.30110986       2.37423186       2.47702628      -0.01128858       0.00753482       0.00007442
C        3.04468026       2.55989530       3.88677533      -0.01007267       0.00847298       0.00013818
C        2.28524227       2.80669923       1.54251781      -0.01275222       0.00546423       0.00084724
C        4.50419334       1.93567696       2.04458341      -0.01258695       0.00394014      -0.00030512
H        2.19934554       1.94088567       4.19959083      -0.00615597       0.00462759       0.00275792
H        2.79476201       3.60264784       4.09895778      -0.01645836       0.00719991      -0.00213059
H        3.93890058       2.27211522       4.43511206      -0.00779471       0.01460126      -0.00056906
H        1.36069717       2.24090817       1.67350323      -0.01048973       0.00145900      -0.00089724
H        2.65074593       2.67262250       0.52631606      -0.01171826       0.00918334       0.00088489
H        2.08230561       3.86782513       1.69152580      -0.01723560       0.00410140       0.00370312
H        4.51560435       1.82092903       0.95096412      -0.01408032       0.00354453      -0.00061870
O        1.21077935      11.59852222       1.37928519       0.01474273      -0.00870319      -0.00862670
N        2.76976707      10.78823895       2.81545656       0.00942940      -0.00005073       0.00039396
C        1.79171674      10.26191611       3.75602362       0.00504225       0.00799733       0.00027567
C        4.17432406      10.69623205       3.18606322       0.00787181      -0.00173672       0.00569145
C        2.39828534      11.37287525       1.69248359       0.01406980      -0.00712481      -0.00414902
H        1.73321341      10.89906488       4.64105693       0.00525220       0.01261371      -0.00319213
H        2.09790379       9.25990783       4.05756986       0.00099070       0.00876746       0.00615671
H        0.82422612      10.21270795       3.26743447       0.00595647       0.00878862      -0.00174066
H        4.41602582      11.41021579       3.97488153       0.00659175       0.00057277       0.00385129
H        4.80781980      10.92276247       2.33325418       0.01096311      -0.00541516       0.00712383
H        4.40609610       9.69443312       3.53495291       0.00436563      -0.00125590       0.00937571
H        3.22259221      11.65880365       1.03054777       0.01675421      -0.01227054      -0.00321236
O        2.39959558       8.51191555       7.18739809      -0.01227838       0.01800966       0.00081551
N        3.32744878      10.12516573       8.51677736       0.01035462      -0.00078806      -0.00254099
C        3.97781262      10.82583652       7.42897726       0.01447912      -0.00486718      -0.00284974
C        3.46025681      10.66724870       9.84843238       0.01940985      -0.00575407      -0.00266357
C        2.58479883       9.02525376       8.27599259      -0.00462610       0.00731891      -0.00880390
H        5.04202869      10.94998049       7.63376007       0.01631907      -0.01583564      -0.00476621
H        3.52264835      11.81139362       7.29249456       0.02411249       0.00019976       0.00106900
H        3.85324611      10.24009035       6.52315208       0.00612785      -0.00013030      -0.00380257
H        4.51572966      10.75052312      10.11469986       0.02116135      -0.01319949      -0.00666738
H        2.96398009      10.00534720      10.55666669       0.01803786      -0.00389421      -0.00174794
H        2.98130267      11.64942411       9.92687877       0.02669688      -0.00244364       0.00213828
H        2.15269283       8.61397691       9.20769109      -0.00647080       0.01352182      -0.00467026
O        8.11451600      10.41528457      10.08186908       0.00181758       0.00941956      -0.03950930
N       10.35409800      10.84480504       9.88538556       0.00375208       0.01458383      -0.01117945
C       10.75884292       9.71204138      10.68394811      -0.00879093       0.02089570       0.00107990
C       11.39953908      11.81231940       9.61410199       0.01066399       0.00890750      -0.00555056
C        9.03951110      11.09596023       9.66571270       0.01045835       0.01322550      -0.03579167
H       11.46900042      10.00137112      11.49237490      -0.02842431       0.02676995       0.01579697
H       11.26073296       8.95100568      10.08028716       0.00426391       0.01902850       0.01509395
H        9.91229557       9.30509609      11.22320811      -0.01806742       0.01997139      -0.01436885
H       12.97293058      13.25000251      11.05316226       0.02955887      -0.01322481      -0.00926951
H       10.95174033      12.74040489       9.26060926       0.01838759       0.01475538       0.00002360
H       12.08558797      11.43725903       8.84295895       0.00870866       0.00981341      -0.00785044
H        8.89336921      11.99569607       9.04916807       0.01493095       0.00342190      -0.04404926
O       11.27954809       4.59505425       4.40045447       0.01546025      -0.03805053      -0.00351799
N        9.16086959       3.81595218       4.00977269       0.00656414      -0.01401277      -0.00188181
C        8.48924518       5.06945138       4.27871934       0.02058719      -0.00784284       0.00203536
C        8.33097841       2.67139779       3.69808243      -0.00574768      -0.00325501      -0.00627578
C       10.49482659       3.70466046       4.09323885       0.00503856      -0.02928996      -0.00286436
H        7.90674989       5.01617626       5.20087032       0.01659325      -0.00601040      -0.00069118
H        7.81024046       5.30368225       3.45945127       0.02744874       0.00541255       0.00044370
H        9.22322754       5.86484022       4.35808451       0.02981475      -0.01733300       0.00929449
H        7.66026192       2.43504381       4.52269772      -0.00863871       0.00136606      -0.00762069
H        8.94743303       1.79464642       3.52785716      -0.01513764      -0.00906235      -0.00977773
H        7.72327368       2.86478961       2.81228579      -0.00246987       0.00707251      -0.00616592
H       10.83525806       2.68358136       3.85174797      -0.00696087      -0.03285193      -0.00267889
O        6.23665940       8.40281841       3.46461398      -0.00489581      -0.01345658       0.02105394
N        5.86058551       6.47931353       2.29691533      -0.00764853      -0.00597093       0.01373637
C        6.86555554       6.76061689       1.30104769      -0.01429516       0.00085047       0.00918474
C        5.11847229       5.24861985       2.19061632      -0.00382997      -0.00774947       0.01365736
C        5.64983512       7.34828597       3.31755208      -0.00145257      -0.00979245       0.01952809
H        6.42027914       6.71563521       0.30526640      -0.02021769       0.00465217       0.01156789
H        7.68725153       6.03885155       1.34903202      -0.01321176       0.00161484       0.00056349
H        7.28788254       7.74602019       1.49044283      -0.01451787       0.00019002       0.01147044
H        4.66895652       5.15010266       1.19845989      -0.00476338      -0.00786510       0.01419300
H        4.32303837       5.25188625       2.93384844      -0.00303075      -0.01050438       0.01448211
H        5.76038389       4.37751184       2.35773964      -0.00138178      -0.00597262       0.01242477
H        4.85121162       7.00488692       3.99435241       0.00240058      -0.01711625       0.02254617
O        4.74355156       3.38921592      11.25715790       0.00564969      -0.00173786       0.00273937
N        6.73226338       2.28206873      11.04659034       0.00350129       0.00189123       0.00027542
C        6.15676356       1.09061122      10.46541768       0.00494264       0.00292596      -0.00345166
C        8.15537780       2.28259192      11.28966831       0.00284170       0.00269146       0.00086779
C        5.95784840       3.33852027      11.35849529      -0.00254917      -0.00037897       0.00284079
H        6.36557814       0.22214335      11.09261839       0.00399108       0.00198981      -0.00423756
H        6.59065555       0.89685060       9.48162416       0.00796627       0.00444075      -0.00240389
H        5.08645342       1.24895485      10.36604570       0.00554296       0.00209835      -0.00595456
H        8.43212254       1.44618377      11.93534402       0.00402028       0.00207973      -0.00031051
H        8.43933799       3.21303394      11.77823163       0.00158416       0.00225303       0.00247940
H        8.71182832       2.19275583      10.35354114       0.00381526       0.00431838       0.00122505
H        6.55369415       4.17443654      11.76051795      -0.00023130      -0.00072467       0.00600469
