147
Lattice="16.31142247543428 0.0 0.0 0.0 16.31142247543428 0.0 0.0 0.0 16.31142247543428" Properties=species:S:1:pos:R:3:forces:R:3 energy=-1622376.0 stress="-0.0001421174529241398 0.00011169153367518447 1.387574229738675e-05 0.00011169153367518447 0.00013203556591179222 -0.00015894813986960799 1.387574229738675e-05 -0.00015894813986960799 -0.00018410873599350452" pbc="T T T"
Pt      16.64663590      16.27220127      -0.38170973      -0.00106712      -0.00615713       0.00976869
P       15.15894000      15.85180385       1.92527504       0.03419065      -0.00418330      -0.00291586
O       15.43277068      14.86329681       0.48248970      -0.00197158       0.00206190       0.00973976
O       13.76156198      16.32252002       1.79787660      -0.04398155      -0.01198083       0.00581229
O       16.21631629      16.96202958       1.36802234      -0.01883990       0.02281791      -0.00992703
O       15.70438640      15.11847900       3.07309346       0.00969613       0.00544441       0.00722086
H       14.58000194      14.80695946       0.01199631       0.01063508      -0.00807885      -0.00045320
Cl       5.52149938       5.93514841      10.24104782      -0.00890432      -0.00454372      -0.00004715
Cl       5.56044779       7.94815465      12.35260935      -0.00718389      -0.00228050      -0.00229640
Cl       5.00134864       5.14212819      12.99103257       0.00940400      -0.00358887       0.00398690
C        5.88576262       6.26113138      11.94551804      -0.00117201      -0.00132672      -0.00157002
H        6.94257715       6.07937671      12.09622953       0.00075588       0.00430336      -0.00756728
Cl       3.77448090       4.78742011       7.45795387      -0.00374568       0.01203698      -0.02126184
Cl       1.38329036       6.25110856       8.24655845      -0.00982682       0.00024116      -0.01559901
Cl       1.35596330       3.33277311       8.18574048       0.00094105      -0.00007915      -0.03024183
C        2.33235762       4.77365111       8.48866967      -0.00458303       0.00217287      -0.02228435
H        2.66141964       4.75179611       9.52241560      -0.00473701      -0.00231870      -0.02217811
Cl      11.36868281      13.87828402      10.54883249       0.01312494      -0.00515799      -0.00239603
Cl      13.70293769      12.14274584      10.24052020       0.01051559      -0.00792158      -0.01389199
Cl      13.50687689      14.61908198       8.70537620       0.01080514       0.00060177      -0.00313279
C       13.11311283      13.81566195      10.22188037       0.01232963      -0.00728812      -0.00628202
H       13.61315520      14.33851650      11.02828417       0.01399763      -0.01109947      -0.00527477
Cl       8.90956016       9.95316550       4.64270116       0.00494060      -0.00365930       0.01068042
Cl       7.65334506       9.55100757       7.24336526      -0.02486257       0.00434285      -0.00360388
Cl       8.20646484      12.25727992       6.29097974      -0.00380303       0.00140610       0.00296178
C        7.76639422      10.60461871       5.82605301      -0.00417054       0.00344290      -0.00238799
H        6.78746042      10.64733883       5.36295779       0.00035256       0.00554728      -0.01067494
Cl       8.28459158       5.67599823       3.46755814       0.00020593       0.00909059      -0.00679575
Cl       5.39274127       5.58477703       3.09043794       0.00106357      -0.01187055       0.00408198
Cl       6.57029903       4.57019925       5.54465658       0.01739158      -0.00903276      -0.00458708
C        6.71003076       5.77490391       4.26799265       0.00299791      -0.00410934      -0.00105055
H        6.61848742       6.76004589       4.71063765      -0.00190580      -0.00599697       0.00193344
Cl       1.18740430      14.72723675       9.88558510       0.00734857       0.02040920       0.01438555
Cl       1.05364649      15.48524235       7.07000406      -0.01164687       0.00644347       0.01049939
Cl       3.63378574      15.34219515       8.41688374      -0.00271806       0.00397500      -0.00749950
C        1.99313167      14.66031065       8.30378418      -0.00527653       0.00852416       0.00735753
H        2.09783428      13.61486087       8.03258397      -0.01157035       0.00665167       0.01177235
Cl      12.66145548       9.24351551       5.66289478      -0.00837761      -0.00205845      -0.00018993
Cl      14.48744526      11.48298197       6.08244546       0.00250125      -0.01074478      -0.00060989
Cl      11.70951415      11.66598679       6.96500296       0.00462395       0.00168806       0.00342474
C       13.09072388      10.59547474       6.71927186      -0.00067751      -0.00491003       0.00032405
H       13.37202652      10.18584708       7.68144744      -0.00144763      -0.00693232      -0.00061759
Cl      13.08999707       9.19769855      13.02212039       0.00375562       0.00294360       0.00319225
Cl      10.96646473       9.48142099      14.99754160       0.01082790       0.00388816       0.01171904
Cl      12.21617085       6.87529828      14.56675435       0.00980619       0.00335833       0.00903235
C       12.45786994       8.63166342      14.57869118       0.00817786       0.00277087       0.00533574
H       13.19757795       8.85993044      15.33716511       0.01108193       0.00432376       0.00131097
Cl       8.81337167       5.86524080       8.06481438      -0.01276018      -0.00009570       0.01888652
Cl       7.77314056       3.18575036       8.58566574      -0.00416914      -0.00855090      -0.00755359
Cl      10.23781119       3.51954631       7.05811954      -0.00935936       0.01499161      -0.01172626
C        9.23259261       4.16866544       8.35497728      -0.00737494      -0.00186331      -0.00040389
H        9.80042230       4.12923016       9.27744154      -0.00387213      -0.01055062      -0.00283346
Cl       2.93609976      11.45543345      10.17641645      -0.00460468      -0.00414521       0.00130522
Cl       1.40953421      10.13801972       8.06306228      -0.00989339       0.00129405       0.00308526
Cl       4.03745191       9.10820051       8.83237078      -0.00207588       0.00798532      -0.01780289
C        2.56449276       9.91141323       9.38930094      -0.00218018      -0.00177295      -0.00420509
H        2.09864593       9.27186180      10.12950640       0.00438519      -0.00789684      -0.00529623
Cl       6.69449839      -0.72232372       3.69231195      -0.02427347       0.00696933       0.01164473
Cl       8.32684902       1.42960115       4.78231904       0.02057347      -0.01464979      -0.01019317
Cl       7.62681841       1.43446797       1.94496032      -0.01737890      -0.00633325      -0.00305790
C        7.11184414       1.00580916       3.58349880      -0.00038770       0.00054682       0.00543073
H        6.20720799       1.56296365       3.79566179       0.01063457       0.01292157       0.01755635
Cl      12.36692312      15.18031003      15.59543176       0.00566390       0.00056025       0.01687008
Cl      13.13168483      12.88067996      13.96176654       0.00844517       0.02088246      -0.00676198
Cl      10.36686577      13.19235757      14.84622199       0.00747496       0.01189750      -0.00893338
C       11.83420106      14.02822203      14.35304270       0.00948328       0.01634468       0.00481226
H       11.61163702      14.57973502      13.44756778       0.01102561       0.02684394       0.01047361
Cl      13.81856376       9.76982908       1.89947071      -0.00673673       0.01567237       0.01285897
Cl      16.14606491      10.10584585       0.17052322      -0.01207940       0.00039461       0.00142109
Cl      15.67481907      11.97509536       2.37673809       0.01029310       0.00220692       0.00449985
C       15.51047469      10.31924247       1.82075966      -0.00361822       0.00464000       0.00435033
H       16.08675104       9.67192325       2.47061996      -0.00503993       0.00089994       0.00144783
Cl      11.02998315       2.92777893       1.88234785       0.00538862      -0.00797446       0.00260870
Cl      13.82991477       3.73975546       1.71873091      -0.00046006       0.00516394       0.00246815
Cl      12.66223059       3.04855996       4.30407992       0.00759678      -0.01036263      -0.00131738
C       12.65211797       2.70537112       2.55928750       0.00718407      -0.00623073      -0.00055373
H       12.95667673       1.66997897       2.40287090       0.00937267       0.00021976      -0.00414532
Cl       5.75834912       9.30824303       2.64862230       0.01445238      -0.00610247       0.00208004
Cl       3.73576307       8.81815500       4.68579350       0.01052972       0.00935338       0.00136840
Cl       2.97503690      10.03916122       2.13911266       0.01771049      -0.00180578      -0.00649501
C        4.05357809       8.90279531       2.94419675       0.01302199      -0.00024987       0.00192149
H        3.88062305       7.91767654       2.52917946       0.01109728      -0.00187537       0.00706308
Cl      10.74217788       3.38705864      14.38047393      -0.01346175       0.02201697       0.01174244
Cl      11.26931563       4.22569780      11.63205132       0.01922938       0.01277691       0.01560140
Cl       8.52863519       3.66482747      12.48776232       0.01079509       0.00748208      -0.01811600
C       10.12052814       4.27229959      12.98684544       0.00284181       0.01519487       0.00025071
H       10.00134499       5.30987313      13.27435937      -0.00476839       0.01566750      -0.00469354
Cl       7.42739570      11.28177766      -1.01100031       0.00686215      -0.00833172       0.01282337
Cl       8.15931410      11.99383480       1.71663427      -0.01571202      -0.00846240       0.01607907
Cl       7.04929920      14.01986657      -0.06698903      -0.00171628      -0.01161668       0.00888015
C        7.04541655      12.30891448       0.37759305      -0.00615511      -0.00999221       0.00932880
H        6.04464098      12.05368226       0.70745149      -0.00829604      -0.01063006       0.00160226
Cl      10.38243668      10.14138983       9.94108200       0.00399325      -0.01131465      -0.00375679
Cl       8.49309724      10.42434835      12.14067186      -0.01930472      -0.00594889      -0.02413642
Cl       9.23411598       7.76171449      11.17272829       0.01051584      -0.00912362       0.00727499
C        9.77648154       9.43442686      11.43802369      -0.00561213      -0.00169167      -0.00356930
H       10.59383765       9.39366757      12.14697460      -0.01247597       0.01117135       0.00422627
Cl       1.79225213       4.47488833      15.87715368       0.00548814       0.00576632      -0.00686311
Cl      -0.68056299       3.46118708      14.71528393       0.00095767      -0.00406817       0.01339541
Cl       1.61180261       1.65349748      15.18372606       0.00074875       0.00667417       0.00762647
C        0.65511405       3.14322641      15.77654304       0.00865024       0.00021818       0.00530508
H        0.30931662       2.84445324      16.76344684       0.01349921       0.00409029       0.00718203
Cl       2.31285089      12.64895356       4.90279307      -0.00787953      -0.00728254      -0.00972263
Cl       4.47188441      12.11815174       6.78514091      -0.01207105       0.00216982      -0.00220132
Cl       5.08253970      12.55882873       3.97593511      -0.00350364       0.00697966       0.00049987
C        3.98986883      12.97969555       5.31605719      -0.01122196       0.00120559      -0.00321373
H        4.10014507      14.04324750       5.49516733      -0.01730137       0.00164360      -0.00231728
Cl       5.27819546       7.06568880      -0.28319478      -0.01309976      -0.01421849       0.00853202
Cl       7.06574214       4.75232759      -0.18472791      -0.00482057      -0.00944516       0.01137181
Cl       8.06398344       7.32371142      -1.12830565      -0.01696199      -0.00939180      -0.00407541
C        6.94316901       6.50483190      -0.02853186      -0.01036498      -0.00918961       0.00335738
H        7.22371799       6.77017328       0.98405550      -0.00745385      -0.00374519       0.00096342
Cl       0.61898782       9.03049224      13.27359276       0.00896610       0.00623998      -0.02320513
Cl      -0.70846362       6.53496748      12.53680129       0.00556102      -0.00258648       0.01359285
Cl       2.07968926       6.97696704      11.81103345       0.00005352      -0.01037515      -0.00859228
C        0.81147545       7.28755586      13.00880877       0.00768372       0.00368365      -0.00531037
H        1.12934655       6.84342618      13.94460237       0.01371993       0.01477551      -0.00269508
Cl      10.30940568      15.31435920       2.49647186       0.00615954      -0.00129646      -0.00382578
Cl      11.78744483      12.85450598       3.05199105       0.01724216       0.00651622       0.00824302
Cl      11.68780188      14.99062011       5.04740824      -0.00395173       0.01028764       0.00185978
C       10.81810503      14.17104256       3.73975456       0.00579520       0.00195619       0.00001945
H        9.92604676      13.73006937       4.16824907       0.00561139       0.00016654      -0.00310558
Cl       2.89134350      15.50623189       2.60301968      -0.03788555      -0.01284680      -0.02455458
Cl       3.17210206      13.75556870       0.29768086       0.01590551      -0.01277952      -0.01652662
Cl       4.39850687      16.40842276       0.27360654      -0.00346144      -0.00480938       0.00110972
C        3.93696884      15.02247882       1.28356972      -0.01088978      -0.00613854      -0.00492948
H        4.85381460      14.61254394       1.68874087      -0.01421607       0.00144431       0.01081568
Cl      12.10011182       6.67033641       8.41136923      -0.00627768       0.00351622       0.00461397
Cl      14.63715740       7.96706201       9.05437251      -0.00693016      -0.00227994       0.01014814
Cl      14.29749095       5.08973627       9.48090528      -0.00528770      -0.00367591      -0.00924709
C       13.85002079       6.47782317       8.47901922      -0.00654991       0.00246716       0.00030206
H       14.21637394       6.29519563       7.47614341      -0.00801872       0.00999161      -0.00147894
Cl       3.97743347       0.26737310      12.91497363       0.00020242       0.00246824      -0.00196972
Cl       2.58322445       2.54679174      11.73283260      -0.00694365       0.00178298       0.00068042
Cl       5.15568403       1.68101334      10.65006565       0.00221553       0.01662879       0.00588017
C        3.65160624       1.16360286      11.42193034       0.00134917       0.00735331       0.00001916
H        3.13462376       0.49757604      10.74140402       0.00649512       0.00705798      -0.00390753
Cl      -0.12598925       8.46194128       4.98395819      -0.00479859      -0.00827157       0.01295998
Cl      -0.93525002       5.66106719       4.81133061       0.01389915      -0.01103242      -0.00032920
Cl       0.95480310       6.74353667       2.87917001       0.00517453       0.01021233       0.00522059
C        0.37393790       6.82220249       4.55927115       0.00642170      -0.00201811       0.00405102
H        1.19971672       6.55032969       5.20658427       0.00800234       0.00011103       0.00222537
Cl       3.57157794       1.71446679       5.31711225       0.01025069      -0.01189727      -0.01206194
Cl       2.80141559       2.96731006       2.78877803      -0.00649732       0.00275524       0.00359610
Cl       0.76636748       1.82310728       4.52799972       0.01002133      -0.03203550      -0.00545473
C        2.31962049       2.64214695       4.46678733       0.00064261      -0.01607649      -0.00069277
H        2.23502941       3.59735829       4.97155479      -0.00813545      -0.02239525       0.00909542
