139
Lattice="12.494479795783544 0.0 0.0 0.0 12.494479795783544 0.0 0.0 0.0 12.494479795783544" Properties=species:S:1:pos:R:3:forces:R:3 energy=-605391.875 stress="-0.001914819935336709 -0.0005088824545964599 0.00033443431311752647 -0.0005088824545964599 -0.0008736029267311096 1.3032410606683698e-05 0.00033443431311752647 1.3032410606683698e-05 -0.0013796596322208643" pbc="T T T"
Pt      13.04915422      11.81134862      -1.05760612      -0.00543940       0.00097835      -0.00604487
P       10.44951007      11.73906601      -0.36142033      -0.02548176       0.02483762      -0.02386892
O       10.04281613      12.12118053       1.13325739      -0.01367506       0.03318608      -0.01232946
O       11.64711614      10.67677350      -0.25495041      -0.01728243       0.01689285       0.00971607
O       11.29559627      12.91856182      -0.95705113       0.01237086       0.02569163      -0.01684797
O        9.24576982      11.27685608      -1.05295801       0.02441132       0.01182151       0.03035733
H       10.74380225      12.58945680       1.59682993      -0.00848810       0.03306175      -0.01972280
C       11.82470499       8.53641896       7.27745418       0.00557896       0.00001386       0.00025173
C       11.09816586       7.92678289       8.29503695       0.00977459      -0.00158970       0.00206827
C       11.63720162       9.88781987       7.00963114       0.00051046      -0.00100459      -0.00049612
C       10.18243194       8.66691249       9.03396547       0.00914210      -0.00399619       0.00335585
C       10.72124185      10.62439790       7.74966600       0.00016075      -0.00359148       0.00094468
C        9.98696411      10.01549072       8.75932140       0.00444357      -0.00490785       0.00286473
H       12.53920678       7.96798790       6.69286254       0.00643779       0.00209319      -0.00028754
H       11.24257654       6.87311185       8.50732804       0.01362264      -0.00078100       0.00258974
H       12.21254835      10.36376019       6.22792509      -0.00321756       0.00006187      -0.00251304
H        9.61577887       8.20054639       9.83060517       0.01241940      -0.00517271       0.00486572
H       10.58559968      11.68071714       7.54747314      -0.00401542      -0.00403871       0.00068371
H        9.30116568      10.58959911       9.36499192       0.00529344      -0.00546747       0.00438091
C        5.60137771       3.95783284       9.14862729       0.00612268       0.00233469      -0.00010365
C        6.22238610       2.87064904       8.54330448       0.00242211       0.00462093      -0.00725115
C        6.32803230       4.79031187       9.99372412       0.00073922      -0.00622486       0.00729175
C        7.56782129       2.61447897       8.78470135       0.00516744      -0.00599702       0.00218581
C        7.67085697       4.52733645      10.24324962      -0.00079893      -0.00037639       0.00425695
C        8.29154181       3.43704260       9.64216075       0.00348404       0.00449442       0.00189603
H        4.55363311       4.15372127       8.95620648       0.00665699      -0.00711988       0.00952465
H        5.65811588       2.22546765       7.88132692       0.00319161       0.00962017      -0.01200633
H        5.85409649       5.65353276      10.44612485       0.00032951      -0.01566689       0.01673065
H        8.05201881       1.77567739       8.30139897      -0.01194559       0.03104144      -0.02054096
H        8.23617393       5.18128101      10.89562206      -0.00037832      -0.01541490       0.01638028
H        9.33572457       3.22818734       9.83931694       0.00541314      -0.00121277      -0.00352561
C        2.13910248       8.58707210       9.29591670       0.00142217      -0.00183903       0.01060921
C        1.47277366       9.32351913      10.25772244      -0.00017250      -0.00058114       0.00844186
C        3.38671537       8.99731417       8.83285317      -0.00121784       0.00286062       0.00686680
C        2.04178805      10.51058608      10.73062473      -0.00525711       0.00276572       0.00372720
C        3.95964872      10.16853703       9.31082782      -0.00536173       0.00714193       0.00224510
C        3.28835602      10.93481844      10.26201936      -0.00785748       0.00677842       0.00151590
H        1.67220100       7.69828031       8.89489045       0.00603697      -0.00633325       0.01432374
H        0.49795704       9.01429689      10.61327235       0.00221868      -0.00395125       0.01042815
H        3.90725842       8.39479314       8.09996454       0.00109894       0.00318981       0.00746657
H        1.84458422      10.91094156      11.90709342      -0.00869229       0.00759725      -0.00136662
H        4.93641862      10.47932703       8.96098357      -0.00692193       0.01051972      -0.00060145
H        3.74686619      11.83064829      10.66349704      -0.01010233       0.00859874      -0.00079854
C        0.91325121       7.62916240       3.79307199      -0.00233607      -0.00544702      -0.00397340
C        0.79990290       9.00861165       3.92174365      -0.00241074      -0.00518505      -0.00901254
C        1.95603282       6.95481559       4.41870240      -0.00686227      -0.00398917       0.00480309
C        1.72867771       9.71188079       4.68025043      -0.00703274      -0.00349505      -0.00529926
C        2.88228992       7.65734989       5.18128694      -0.01137897      -0.00223359       0.00842974
C        2.76350299       9.03606585       5.31423655      -0.01147396      -0.00194468       0.00339739
H        0.20046296       7.07891298       3.19201709       0.00144798      -0.00696383      -0.00687437
H       -0.00500651       9.53520729       3.42265546       0.00150602      -0.00616573      -0.01620480
H        2.05969659       5.88411639       4.28945314      -0.00719178      -0.00446345       0.00945419
H        1.65983848      10.78961967       4.76818081      -0.00718830      -0.00336407      -0.00896493
H        3.71619244       7.13574980       5.63694890      -0.01528626      -0.00134244       0.01632290
H        3.48901377       9.59490051       5.89214895      -0.01555642      -0.00088476       0.00731845
C        8.72193726       6.80604956       6.27904391      -0.00068587       0.00231637       0.00043040
C        8.61904796       8.09455817       5.77044564       0.00063974       0.00202203      -0.00015465
C        7.66210889       6.24413358       6.97868464      -0.00065835       0.00433412       0.00189385
C        7.44839894       8.81791571       5.95150292       0.00212882       0.00383991       0.00099428
C        6.48808443       6.96704172       7.15568140       0.00094517       0.00628608       0.00316913
C        6.38227039       8.25174005       6.63797709       0.00227980       0.00606689       0.00273817
H        9.64156037       6.24892391       6.15081234      -0.00178826       0.00093446      -0.00023797
H        9.46172368       8.54409995       5.26196150       0.00057358       0.00036158      -0.00150435
H        7.75049799       5.24800506       7.39446924      -0.00164257       0.00462173       0.00236057
H        7.36432675       9.82358170       5.56340260       0.00356094       0.00383778       0.00087166
H        5.66408010       6.52338785       7.70148023       0.00144922       0.00808461       0.00523712
H        5.47219685       8.82225229       6.76918129       0.00346005       0.00770861       0.00396013
C        3.42927866       7.49466289       0.36730090      -0.00424267      -0.00448014      -0.00227676
C        4.48630161       6.67705210       0.74964326      -0.00043773       0.00022307      -0.00318833
C        3.16158245       8.65609605       1.08381806      -0.00783761      -0.00518647      -0.00308195
C        5.27096538       7.01940019       1.84530024      -0.00009811       0.00419310      -0.00494194
C        3.95935117       9.00664338       2.16408079      -0.00751155      -0.00090824      -0.00484473
C        5.00708224       8.18351562       2.55219284      -0.00339627       0.00396321      -0.00597090
H        2.81198298       7.23410844      -0.48366474      -0.00437310      -0.00785056      -0.00096279
H        4.69863013       5.76707557       0.20004471       0.00214628       0.00064316      -0.00257659
H        2.31774793       9.27699906       0.81274718      -0.01072693      -0.00899154      -0.00253233
H        6.09085467       6.38149233       2.14483290       0.00241965       0.00728867      -0.00537387
H        3.75528009       9.91701457       2.71111716      -0.01073685      -0.00160643      -0.00512723
H        5.63201193       8.45299536       3.39443635      -0.00345455       0.00731615      -0.00715372
C       11.43017286       2.60645549       3.46519103       0.00347476       0.01514928       0.00522003
C       10.98290104       3.91171515       3.62988031      -0.00179610       0.01319887       0.00488710
C       11.71052202       2.12983113       2.19001133       0.00501233       0.01561943       0.00540082
C       10.79707296       4.72733903       2.51780348      -0.00502019       0.01191433       0.00472733
C       11.49728971       2.92930151       1.07364353       0.00222147       0.01441339       0.00531422
C       11.04059890       4.23207979       1.24141354      -0.00264709       0.01273917       0.00510293
H       11.59363008       1.97077424       4.32684005       0.00540200       0.01584951       0.00516193
H       10.78020010       4.29515524       4.62189479      -0.00396957       0.01249481       0.00461484
H       12.15890356       1.14785185       2.06895581       0.00797463       0.01678123       0.00670683
H       10.43932029       5.74110580       2.64740873      -0.00889087       0.01044743       0.00455976
H       11.66864171       2.52182037       0.08628969       0.00366613       0.01545382       0.00522192
H       10.87613714       4.85957911       0.37428846      -0.00430109       0.01222990       0.00529008
C        5.11833653       4.11186430       3.97311030       0.00423612      -0.00344574      -0.00600803
C        6.26488615       4.00530045       4.74743527       0.00191238      -0.01021748      -0.00371215
C        5.17616726       3.85910801       2.60900210       0.00506362      -0.00536784      -0.00548835
C        7.47315207       3.65756291       4.15449354       0.00060204      -0.01910140      -0.00096004
C        6.38023672       3.50253030       2.01581453       0.00403303      -0.01297246      -0.00286382
C        7.53262707       3.40352952       2.78863493       0.00175013      -0.01995321      -0.00057090
H        4.18007912       4.39370826       4.43206083       0.00527063       0.00320387      -0.00826633
H        6.21957701       4.20078645       5.81023050       0.00137085      -0.00885354      -0.00411169
H        4.28296491       3.95737046       2.00871498       0.00659190      -0.00144223      -0.00702740
H        8.37045857       3.59094577       4.75659666      -0.00133464      -0.02550930       0.00099318
H        6.42589202       3.31246326       0.95000647       0.00487349      -0.01421451      -0.00245050
H        8.47380783       3.13530095       2.32687723       0.00081746      -0.02631823       0.00143490
C        7.06148107      11.21848760       2.08052119       0.00449957       0.00510497      -0.00771276
C        7.96811837      10.46517703       2.81633317       0.00317058       0.00378326      -0.00749746
C        6.62733691      10.76119300       0.84329089       0.00682276       0.00786819      -0.00911772
C        8.43834399       9.25772211       2.31425842       0.00376939       0.00472400      -0.00893855
C        7.09956719       9.55799229       0.33897145       0.00786159       0.00901863      -0.01095060
C        8.00394360       8.80579214       1.07517295       0.00635135       0.00755712      -0.01072709
H        6.72074177      12.17584950       2.45697748       0.00452607       0.00468415      -0.00673421
H        8.33401352      10.83629910       3.76585323       0.00190705       0.00206459      -0.00649081
H        5.93334131      11.35213180       0.25893213       0.00873660       0.00950448      -0.00950923
H        9.14649444       8.67129823       2.88657715       0.00210479       0.00346851      -0.00827359
H        6.76598820       9.20990568      -0.62976311       0.01019177       0.01142143      -0.01233228
H        8.37101709       7.86491228       0.68334675       0.00680396       0.00843257      -0.01194230
C        0.37609746       2.50511948       9.34461897      -0.01131822       0.00050692       0.00257989
C        1.14741470       3.14545594      10.30953066      -0.00550138      -0.00322626       0.00019564
C        0.31762676       3.02128128       8.05384480      -0.01110326      -0.00010878       0.00257078
C        1.85751125       4.29721385       9.98722710      -0.00003026      -0.00740649      -0.00208744
C        1.02706278       4.17313460       7.72839532      -0.00560892      -0.00443806       0.00011572
C        1.80015681       4.80757211       8.69448158      -0.00024938      -0.00778349      -0.00214633
H       -0.18918330       1.61774940       9.60854811      -0.01603795       0.00454085       0.00485654
H        1.18862701       2.74961521      11.31762556      -0.00518615      -0.00294055       0.00010912
H       -0.28113876       2.52360478       7.30050056      -0.01567151       0.00282510       0.00442874
H        2.45279340       4.79769559      10.74186319       0.00428668      -0.01024082      -0.00369137
H        0.97781064       4.58208354       6.72555746      -0.00581130      -0.00499301       0.00003186
H        2.35927112       5.69873838       8.43731232       0.00363557      -0.01084001      -0.00391361
C        3.54800395       0.71799091       2.63215861      -0.00018019      -0.02303008       0.00502197
C        3.94709545       0.29727231       3.89627238       0.00236145      -0.02051891       0.00488513
C        2.64677959       1.76761427       2.50476224       0.00378451      -0.01983877       0.00475253
C        3.43472515       0.91674940       5.03058609       0.00909973      -0.01470119       0.00452012
C        2.15546265       2.40355052       3.63809758       0.01013951      -0.01447704       0.00433202
C        2.53803744       1.97126910       4.90191410       0.01295142      -0.01158559       0.00432244
H        3.95264751       0.23757981       1.74967106      -0.00585591      -0.02823663       0.00539656
H        4.66004951      -0.51194504       3.99314487      -0.00107393      -0.02341101       0.00490877
H        2.33686040       2.10262714       1.52173183       0.00161139      -0.02222575       0.00473376
H        3.73895127       0.58503088       6.01581111       0.01112457      -0.01286145       0.00439575
H        1.47409549       3.23718635       3.53264826       0.01313935      -0.01221743       0.00404600
H        2.14961374       2.46097782       5.78663300       0.01802257      -0.00699700       0.00389756
