142
Lattice="12.734648477461215 0.0 0.0 0.0 12.734648477461215 0.0 0.0 0.0 12.734648477461215" Properties=species:S:1:pos:R:3:forces:R:3 energy=-645520.75 stress="-0.0008902875706553459 0.0010708625195547938 0.00010660354018909857 0.0010708625195547938 -0.00034030666574835777 -0.0006450354121625423 0.00010660354018909857 -0.0006450354121625423 -0.001103226444683969" pbc="T T T"
Pt      12.43428377      13.09838983       1.93188813       0.01367807      -0.02200270       0.00970756
Cl      11.56139158      11.33713547       4.62927093      -0.00744268      -0.00139225      -0.00013584
O       12.67267541      11.83823285       3.61382665      -0.00271571      -0.03804582      -0.01250845
O       11.29319193      12.31584892       5.75172130      -0.00818717       0.02912569      -0.02666116
Cl       5.69049313      12.41518872       9.27186423      -0.03647953       0.02581978       0.00799072
O        5.69084831      12.82589460       7.82908113       0.01100498       0.00102216       0.00080979
O        5.25676106      10.99757234       9.52887936       0.01299754       0.01149189       0.01142979
O        2.38638713       9.45422286       6.86526802      -0.00526252       0.00064638       0.00914683
O        2.58911542       7.34554182       7.26457504       0.00094700       0.00124471       0.00772329
O        0.79717013       8.04648612       6.06655279      -0.01938784      -0.00622889       0.00051767
C        1.70091558      10.58645764       6.25910024      -0.00641543      -0.00197589       0.01036371
C        2.64082752      11.76008748       6.32059956      -0.01381963       0.00347137       0.01277709
C        1.81708753       8.27119589       6.66804509       0.02078116       0.00593728       0.02260137
C        2.22874386       6.00346973       6.93617436       0.00417461       0.00164320       0.01021669
H        1.44445312      10.32677391       5.23285045      -0.00323822      -0.00065243       0.00830299
H        0.77476164      10.76059819       6.80852421      -0.00950849      -0.00591259       0.00680274
H        2.13581035      12.63924806       5.91887908      -0.01644146      -0.00079671       0.01031897
H        2.94937541      11.96698878       7.34394251      -0.01956829       0.00611523       0.01511034
H        3.53368835      11.57582199       5.72538823      -0.00888088       0.00785226       0.01752460
H        1.28261156       5.73241261       7.40325173      -0.00164393       0.00411712       0.00172359
H        3.03038143       5.38169634       7.32434388      -0.00174075       0.00161359       0.01738703
H        2.15016739       5.89675576       5.85628778       0.01168736      -0.00101409       0.00862804
O        8.50250547       7.51609406      11.14105358      -0.00179596      -0.00047309       0.00985021
O        6.47184601       8.07562923      10.67429912      -0.00095992       0.00258842       0.01084049
O        7.05527438       5.89445855      10.49876301      -0.00033441       0.00452280      -0.00599755
C        9.57829606       6.55508728      11.09539896      -0.00113076       0.00076732       0.00405167
C       10.87473331       7.32107147      11.02867630      -0.00228071       0.00315708       0.01380265
C        7.31659704       7.04722239      10.74245842      -0.00116551       0.00229836       0.00361267
C        5.17101571       7.74738390      10.15293720       0.00087013       0.00750625       0.00469902
H        9.51835370       5.93362434      11.99064906      -0.00247093      -0.00706542      -0.00155661
H        9.43587682       5.91561471      10.22514858       0.00150748       0.00826368      -0.00167683
H       11.71146966       6.62333441      11.08518600      -0.00120974       0.00396718       0.00491091
H       10.95702711       7.88004256      10.09659840      -0.00363670       0.01487526       0.02082801
H       10.95861036       8.02449267      11.85660674      -0.00328332      -0.00723670       0.02240805
H        5.27153420       7.25821914       9.18614399       0.00262415       0.03083061      -0.00652960
H        4.65847524       8.69610891      10.04080807      -0.00428550       0.00702679       0.02702612
H        4.64097657       7.09506449      10.84751829       0.00512615      -0.01142529      -0.01026481
O        9.79463530       6.46824448       7.70830828      -0.00046207       0.00540349       0.00063810
O        8.45555471       8.06242718       8.27458050       0.00078180       0.00497852       0.00308581
O       10.49690188       8.61054761       7.46332817       0.00924575       0.01123881       0.00770065
C       11.07500381       6.00948188       7.20999652      -0.00177453       0.00539815       0.00069080
C       10.90227845       4.57974784       6.76812169       0.00103135       0.00410545       0.00572118
C        9.66400295       7.80159647       7.78541706      -0.00853240      -0.00313133       0.00909784
C        8.08501162       9.45037705       8.27716123       0.00320689       0.00505640       0.00802625
H       11.40549526       6.66757124       6.40792386      -0.00459178       0.00350952      -0.00307372
H       11.79980883       6.10344987       8.02354381       0.00059226       0.01096184      -0.00201362
H       11.85083452       4.19620581       6.38994562       0.00008057       0.00535399       0.00298606
H       10.58656572       3.94415880       7.59589433       0.00611760       0.00574236       0.00921839
H       10.15811767       4.49689917       5.97591944      -0.00224388      -0.00055151       0.00938147
H        8.49678630       9.93859684       9.15938222       0.01604861       0.00551276       0.00217935
H        7.00085472       9.46243879       8.32241503       0.00459164       0.00909074       0.02085613
H        8.44956505       9.93899208       7.37591249      -0.00646663       0.00408216       0.00299034
O        2.60680858       9.27748261       2.95253629      -0.00717041       0.00818960      -0.00705415
O        4.32601717       9.62876082       4.21359393      -0.00818385       0.00960294      -0.00735337
O        3.25544627       7.64164095       4.37145330      -0.00949503       0.00810754      -0.00170362
C        1.50082579       8.42774775       2.54858598      -0.00912271       0.01025501      -0.00354040
C        0.67088400       9.22625208       1.58037334      -0.00439498       0.00474423      -0.01156664
C        3.38402608       8.74267873       3.89323341      -0.00681673       0.01443887      -0.00686666
C        5.25591437       9.15391135       5.20878906      -0.00730513       0.01193169      -0.00668649
H        1.91321446       7.52099788       2.10115349      -0.01184884       0.00485113       0.00505349
H        0.94385689       8.14826689       3.44422862      -0.01259273       0.01914112      -0.00260293
H       -0.16651503       8.61897579       1.23486166      -0.00704964       0.00571834      -0.00637533
H        0.27701139      10.12164709       2.06129263      -0.00091080       0.01023921      -0.01959629
H        1.25869665       9.52735511       0.71328962      -0.00298436      -0.00578889      -0.01405601
H        4.72839917       8.88269764       6.12001716      -0.00672373       0.01569355      -0.00531003
H        5.92843148       9.98610580       5.39514644      -0.00586401       0.01140893      -0.01005121
H        5.79528892       8.29568548       4.82358582      -0.00871815       0.00972560      -0.00419986
O        9.95465167       1.70112515       1.75863884       0.01381968      -0.02184878       0.00152340
O        7.97374095       0.94946193       1.43482409       0.01346201      -0.01555449      -0.00925614
O        9.23833700      -0.02927052       3.04939268      -0.00529711      -0.00756425       0.00866818
C       11.19521808       1.78899573       2.47159985       0.01146469      -0.02210414       0.00625873
C       11.72358214       3.18305611       2.27041719       0.01027691      -0.02248561       0.00593226
C        9.07524942       0.78071525       2.17520444       0.00692235      -0.01552898       0.00295192
C        6.82432174       0.17573435       1.80184154       0.00704600      -0.00753283      -0.01417822
H       11.00323888       1.54164825       3.52042266       0.00875758      -0.02253842       0.00511986
H       12.51660463       1.08002920       0.57781943       0.02047360      -0.01700261       0.01557511
H       12.75953460       3.24188097       2.59720306       0.00198382      -0.01353113       0.02963277
H       11.67629976       3.46069817       1.21807512       0.03512097      -0.03448702       0.00238703
H       11.12098886       3.89075159       2.84501461      -0.00895596      -0.02043621      -0.01737453
H        6.61784651      -0.53147342       1.00074581       0.00159654      -0.00042073      -0.01884764
H        6.00231753       0.87761867       1.91704058       0.01230243      -0.00178885      -0.01027769
H        7.00726190      -0.35849191       2.73099475       0.00225489      -0.01485997      -0.01771480
O        8.48170413       2.68129373       4.32422350       0.00378743      -0.00227489       0.00008875
O        8.70313887       4.19762926       2.81327729      -0.00125036      -0.00734057      -0.00484797
O        6.68691073       3.19430216       3.04065973      -0.00519073      -0.01193692      -0.00099096
C        7.63352177       1.90484844       5.20566767       0.00863299      -0.00721732      -0.00041729
C        8.45249799       1.54023813       6.41126856       0.01069409      -0.00797822      -0.00245202
C        7.83580255       3.34517437       3.37056332       0.01073003      -0.00666439       0.00185841
C        8.20684634       4.87823161       1.65748317      -0.00472023      -0.00923756      -0.00371419
H        6.77200575       2.52017999       5.46238680       0.00637171      -0.01051059       0.00160609
H        7.29073526       1.02130133       4.66580570       0.01088601      -0.00744480      -0.00197828
H        7.83350080       0.95606366       7.09134472       0.01493376      -0.01360957      -0.00400525
H        9.32704400       0.95250936       6.13195506       0.01315191      -0.00270776      -0.00641290
H        8.77890596       2.44380378       6.92679864       0.00755481      -0.00844704       0.00045919
H        7.99432245       4.17280026       0.85677440      -0.00307734      -0.01004627      -0.00372571
H        9.00552303       5.55972038       1.37137798      -0.00866494      -0.00571619      -0.00500164
H        7.30590090       5.43652019       1.90317312      -0.00728184      -0.01303017      -0.00267187
O        5.46926068       6.87299616       2.51472326      -0.00083217       0.00693762      -0.00332457
O        4.80569691       5.23682396       3.76073506       0.00081460       0.00720172      -0.00290912
O        3.69749902       5.64360171       1.83200040      -0.00002402       0.00371578      -0.00544512
C        5.36601317       7.63667159       1.29109469       0.00118357       0.00356552      -0.00533542
C        6.38315850       8.74412161       1.36360225       0.00177234       0.00277892      -0.00798544
C        4.56567080       5.88920842       2.63436788       0.00312811       0.00705707      -0.00130850
C        3.96380473       4.09456916       3.95945586       0.00080385       0.00828549      -0.00097829
H        5.54596056       6.96118743       0.45150674       0.00123470       0.00078905      -0.00307828
H        4.34972226       8.02342705       1.20461912       0.00134480       0.00386961      -0.00743581
H        6.33557397       9.33570099       0.44985619       0.00476643      -0.00180914      -0.01069513
H        6.18236056       9.39168951       2.21716787       0.00046656       0.00654277      -0.01131980
H        7.39388982       8.34468969       1.45030731       0.00099798       0.00167109      -0.00358545
H        2.92441139       4.40749468       4.04878748       0.00056928       0.00862457      -0.00317350
H        4.31349699       3.63371414       4.87742342      -0.00018945       0.01104157       0.00039041
H        4.07734072       3.39976672       3.13115642       0.00143109       0.00589974       0.00082278
O        7.25279147       3.01805697      11.62124247      -0.00002134      -0.00533487      -0.01073529
O        5.27337156       3.69752015      12.16347748       0.00148135      -0.00676403      -0.00672136
O        5.60294089       2.87333595      10.08035927      -0.00157499      -0.00057313      -0.00984085
C        8.18606832       2.54638399      10.62432925       0.00003672      -0.00235773      -0.01200753
C        9.55976589       2.57694224      11.23983722      -0.00106755      -0.00552014      -0.00967127
C        6.00573029       3.17184122      11.17921409       0.00021875      -0.00391355      -0.00905514
C        3.89745468       3.92356743      11.81686449      -0.00004661      -0.00973924      -0.00150578
H        7.89629505       1.53667184      10.32678939      -0.00076635      -0.00073701      -0.01634443
H        8.10666212       3.19609295       9.75198745       0.00175089       0.00122795      -0.00935006
H       10.29193412       2.20482414      10.52287881      -0.00030107      -0.00464783      -0.00906666
H        9.83627697       3.59540318      11.51351357      -0.00059645      -0.00650422      -0.00679369
H        9.60818873       1.96155671      12.13479740      -0.00389646      -0.00760852      -0.01090893
H        3.83499527       4.52627023      10.91115939      -0.00404551      -0.01139779      -0.00231716
H        3.47712578       4.45176084      12.66525131       0.00135831      -0.01017055      -0.00065657
H        3.38542556       2.97506024      11.65186576       0.00140499      -0.01110595       0.00191022
O        7.68287233       7.20590201       5.65788454      -0.00406936       0.00372538      -0.00488883
O        6.49927863       6.12311820       7.12671499      -0.00817895       0.00635082      -0.00746539
O        7.55280931       4.95504748       5.51365923       0.00692424       0.00113010       0.00429642
C        8.43755339       7.20690677       4.42066483       0.00470899       0.00225133       0.00111058
C        9.09185322       8.55622717       4.27361449      -0.00009207       0.00454414       0.00190781
C        7.26874538       5.99707400       6.04767566      -0.00165612       0.00550199      -0.00076893
C        6.05836418       4.86044113       7.65874466      -0.00633009       0.00825059      -0.00308647
H        9.16291713       6.39385619       4.45335166       0.00824860       0.00569776       0.00924995
H        7.73504924       6.99835728       3.61262261       0.01198092      -0.00385106      -0.00357431
H        9.60707009       8.60320004       3.31298161       0.00847153       0.00353636       0.00661634
H        8.35803444       9.36209846       4.29399107      -0.00364177       0.00118011      -0.00727354
H        9.82445182       8.73248968       5.06070742      -0.00802171       0.01022715       0.00790000
H        5.30372164       4.42482659       7.00449251       0.00531310      -0.00265060      -0.00894767
H        5.65758098       5.07100101       8.64143646      -0.02050906       0.01337063      -0.01012579
H        6.89470165       4.17128656       7.74771222      -0.00289357       0.01486501       0.01392168
