147
Lattice="11.928161932926232 0.0 0.0 0.0 11.928161932926232 0.0 0.0 0.0 11.928161932926232" Properties=species:S:1:pos:R:3:forces:R:3 energy=-600091.5 stress="-0.00046978896716609597 0.0003328987513668835 0.00045041271368972957 0.0003328987513668835 -0.0014308840036392212 0.0006903437606524676 0.00045041271368972957 0.0006903437606524676 0.0004939131904393435" pbc="T T T"
Pt      11.30865856      11.81725247       0.76474240       0.00885421      -0.00322714       0.02508825
O        5.59936774       9.22305637      10.82917322       0.00518501       0.00951838      -0.01203289
O        3.58331263       9.98686527      11.47154554       0.01172876       0.01253396       0.00765198
C        5.03177117      11.49522799      10.38882799       0.00121437       0.00868440      -0.01098579
C        4.71526821      10.11746688      10.94376602       0.00648147       0.00926065      -0.00434858
H        4.41720135      11.66345804       9.50341484      -0.01975795       0.01645577       0.00514385
H        6.07753117      11.59287261      10.11104205      -0.00473239       0.00185906      -0.03664739
H        4.75266037      12.25290837      11.12135397       0.02691712       0.01073779      -0.00320975
O        7.03085726       9.99982937       5.11787591      -0.01110935       0.01727623      -0.01046109
O        7.54750331      10.90110510       7.10623232       0.03719974       0.00351155      -0.00366473
C        5.29363389      10.22267320       6.71875580       0.01696169       0.00306289       0.00920838
C        6.74824237      10.40970295       6.29982327      -0.01377547      -0.01203313      -0.03615527
H        5.24137249       9.39403812       7.42747069       0.02126695       0.00188342       0.00778787
H        4.64812920      10.00233181       5.86893925       0.00509909       0.00315906       0.01549949
H        4.94006232      11.11257164       7.23740440       0.01862986       0.00133208       0.01250846
O        5.86802010       6.76238358      10.20462001      -0.01123607       0.01085732      -0.00754148
C        6.96212594       6.26517198      10.94799175      -0.01312700       0.01036468      -0.00535807
H        7.34067991       7.01388005      11.64779405      -0.00542016       0.01492321      -0.01455459
H        7.78357055       5.98371505      10.28032018      -0.01752034      -0.00257742      -0.00528908
H        6.67074978       5.37809976      11.51912568      -0.01767270       0.01863113       0.00499764
H        5.65913415       7.69716900      10.51661322      -0.00859718       0.01219440      -0.00805384
O        8.76324324      10.23124850       3.34922631       0.01676708      -0.00682248       0.01998582
C        8.12715175       9.45096253       2.33698174       0.02020094       0.00992531       0.00738335
H        7.10040006       9.77906468       2.17573445       0.02103597       0.01219518       0.00753860
H        8.11817176       8.39492920       2.61538638       0.01882463       0.00591511      -0.00846180
H        8.68221010       9.55688085       1.40586797       0.02496839       0.02279883       0.01099417
H        8.14187239      10.23599748       4.17752020      -0.00777513       0.00142860       0.01588001
O        5.31651633       4.46123494       5.17230845       0.01296777      -0.00918039      -0.01358149
C        6.73226106       4.56136754       5.40369575       0.01030642      -0.00965060       0.00195134
H        6.96663887       5.53071201       5.83816896       0.00484875      -0.01245466       0.01082921
H        7.27935217       4.45191506       4.46819127       0.02007711      -0.00319856       0.00686938
H        7.04317768       3.78877246       6.10649651       0.00326241      -0.01411325       0.00027847
H        4.94803640       5.37892778       5.30498275       0.00955682      -0.01045953      -0.00884442
O        1.57709715       4.49309413       8.66826094      -0.00580525      -0.00256069      -0.00138938
C        2.90796398       4.41454439       8.19656589      -0.00744945      -0.00139064      -0.00646484
H        2.98394602       3.82435355       7.27812749      -0.00877850      -0.00885409      -0.00178474
H        3.58752151       3.97614340       8.93449048      -0.00288889       0.00728902      -0.00550798
H        3.24779170       5.42971780       7.99003109      -0.01214395      -0.00191760      -0.01615470
H        1.33756176       3.63257123       9.05013831      -0.00020123      -0.00097885       0.00562185
O       10.43805871       9.29338077       6.38068242      -0.00948998       0.00018394      -0.00252515
C       10.50168868       9.88554656       7.68466190       0.01040803      -0.01017314      -0.00045994
H        9.50642106      10.21568066       7.97748279       0.01461107      -0.01823160       0.02041984
H       11.18244293      10.73851195       7.68896605       0.00525299      -0.00613284      -0.00564850
H       10.87068674       9.12486963       8.36774281       0.02577843      -0.01291090      -0.01118621
H       10.02146526       9.93464253       5.79585067      -0.02593397       0.00161456       0.01019434
O        4.73603914       6.97069940       5.43136106      -0.00271869      -0.01489063       0.00498956
C        5.27748444       7.49164959       4.20661397      -0.01333585      -0.00348343       0.00446317
H        5.99402475       6.78597909       3.77034340      -0.00728026       0.00601053      -0.00081423
H        5.77354425       8.44734583       4.37682196      -0.02356431       0.00163496       0.00594209
H        4.45150818       7.62452487       3.51274068      -0.01751885      -0.01054626       0.00859405
H        5.32734613       7.19196111       6.18143077      -0.00056130      -0.01300723       0.00243423
O        5.44860934       3.37428424       2.66076703       0.02767420       0.00573850      -0.01665956
C        4.39387223       3.28509482       1.71627722       0.01341371      -0.00083850       0.00011644
H        4.26276469       4.22061521       1.16716251      -0.00416326       0.00031763       0.00656909
H        3.43725922       3.02646658       2.17476868       0.02381837      -0.01091692       0.01608521
H        4.66742092       2.50236250       1.00889335       0.00772178       0.00353542      -0.00686707
H        5.17361727       3.81359788       3.49080941       0.03170517      -0.00081707      -0.01164061
O        0.33864780      11.69397239       5.68705880      -0.00551409       0.01561686       0.00247309
C        1.66182655      11.50965140       6.18336660      -0.00207728       0.00421736      -0.01005153
H        1.88203710      12.18480704       7.01613267       0.01759189       0.01079372      -0.02075866
H        2.41776851      11.63284790       5.40588622      -0.00894257      -0.01526347      -0.01936364
H        1.71997221      10.48257231       6.53969442      -0.01121709       0.00791612       0.00169365
H        0.31118561      12.49946625       5.16857571       0.00180148       0.00278695      -0.01762021
O        8.95904842       6.12037604       3.56373983      -0.00141311      -0.00221729      -0.01006848
C        9.09288702       7.05556607       4.61787404      -0.01163496      -0.01089853      -0.00126436
H        9.62947636       7.95319832       4.30166229      -0.01007092      -0.00763708       0.01104827
H        9.61710946       6.63498469       5.48226009      -0.01823997      -0.01799583      -0.00035784
H        8.09840201       7.36812164       4.92829993      -0.01446241      -0.01522000      -0.00693747
H        9.85095615       6.02795126       3.19354483       0.00157969       0.00369184      -0.00401291
O       11.35861376       7.64524076      10.20185514       0.00646272       0.01077849       0.01221183
C       10.91359495       6.39976138       9.71221905       0.00111417       0.01247692       0.01299706
H       10.24471945       6.50935886       8.85015821       0.00707805       0.01504275       0.00872627
H       10.38872964       5.81627458      10.48205197      -0.00799292       0.01863581       0.01135653
H       11.79069449       5.83819505       9.39440605      -0.00116837       0.00534454       0.01930840
H       10.60386090       8.22002711      10.41182925       0.00820383       0.01424091       0.00843965
O        4.89972136       2.14739260       6.58648739      -0.00863230      -0.00145853      -0.01328784
C        5.78252093       1.44971375       5.71774138      -0.01242265      -0.01022828      -0.00968981
H        5.99236620       2.02490355       4.81523348       0.00118327      -0.01047701      -0.00681365
H        5.32141461       0.51285925       5.41094227      -0.01993263      -0.00421292      -0.01455075
H        6.72672679       1.21756500       6.21805643      -0.01737094      -0.02026004      -0.00435144
H        4.85701318       3.05685978       6.25337704      -0.00230248      -0.00240216      -0.01725814
O        0.39022307       7.71560395       5.19233277      -0.01027808       0.01018438      -0.00875020
C        1.22078928       7.20581632       6.23072588      -0.01173288       0.01170138      -0.00668770
H        0.74777957       6.37630629       6.76572292      -0.00670674       0.00325057      -0.01529515
H        1.46440430       7.98728156       6.95479750      -0.02595817       0.00967619       0.00008130
H        2.15376784       6.85972877       5.79306326      -0.00512818       0.02447470      -0.00249505
H       -0.27962550       8.29833338       5.60945417      -0.01380662       0.00743119      -0.01125629
O        6.77614830       1.10932483       2.01129325      -0.00717366      -0.01246220      -0.01351303
C        5.80076209       0.14888959       2.39832315      -0.01123035      -0.00654262      -0.00687440
H        5.65903383      -0.55684583       1.57886535      -0.01383680      -0.01020980      -0.00318202
H        4.83616909       0.61761306       2.60661112      -0.00948352      -0.00127682      -0.01003319
H        6.11255594      -0.40266974       3.28962332      -0.01349762      -0.00266677      -0.00411826
H        6.48663882       1.96615676       2.37137535       0.00182118      -0.00998530      -0.01280436
O        9.65162913       9.69474918      11.03806088      -0.00164026       0.00777015       0.00699553
C        8.57730595      10.53319109      10.61446611      -0.00188521       0.00098468      -0.00208825
H        7.93774405       9.96739263       9.94476852      -0.00767121      -0.01031291       0.01216385
H        8.95214879      11.41670513      10.09215026      -0.00462450      -0.00921455      -0.02145901
H        7.97009483      10.84888974      11.46723346       0.00187668       0.01765574      -0.00577015
H       10.28284975      10.27726911      11.52278121      -0.00403412       0.01150931       0.00656132
O       11.51114395       6.68581133       2.70879011       0.00172585      -0.00844494       0.01254106
C       11.14395404       7.61105803       1.67700770       0.01793540      -0.00122708       0.01367489
H       10.93709400       8.59763774       2.09036059       0.00976072      -0.00453305       0.01756282
H       10.23271589       7.24191092       1.20668491       0.02617535       0.00143440      -0.00386149
H       11.92417321       7.68517492       0.92072148       0.03031868       0.00537720       0.02737007
H       11.85735915       7.14711942       3.50128715      -0.00144010      -0.01157473       0.01665293
O       10.42279417       0.07173384       2.82705355      -0.02897876       0.01291652       0.01401826
C       10.00775488       0.92837097       1.83593398      -0.01970759      -0.01067420      -0.00731483
H       11.54718740       0.16506083      -0.75400616       0.00036488      -0.00482711       0.02422464
H       10.37426105       1.94604404       1.97801943      -0.03242794      -0.00476228      -0.01869696
H        8.95876193       0.84996390       1.54724989      -0.01371467      -0.02253458      -0.02675046
H        9.69396199      -0.66861258       3.02438970      -0.02548236      -0.00199968       0.01642890
O        1.63739464       4.92050929       2.29252582      -0.00463384      -0.01795870       0.01997566
C        2.34264527       5.38014321       3.42846827      -0.00198799      -0.00903022       0.01466042
H        2.19024710       6.44917274       3.59561240       0.01513876      -0.00334340      -0.00578320
H        3.40941043       5.22894626       3.26478403      -0.00410867      -0.03054865       0.02236222
H        2.05539030       4.83713482       4.33682118      -0.01441270       0.01302436       0.02380273
H        0.82007853       5.44740681       2.26536457      -0.00501978      -0.01846089       0.01932392
O        8.42554085       2.75668110       8.50792787       0.00279123       0.02084544       0.00133239
C        7.22042887       2.53168590       9.23151382       0.00198099       0.00200894      -0.00621374
H        6.58081778       3.42023817       9.23954852      -0.00631773      -0.00410292       0.00055347
H        7.41412741       2.21876674      10.26268057       0.00002767      -0.00870857      -0.00924996
H        6.68833922       1.73501889       8.71811377       0.01257774       0.00245455      -0.01784417
H        8.93512278       3.42353177       8.97167895      -0.00336100       0.01755258       0.01315156
O        3.24986299       8.20023682       1.30795097      -0.00673854       0.00098062      -0.01173693
C        3.88628977       7.04042262       0.82126944      -0.01234698      -0.00651103      -0.00010622
H        4.95646678       7.02730703       1.06789317      -0.01369923      -0.01249207       0.00545557
H        3.79981632       6.97757944      -0.26467773      -0.00735331      -0.01559680      -0.00023401
H        3.40668303       6.16437599       1.25215179      -0.02051580       0.00041598       0.00513688
H        3.38233868       8.91143688       0.60035472       0.00637601       0.00054513      -0.01025899
O        6.33251885       7.13405640       7.64592274       0.00298589      -0.00406492      -0.00379955
C        7.68057924       7.56177000       7.77636676       0.00112122      -0.00112924      -0.00376131
H        8.36690684       6.71116507       7.70229910       0.00324208      -0.00018787       0.00344833
H        7.83525813       8.06089231       8.73573345      -0.00129290       0.00564694      -0.00673983
H        7.91936567       8.26857514       6.98634227       0.00259439      -0.00607258      -0.00791273
H        6.03020719       6.90764571       8.56029506      -0.00100401       0.00428670      -0.00270078
O        1.24969604       2.15736322      10.12546088       0.00938141      -0.00371471       0.00517201
C        2.05349441       2.51072541      11.24931623       0.00530836      -0.00520940       0.00854135
H        1.90431540       1.80136269      12.06396894       0.01352908      -0.01505360       0.00150514
H        1.81674315       3.51679209      11.60331606      -0.00426586      -0.01094306       0.01853803
H        3.09783024       2.47506892      10.94184654       0.00508764       0.00869198       0.00692853
H        0.53422730       1.59363365      10.44129691      -0.00183890       0.01101132       0.00565939
O        2.74708107       9.88552653       3.34939178       0.01559019      -0.01248465       0.00121921
C        1.44174722      10.15545945       2.89972747       0.02013654       0.01222135       0.00502655
H        0.68901943       9.71286417       3.56159914       0.01247033       0.01152620      -0.00416845
H        1.28756930       9.76694200       1.88543061       0.01702825       0.03065482      -0.00181696
H        1.26581254      11.23543442       2.88802223       0.03449446       0.01497692       0.02185694
H        3.10702719       9.20878850       2.74447691       0.00569591      -0.00908713      -0.00925015
