139
Lattice="12.173237239845934 0.0 0.0 0.0 12.173237239845934 0.0 0.0 0.0 12.173237239845934" Properties=species:S:1:pos:R:3:forces:R:3 energy=-601899.75 stress="-0.001304304925724864 -0.0003227553243050352 0.0005560539721045643 -0.0003227553243050352 -0.00021991279209032655 -0.00021558837761403993 0.0005560539721045643 -0.00021558837761403993 -0.0013291798532009125" pbc="T T T"
Pt      12.04645926      12.83635928       0.83460879       0.01386416      -0.00140139       0.00947577
O        5.26543865      12.14716558       9.46938064       0.00959289       0.00210059       0.01014924
N        4.33775048      12.33742118       7.25542794      -0.00444472      -0.00287908       0.02999306
C        4.79975069      12.25131980       8.35137715      -0.02795672      -0.00715913       0.00380716
O        3.33620508      10.40879919       1.46011944      -0.01134765      -0.00148869       0.00503118
N        1.29836227      11.57133079       1.04482874       0.00043535       0.01366103      -0.00263396
C        2.31242102      10.99782501       1.26367595       0.03858092      -0.02160051       0.00959105
O        8.22295826      10.54882795       9.15858347       0.00450897      -0.00696409      -0.01443994
N        6.75985151       8.81201744       9.45946363      -0.00246710      -0.00074103      -0.01426791
C        5.89158432       9.18002053       8.36311233      -0.00242390       0.00360150      -0.01260080
C        6.47996456       7.58195152      10.16247764      -0.01247983       0.00485469      -0.00872157
C        7.82723664       9.57258589       9.76777230       0.00033540      -0.00555813      -0.01408002
H        4.86018107       9.24175749       8.71049112      -0.00079542       0.01407110      -0.01014902
H        5.95795860       8.44193003       7.55994106      -0.01061641       0.00155300      -0.01114273
H        6.18348897      10.15874659       7.99949267       0.00460383      -0.00024822      -0.01656885
H        5.50478875       7.61799407      10.65445571      -0.00984108       0.01757068      -0.00475603
H        7.24449086       7.40766239      10.91776898      -0.01121265      -0.00029737      -0.01158607
H        6.48907228       6.72551774       9.49042758      -0.02350491       0.00233871      -0.00565183
H        8.34246795       9.19255416      10.67170331      -0.00093177      -0.00774708      -0.01455826
O        6.46837278       4.49786232      10.08202367       0.02172399      -0.00814915      -0.00159588
N        7.97155741       2.81750275      10.41106476       0.01088148      -0.01778838      -0.00253237
C        9.11181907       3.67510283      10.19855362       0.01677037      -0.02533862      -0.00101954
C        8.21130911       1.38524530      10.41525237       0.00217129      -0.01903683      -0.00412829
C        6.73752536       3.31166810      10.26268250       0.01422629      -0.00955725      -0.00321662
H        9.46649554       3.56890981       9.16836552       0.00779426      -0.01596878      -0.00477481
H        9.90884973       3.38370495      10.87826430       0.01886755      -0.04074892      -0.01019606
H        8.81397550       4.70748814      10.36761301       0.02830668      -0.02470961       0.01389154
H        8.73720885       1.10232986       9.50221451       0.00058042      -0.02160259      -0.00415209
H        7.25870219       0.85771275      10.41440692      -0.00061244      -0.01367752      -0.00292125
H        8.80912989       1.11048730      11.28561364       0.00104412      -0.02305448      -0.00458738
H        5.96812193       2.52566630      10.32515721       0.00941032      -0.00519526      -0.00523772
O       12.33733860      10.69406348       7.80573602       0.02548441      -0.00522721      -0.00164270
N       11.66658756       9.54205449       9.66340682       0.00200169       0.00551149       0.00048259
C       11.19755459      10.71431088      10.37592797       0.00432697       0.00544263      -0.00128037
C       11.58033499       8.26820161      10.32986925       0.00754851       0.01139448       0.00414637
C       12.22588340       9.66195772       8.43849026       0.02649570       0.00348580       0.01139766
H       11.79187513      10.89145068      11.27659351      -0.00283113       0.00629348       0.00464618
H       10.14990354      10.60210145      10.65114034       0.00245890       0.00789553      -0.00894541
H       11.28719521      11.57207118       9.71637459       0.01249459       0.00344533      -0.00219965
H       12.11303013       8.28784065      11.28465956      -0.00087243       0.00805430       0.00696883
H       12.01905087       7.49587319       9.69917647       0.00938924       0.00298536       0.01769984
H       10.53692145       8.00016805      10.52560660       0.01202199       0.00505052       0.00701844
H       12.57717668       8.68678896       8.05013482      -0.00114182      -0.00231290       0.00340340
O        8.98467136       6.79352788       3.85284789       0.00156704       0.01338482       0.00328845
N        9.84227603       8.03930795       5.57402129      -0.00166009       0.01934313       0.00007479
C       11.05090157       7.26023868       5.72372185       0.00272153       0.02631989      -0.00199619
C        9.70945693       9.21654182       6.40631762      -0.01064202       0.01389468       0.00580727
C        8.92147424       7.71873439       4.64822659      -0.00232120       0.01309234       0.00325316
H       11.09536863       6.82620754       6.72653128       0.00712598       0.02637217      -0.00214109
H       11.92484013       7.89783113       5.57455332      -0.00232351       0.03257611      -0.00277085
H       11.04413470       6.46152692       4.99014617       0.00616099       0.02691798      -0.00263304
H        9.70452225       8.94870388       7.46470783      -0.00814482       0.00903969       0.00448656
H        8.77162078       9.71917248       6.18237826      -0.01458326       0.00754613       0.00883115
H       10.54264675       9.89941901       6.23310754      -0.01588628       0.02066460       0.00808814
H        8.06718034       8.42016062       4.66931059      -0.00730002       0.00678241       0.00599193
O        1.40736625      10.05317236       4.12790530      -0.02408886      -0.00949645       0.00178124
N        2.76125330       8.23811246       3.85257930      -0.01062618       0.00137383       0.00129731
C        1.75421575       7.43833873       3.19851814      -0.00200494      -0.00197016      -0.00681064
C        4.06107263       7.63985371       4.01130620      -0.00561627       0.01193191      -0.00298691
C        2.49204736       9.51158784       4.23321633      -0.02004659      -0.00164872       0.00346694
H        1.51424910       6.55706450       3.80019936       0.00658417      -0.00965929      -0.01504418
H        2.11701412       7.09124372       2.22807269       0.00179060       0.01052636      -0.00965106
H        0.86561892       8.05090475       3.06413503      -0.00784734      -0.00950938      -0.00204026
H        3.99211350       6.72482916       4.60075501       0.00166836       0.00294796      -0.01641703
H        4.72881117       8.34571664       4.50474708      -0.01352300       0.01072441       0.00904922
H        4.48524614       7.35794362       3.04361092      -0.00000045       0.03038409      -0.00570142
H        3.36963194      10.01434430       4.67636823      -0.02424359       0.00253758       0.00663385
O        7.48430810       2.53559298       7.51969419       0.01175317       0.00151014      -0.00837532
N        6.08140728       4.25420001       6.97080707       0.00595051      -0.00352890      -0.00996859
C        4.86576393       3.46813314       6.97107020       0.00798109      -0.00632525      -0.00699082
C        5.94750780       5.67201833       6.76547154       0.00140619      -0.00485907      -0.01523765
C        7.27368384       3.71158483       7.27811886       0.00780997       0.00056529      -0.01081461
H        4.32427597       3.63736203       6.03808158       0.00566918      -0.00841346      -0.00564876
H        4.22733938       3.77854198       7.80488546       0.00898349      -0.00818123      -0.00583306
H        5.08987004       2.40796141       7.08246577       0.01025642      -0.00555843      -0.00674248
H        5.58918667       5.88022786       5.75607615       0.00337592      -0.00935001      -0.01684830
H        6.91619837       6.15209165       6.90059348      -0.00104818      -0.00072205      -0.01349480
H        5.24304399       6.09571035       7.48807823      -0.00256231      -0.00524469      -0.01895958
H        8.07707058       4.46823340       7.27742560       0.00571805       0.00280511      -0.01435590
O       10.59151828       2.09150184       0.61200052       0.00288324      -0.00763732       0.01980805
N       10.81318706       3.77439764       2.14854283       0.00323275      -0.00285929       0.01305561
C       10.79462697       4.86946857       1.20123290      -0.00554692      -0.00856681       0.00708540
C       11.04910382       4.13552109       3.52925727       0.00374640       0.00521492       0.01055452
C       10.67351070       2.50413840       1.80963319       0.00736662      -0.00457537       0.01801550
H       11.67687495       5.48863405       1.35009096      -0.00553334      -0.00639859      -0.00317641
H        9.89316772       5.46457080       1.36711201      -0.00548750      -0.00952607       0.00993904
H       10.82324312       4.47738802       0.19292569      -0.01332306      -0.01527204       0.00943342
H       12.04874559       4.57186077       3.60905500       0.00095129       0.01192428       0.00616708
H       10.98474273       3.24731415       4.14863287       0.01107527       0.00763595       0.01477660
H       10.29319771       4.84483805       3.85796548       0.00020298       0.00233024       0.00871605
H       10.54245729       1.81608070       2.64360862       0.01538539      -0.00243655       0.02084482
O        8.41577339       3.28546658       4.38983815      -0.00443423      -0.01969397      -0.03334472
N        7.77611354       1.14437346       4.88402639       0.00393438      -0.01480448      -0.00379258
C        9.10873984       0.66515003       5.16167493       0.00636459      -0.00764960      -0.00451149
C        6.67581715       0.28346567       5.25152892       0.00776991      -0.01650386       0.00332670
C        7.56051549       2.43617407       4.58806287      -0.00121963      -0.01964653      -0.01949987
H        9.38271016      -0.13499165       4.47094348       0.00815630      -0.01048589      -0.00060382
H        9.15798955       0.30120061       6.19030120       0.00998021      -0.00113276      -0.00248045
H        9.80265012       1.49272252       5.04868073       0.00255290      -0.00537807      -0.01115267
H        6.68154994      -0.62880070       4.64542575       0.00937646      -0.01915318       0.00735030
H        5.73053909       0.79983738       5.10650051       0.00558537      -0.02026162       0.00411135
H        6.72391403       0.02244161       6.30878920       0.01297734      -0.01129655       0.00429308
H        6.48450788       2.66807693       4.54614841      -0.00224400      -0.02403545      -0.01825772
O        8.92669818      12.04047760       1.75594139      -0.01490188       0.00393677       0.01457462
N        8.02258242       9.95306105       1.49625292      -0.00388847       0.00064000       0.00635250
C        9.29604246       9.26915777       1.43620061      -0.00032425       0.00890625      -0.00256958
C        6.81624034       9.15496930       1.49685366       0.00088111      -0.00624622       0.00201090
C        7.97031929      11.29687900       1.63010087      -0.01145691      -0.00071836       0.01514077
H        9.37521516       8.71237543       0.49790920      -0.00029828       0.01604286      -0.00669909
H        9.38670471       8.55258921       2.25266269       0.00627252       0.00406402      -0.00756153
H       10.09164700      10.00946600       1.48439201      -0.00462723       0.01324338       0.00004169
H        6.77149039       8.52186932       0.60981114       0.00250689       0.00196910      -0.00393695
H        5.93964401       9.80173498       1.49954603      -0.00275460      -0.01145539       0.00988416
H        6.78874450       8.50338190       2.37442199       0.00738665      -0.01456626      -0.00418139
H        6.93109708      11.66184334       1.60830925      -0.01357812      -0.00690398       0.02338407
O        1.35351414       4.14263653      12.68530150       0.02616569       0.01482892       0.03002733
N        2.74420927       2.93993408      11.34233312       0.00153810       0.01202423       0.00690410
C        3.65220461       4.04406353      11.15428468       0.00878134       0.00493120       0.00196514
C        3.08323916       1.65994661      10.75455157      -0.01427139       0.01212775      -0.00159973
C        1.65976241       3.10014581      12.11902183       0.01240631       0.01577413       0.02190214
H        4.00214968       4.08108434      10.12487635       0.00284632       0.00191360      -0.00003773
H        4.53323828       3.94875389      11.79336372       0.01152033      -0.00162011      -0.00313297
H        3.13405331       4.96332890      11.41447110       0.01843357       0.00913998       0.00497851
H        3.13936672       1.72692366       9.66653443      -0.02402014       0.01655193      -0.00174972
H        2.32969919       0.92371359      11.02933706      -0.01731759       0.01711814       0.00289819
H        4.05636669       1.30750722      11.09753711      -0.01414219       0.00289313      -0.01208167
H        1.03303245       2.16157731      12.23029004       0.00889489       0.01803493       0.02508353
O        4.32924589       4.43767767       3.63719766      -0.01630473       0.00056374       0.00677800
N        4.25146928       2.28421210       2.86729828      -0.01399583       0.00286886       0.00154939
C        3.08651045       1.89172685       3.63768684      -0.01203400      -0.00065170       0.00240473
C        4.86356562       1.26626235       2.04509286      -0.01374009       0.00530763      -0.00122932
C        4.75588126       3.52891168       2.93960930      -0.01602961       0.00326109       0.00381285
H        3.34725165       1.11552374       4.36149333      -0.00867185      -0.00010088       0.00148734
H        2.31343399       1.50840766       2.96827030      -0.01172405      -0.00271323       0.00325075
H        2.71895642       2.76528538       4.16686611      -0.01387304      -0.00218016       0.00339772
H        5.14663685       0.41044068       2.66177750      -0.01676826       0.00253439      -0.00388768
H        5.75512967       1.66904312       1.56566384      -0.01199739       0.00584137       0.00266208
H        4.16807043       0.90761875       1.28457951      -0.01227203       0.00933459      -0.00435251
H        5.63867371       3.65640850       2.28886836      -0.01688910       0.00588197       0.00317112
