148
Lattice="12.0785912626746 0.0 0.0 0.0 12.0785912626746 0.0 0.0 0.0 12.0785912626746" Properties=species:S:1:pos:R:3:forces:R:3 energy=-124731.4453125 stress="-0.0024201571941375732 -0.0001643243886064738 0.001209979469422251 -0.0001643243886064738 -0.0007690991624258459 0.00020576422684825957 0.001209979469422251 0.00020576422684825957 -0.003092058002948761" pbc="T T T"
N       11.43007160      10.54570273       3.01515150       0.00405642       0.00233231      -0.01027806
C       11.92183752      10.15674580       1.82724888       0.00714010       0.00191504      -0.00824639
C       10.35444956      11.34199478       3.13616435       0.00277215       0.00074035      -0.01356557
C       11.31103695      10.58944266       0.67294326       0.00903452      -0.00076300      -0.00996699
C        9.71926347      11.80738084       2.00958641       0.00421003      -0.00200342      -0.01506024
C       10.19706890      11.41373623       0.76659688       0.00749528      -0.00282258      -0.01334153
H       11.83193722      10.16610274       3.86969550       0.00261265       0.00410134      -0.00860089
H       12.78229036       9.50470328       1.83911856       0.00851432       0.00362680      -0.00567459
H       10.02543185      11.55927914       4.14085964       0.00082872       0.00207503      -0.01456941
H       11.71441177      10.26181160      -0.27177462       0.01254934      -0.00021044      -0.00846678
H        8.83416187      12.41667713       2.10333110       0.00341365      -0.00299253      -0.01690827
H        9.67710318      11.73659775      -0.12576097       0.00952726      -0.00423461      -0.01491647
S        7.50773118       9.24363543       1.67050792      -0.00304157      -0.00404620      -0.00290203
O        7.33865327       8.89416507       0.25702405      -0.01382309      -0.01410556       0.00118113
O        7.15007744      10.62984358       1.97903120       0.00238472      -0.00189781      -0.00948849
O        8.82254796       8.86769007       2.21297079       0.00014567      -0.00265622      -0.00995868
C        6.34103479       8.23982197       2.54391542       0.00161344       0.00327808       0.01145846
H        6.52129020       7.19759748       2.29233091       0.00018677       0.00182669       0.01760554
H        6.45067624       8.40292756       3.61340802       0.00729839       0.01105873       0.00965896
H        5.33844694       8.50748488       2.22291977       0.00037907       0.00143443       0.01428396
O        1.72776884       8.07749788       4.49658643      -0.00133884       0.00877088      -0.00171095
O        3.65947808       7.23734087       3.73723121       0.00176489       0.00362664       0.00982833
C        3.62625117       9.50083081       4.54887023       0.00080153       0.00479114       0.00889719
C        3.05117070       8.16154462       4.21037301      -0.00151843       0.00736392       0.00730520
H        2.85294486      10.24778523       4.71252555       0.00127907       0.00320624       0.01674633
H        4.22066500       9.38933710       5.45895437       0.00701612       0.00153859       0.00411087
H        4.30903580       9.81983292       3.76481540      -0.00478214       0.00886890       0.00584573
H        1.46610044       7.14810689       4.35736013      -0.00303101       0.00947374      -0.00217669
O       11.73375633       7.15441426      -0.45022095       0.03357440      -0.01983066       0.00992411
O       11.83778042       5.90044503       1.40340718      -0.00029463      -0.00750291       0.01878887
C        9.68640721       6.46697408       0.51235037       0.01610512       0.00354484      -0.01412072
C       11.16873156       6.45626505       0.55086757       0.01555854      -0.00762701       0.00630778
H        9.32771650       7.07371411       1.34883942       0.00797427       0.02079464      -0.02986445
H        9.30522257       6.91311625      -0.39754411       0.03374064      -0.01163593      -0.02889621
H        9.31087238       5.45121182       0.62606981       0.00688018       0.00843960      -0.00100921
H       12.68942972       6.99520195      -0.41320309       0.03069788      -0.03625509       0.01403311
O       12.50530272       1.89769447       2.13590742      -0.00076616       0.00765092      -0.01426059
O       11.13962204       2.60145369       3.77326710      -0.00417542       0.00798289      -0.01756358
C       10.44669664       2.85157026       1.48768660      -0.00429809      -0.00322384      -0.01808482
C       11.35393578       2.43559018       2.59332689      -0.00299550       0.00445321      -0.01653701
H       10.76340399       3.86165203       1.21946458      -0.00894543      -0.00271955      -0.02007460
H       10.56381904       2.22055656       0.60990382      -0.00081419      -0.00454075      -0.01637970
H        9.41337694       2.87212637       1.82420667      -0.00425780      -0.00677189      -0.01825815
H       13.16012621       1.93615098       2.85838360      -0.00037673       0.01646305      -0.01525193
O        8.13155149       2.70306974       4.79973137       0.00072211      -0.00072634       0.00317685
O        7.42755895       1.92495724       2.82482771       0.01123643      -0.00304088       0.00100112
C        7.28106914       0.49347298       4.75494602       0.00927684      -0.00363672      -0.00029916
C        7.61430077       1.74489249       4.00736373       0.00761475      -0.00218618       0.00077599
H        7.99698895       0.29780611       5.55159701       0.00472963       0.00068358       0.00448859
H        6.31718327       0.63964875       5.24951567       0.00510871      -0.00862834      -0.00746954
H        7.19611924      -0.34009271       4.06017002       0.01766521      -0.00421150      -0.00039038
H        8.22950854       3.50793285       4.26047329       0.00126227      -0.00059819       0.00380006
O        7.44958032       5.42546336       3.94660563      -0.00059056       0.00953525       0.02360354
O        6.06952358       6.42040190       5.39165702      -0.00743973       0.00513577       0.01975578
C        5.30283445       4.46370819       4.20882984       0.00083917       0.00547457       0.01252821
C        6.25913067       5.53219342       4.59889536      -0.00261188       0.00501740       0.01769471
H        5.23589148       4.41270642       3.12201328       0.00011516       0.01318030       0.01214465
H        5.67296033       3.49912781       4.55523366       0.00485858       0.00435612       0.00478811
H        4.33294943       4.67136124       4.64601045       0.00018728      -0.00134519       0.01421276
H        7.96991740       6.20084807       4.20977322      -0.00206091       0.00873733       0.02748799
O       11.74323920       0.47559755       9.80281112       0.00382513      -0.00565130       0.00572251
O        9.97773372       0.94319494       8.49961120       0.01336980      -0.00470594      -0.00657651
C       11.35610219       2.74986374       9.30895898       0.01099792      -0.00618589       0.00015146
C       10.92084971       1.33302614       9.14429396       0.00963193      -0.00542727      -0.00026363
H       11.67227080       2.95654405      10.32938127       0.01416997      -0.00793933      -0.00062826
H       12.22523614       2.91744672       8.66867442       0.00874701      -0.00741634      -0.00298320
H       10.55792571       3.42923610       9.03079639       0.01101357      -0.00526726       0.00290670
H       11.44010287      -0.41815923       9.58846985       0.00623450      -0.00563663       0.00306287
O        8.91247356       4.56907279       6.78141770      -0.00334340      -0.00165164       0.00043079
O       10.59156524       5.95389551       7.30819450       0.00033748      -0.00904740       0.00339207
C        8.31651695       6.69426335       7.62620123       0.00417393      -0.00326782       0.00866854
C        9.40129281       5.74787999       7.26960698       0.00205851      -0.00593959       0.00367507
H        8.07006937       7.28585385       6.74330229       0.00717610       0.00281072       0.01291987
H        7.40932210       6.17670602       7.91909327       0.00207086      -0.00150622       0.00544450
H        8.66653091       7.37274051       8.39801161       0.00681936      -0.00995167       0.01315092
H        9.65933226       4.02661356       6.48639011      -0.00536293      -0.00354171      -0.00183736
O        4.12127015       7.21815453       0.19335590       0.01646304       0.00279033       0.00822529
O        5.24102811       5.49775626       1.10965179       0.00816166      -0.00060719       0.01129226
C        2.86383690       5.61840915       1.36930539       0.00869602       0.00861815       0.00818366
C        4.19898324       6.07908658       0.90730424       0.01034361       0.00338027       0.00906688
H        2.30254608       6.45577646       1.77382792       0.00897887       0.01126762       0.00250769
H        2.29410429       5.22961948       0.52482677       0.01082124       0.00455253       0.00888693
H        2.98814791       4.83696678       2.11348097       0.00343332       0.01271312       0.01286629
H        5.01398393       7.47213923      -0.09779633       0.01837015       0.00155023       0.01263801
O        6.79436072      10.73131022       9.72562950      -0.01447403      -0.00400051       0.00428124
O        6.26979030       9.98012677       7.67042693      -0.00438967       0.00969172      -0.00369036
C        4.56477496      10.97477760       9.05016673      -0.01099002      -0.00022584      -0.00369349
C        5.94560507      10.50816137       8.70432794      -0.01025420       0.00331342       0.00035495
H        4.10465601      10.23174172       9.70404470      -0.01161891      -0.00123346      -0.00540413
H        4.59477045      11.91485584       9.59877526      -0.01400449      -0.00119841      -0.00211421
H        3.96867672      11.06935201       8.14733725      -0.00896308       0.00049221      -0.00476713
H        7.63758590      10.31062723       9.50734134      -0.01370105      -0.00252241       0.00593272
O        2.49352605      12.38164296       0.95311466       0.00846952       0.01034304      -0.00479776
O        2.26351609      10.51136970      -0.26758946       0.00521040       0.02002192      -0.01754022
C        4.43779120      11.11029435       0.59365579       0.00529838       0.00445513      -0.00617470
C        2.97475257      11.26482647       0.36113176       0.00613582       0.01218885      -0.01020750
H        4.98313697      11.94331340       0.14783970       0.01064385       0.00313175       0.00005161
H        4.67454662      11.15205161       1.65574655       0.00040139      -0.00156424      -0.00517163
H        4.80883856      10.18138003       0.17478581       0.00075904       0.00465947      -0.00968001
H        1.54680661      12.46130665       0.76053695       0.00917190       0.01459731      -0.00649634
O        3.74017075       6.98323077       6.77987623      -0.01105613       0.00005984      -0.00020653
O        4.45430888       7.46584105       8.86223079       0.00110698      -0.00474217      -0.00331104
C        2.29707110       8.23917498       8.12697680      -0.00570256      -0.00812250       0.01299908
C        3.61486719       7.52353313       7.99499141      -0.00554371      -0.00408325       0.00186962
H        2.28646945       9.08608137       7.43807021      -0.01188033      -0.00493102       0.01708902
H        1.46788290       7.59947827       7.82220240      -0.00602573      -0.00849588       0.01517924
H        2.15788044       8.59248499       9.14428701      -0.00071667      -0.01277122       0.01522374
H        4.63212381       6.59594438       6.64026761      -0.00960493       0.00654593      -0.00904140
O        6.98358673       3.60676838      10.41199370      -0.01813105      -0.01624334       0.00818700
O        8.85784754       4.70755666       9.88964593      -0.01334083      -0.03137755      -0.00534672
C        6.89754093       5.95475956      10.54252230      -0.00061935      -0.01621473       0.00412107
C        7.69863307       4.74134991      10.23994204      -0.01098722      -0.02228917       0.00138924
H        6.04152722       6.01842010       9.86742543      -0.00197929      -0.00979690       0.00660281
H        6.52091404       5.87240693      11.56338393       0.00206548      -0.01418867       0.00509498
H        7.49252181       6.85558631      10.44679887       0.00594760      -0.02086319       0.00288807
H        7.55481179       2.86809016      10.15438682      -0.02465627      -0.02081338       0.00766830
O       11.05835205       9.39131692       5.64311744      -0.01253948       0.01107377      -0.00801945
O        8.91698484       8.77457494       5.39660408      -0.03748989       0.00326800       0.00597464
C       10.63016826       7.46623801       4.32094731      -0.00779185       0.00983435      -0.00204337
C       10.07146453       8.57666356       5.14028389       0.02429444      -0.00533012      -0.01545279
H       11.42305390       7.80344162       3.65898187       0.00118259       0.00739630       0.00159660
H       11.06022770       6.72316921       4.99402993      -0.01078135       0.00349881      -0.00380930
H        9.84673794       7.02798839       3.71310398      -0.00197768       0.00996535      -0.01190365
H       10.61410094      10.00349399       6.24914692      -0.01101375       0.00975138      -0.00757888
O        6.85224156       2.65996900       7.43569577      -0.00346667      -0.00404763       0.00173368
O        5.58539543       4.50490509       7.60074937      -0.00564841      -0.00649297       0.01160961
C        4.52599076       2.37886409       7.23885408      -0.00298387      -0.00625092       0.00359854
C        5.68176574       3.30826539       7.45593186      -0.00425045      -0.00604331       0.00609381
H        4.40390370       2.22126186       6.16463274      -0.00314945      -0.00262086       0.00323009
H        4.70841414       1.40963375       7.69639932      -0.00140553      -0.00760989      -0.00028656
H        3.61911359       2.83584387       7.61859350      -0.00336950      -0.00930616       0.00591417
H        7.56679520       3.32516148       7.37695819      -0.00421855      -0.00337529       0.00477633
O        2.41247976       4.65758810       8.71913096      -0.02273768      -0.01072872       0.00083587
O        1.47554309       4.80011794      10.73744863      -0.00111747       0.03123358       0.00633129
C        3.60392284       3.67626445      10.50026693      -0.01825166       0.00121814       0.00328666
C        2.39529798       4.42396810      10.04712255      -0.01280618       0.00929753       0.00329661
H        3.68030162       2.73033946       9.96321954      -0.02525508      -0.00076231       0.00616033
H        4.50138167       4.24191783      10.25101480      -0.01495990      -0.00540936       0.00037348
H        3.56651377       3.48589058      11.56732480      -0.01762326       0.00539945       0.00390908
H        1.60484467       5.15406746       8.51578132      -0.01802540      -0.00322267       0.00056779
O        0.88029075       5.21129395       3.95077429      -0.01710352       0.01511487      -0.00039274
O        2.04108974       3.28444502       3.94669905      -0.01150757       0.01847857      -0.02219963
C        0.99516451       4.02698683       5.97524104       0.00566149       0.00484928      -0.00867367
C        1.38540328       4.10937426       4.54103502      -0.00915000       0.01483798      -0.01169789
H        0.80925745       5.01010068       6.40000989      -0.00185868       0.00131792      -0.00432778
H        0.05521020       3.47042770       5.99928959       0.01223400      -0.00592084      -0.00241000
H        1.74250012       3.47670621       6.53618268       0.01658142       0.01155455      -0.01679082
H        0.97594227       5.16007720       2.98232147      -0.03924088       0.02000344      -0.00303656
