150
Lattice="16.06201548296864 0.0 0.0 0.0 16.06201548296864 0.0 0.0 0.0 16.06201548296864" Properties=species:S:1:pos:R:3:forces:R:3 energy=-1033819.125 stress="4.911584619549103e-05 -0.00011728564641089179 -0.00011224972695345059 -0.00011728564641089179 -0.00012942311877850443 -2.705562292248942e-05 -0.00011224972695345059 -2.705562292248942e-05 0.000224167451960966" pbc="T T T"
N       14.36343706      13.78695846       0.06454987       0.00596863       0.00048380       0.00812082
C       13.70712369      14.94844996      -0.05081835      -0.00764051      -0.00024009       0.00129804
C       13.76165458      12.62210558       0.34424214      -0.00379382       0.00003994       0.00949074
C       12.33699467      14.96403207       0.10020736      -0.00049432      -0.00341839      -0.00236175
C       12.39578307      12.59009868       0.49550146       0.00328298      -0.00247372       0.00237790
C       11.67750366      13.77597328       0.38294597      -0.00374949      -0.00492478      -0.00084951
H       15.37561617      13.80934428       0.02398625      -0.00141329       0.00242749       0.01614961
H       14.30268694      15.82580077      -0.23646179      -0.00258423       0.00076272      -0.00128256
H       14.40320014      11.76234044       0.45419315       0.00397216       0.00137035       0.01320310
H       11.81462021      15.90745461       0.03295365      -0.00517786      -0.00432631      -0.00265781
H       11.90729053      11.65693773       0.73329780       0.00290703      -0.00472273      -0.00018536
H       10.60465626      13.77168879       0.52969340      -0.00052820      -0.00804391      -0.00265637
S       14.51695741      15.17874568       3.34827496       0.00164187       0.00271195       0.00471896
O       15.66958318      15.21342533       4.25851772       0.00084054       0.00078195       0.00464904
O       14.17129470      13.83055476       2.91389843      -0.00149012       0.00240111       0.00655675
O       14.65197090      16.12762776       2.23557177       0.00823945      -0.00117266       0.00235021
C       13.13320321      15.75406019       4.31538745       0.00087476       0.00752091      -0.00054067
H       13.34508382      16.75851723       4.67429153       0.00582442       0.00456537       0.00333066
H       12.24728154      15.75296491       3.68469429       0.00371225       0.01445121      -0.00393363
H       12.98873910      15.07547060       5.15334710      -0.00678571       0.00554192      -0.00389390
Cl      15.00100367      16.25554978       7.73246457      -0.00025548      -0.00185707       0.00134447
Cl      16.69859510      13.88172362       7.87202866      -0.00437400      -0.00599441       0.01534857
Cl      13.82331618      13.58452540       7.53538242      -0.00069880       0.00162326      -0.01506865
C       15.23815392      14.59101329       7.15899445       0.00508126      -0.00043219       0.00126345
H       15.36930187      14.64200923       6.07589435       0.01661527       0.00058671       0.00265449
Cl      10.54082943       1.20207187       9.56579395       0.00270590       0.00865549      -0.00900022
Cl       8.42170287       0.86250593      11.54810088       0.01079380       0.00509049      -0.00225487
Cl       7.76049850       0.99084490       8.71017842       0.00103192      -0.00916961      -0.00137395
C        8.96257599       0.47627859       9.89021049       0.00664499       0.00363662      -0.00178903
H        9.06294384      -0.60160526       9.83279217       0.00911933       0.00438961      -0.00107493
Cl      10.82600284       5.22145851       5.46438234      -0.01503244      -0.00402513       0.01395348
Cl      12.92318112       3.44625183       6.46240846      -0.00129367      -0.00086633      -0.00003064
Cl      10.36865932       2.34402026       5.57369333       0.00179362      -0.00701857      -0.00945958
C       11.56815409       3.61277945       5.33055288      -0.00575059       0.00151832       0.00382072
H       11.96266527       3.51892911       4.32542995      -0.00349881       0.01028540       0.00447690
Cl       3.81233637       7.83653464      11.29038820       0.00381245       0.00379992      -0.01692518
Cl       3.73604587       5.92145873      13.49381664       0.00503004       0.01429901      -0.01059443
Cl       1.46878279       6.13768949      11.65998886       0.00141138       0.00371587      -0.00856481
C        3.23839964       6.26366548      11.83308574       0.00149914       0.00707561      -0.01094106
H        3.67426650       5.50348322      11.19668104      -0.00085129       0.00433895      -0.00867698
Cl       3.20268336       3.66130216       6.82572847      -0.01408644      -0.00613725       0.01254699
Cl       3.61418512       6.47714245       7.46509502       0.00551227      -0.00629002       0.00151825
Cl       0.97182585       5.53741726       6.65752239       0.00230929       0.01207636      -0.01658747
C        2.47479101       5.13116542       7.50153099      -0.00740339       0.00464195      -0.00224884
H        2.22402158       4.92009351       8.53488000      -0.01913134       0.01346114      -0.00334069
Cl      14.77898651      15.26012666      10.99482129       0.00347758      -0.01459290      -0.00976810
Cl      14.60631779      12.88121738      12.66795778       0.00878950      -0.00178689       0.00720011
Cl      16.27626926      15.12599069      13.50402355      -0.00215484       0.00631243      -0.00415389
C       14.79260232      14.63579077      12.64564922       0.00367846      -0.00211852      -0.00598799
H       13.95052114      15.07189042      13.17288100       0.00212258       0.00240797      -0.01375639
Cl       8.86900135      11.31535166       5.25087453      -0.02760242       0.03670998      -0.01224639
Cl      10.01300271      13.73695521       6.39464181       0.00004492      -0.00010687       0.03276875
Cl       8.81833965      11.71798746       8.14313778       0.00757207      -0.02762805       0.00092761
C        9.71679916      12.01336241       6.64477416      -0.00890473      -0.00312573      -0.00349418
H       10.67368525      11.51107575       6.73302963      -0.00802442      -0.00542066      -0.02458435
Cl       1.36959838       3.14756964       1.99624266      -0.00887955      -0.00447962      -0.01131850
Cl      -0.20902097       2.77538264       4.42552164      -0.00148422       0.00094131       0.00569861
Cl       2.34276031       1.38641587       4.10018507       0.00058924       0.00320822       0.00411880
C        1.41962593       2.84610406       3.74272429      -0.00259863       0.00262395      -0.00307346
H        1.92628878       3.68419025       4.20706662       0.00326160       0.00163242      -0.00348066
Cl       4.48164727      16.01651792       7.34644156       0.00146015      -0.00394315      -0.01102732
Cl       5.65618861      13.55090517       8.39724085       0.01022571       0.00247325      -0.00421741
Cl       3.52158533      14.89569827       9.86695704       0.01032703       0.00146074      -0.00283790
C        4.18432863      14.53367694       8.26755505       0.00625556      -0.00201431      -0.00481828
H        3.45044652      13.95248591       7.72254969       0.00645402      -0.00619236      -0.00149964
Cl      12.74750621       6.85499938       9.06047174      -0.01468622      -0.00591479      -0.00586545
Cl      10.50780414       8.15903042       7.72276191      -0.00400355       0.02015061       0.00350705
Cl      13.17161760       9.34137691       7.58582475       0.00699144      -0.00597428       0.00053490
C       12.24349873       7.82589486       7.67941216      -0.00752336       0.00320477      -0.00213806
H       12.45184783       7.25748111       6.78037255      -0.01641707       0.00386468      -0.00455701
Cl      14.16916433       9.28335720      11.44640689       0.00288776       0.01428515       0.00395182
Cl      16.64347717       9.79875926      12.90408358       0.00008667      -0.00954992       0.01138694
Cl      14.11567528       9.49291082      14.35194396      -0.00252490       0.00024074       0.00594555
C       15.07819233       8.99126150      12.92771119      -0.00400496       0.00186747       0.00488822
H       15.24884684       7.92635851      13.02772382      -0.01276933       0.00039437      -0.00204952
Cl       0.47850625       6.99342238       2.27801261       0.02831940       0.00661255       0.00567985
Cl       1.29393150       9.33027924       0.72023781       0.00942415       0.00375304      -0.01054051
Cl       0.68558189       6.81366856      -0.62550502      -0.01584075       0.00313237       0.00382423
C        0.29991906       7.86036079       0.74955601       0.00322591       0.00555021       0.00777594
H       -0.73534501       8.16484522       0.65510887       0.00250500       0.00858247       0.02560962
Cl      11.37380664       6.84237960      13.09565248      -0.00368587      -0.00352958      -0.00016025
Cl      13.13950546       4.87694775      11.84803839       0.00331625       0.00245364       0.00639308
Cl      10.67106468       4.00511366      13.13048024      -0.00008474      -0.00382912      -0.00465712
C       11.45565706       5.30655046      12.22411437      -0.00064836      -0.00221745      -0.00207437
H       10.92745208       5.42618368      11.28536217       0.00239448      -0.00014214      -0.00427693
Cl       0.71261364       9.59227103       6.22124769       0.00551297      -0.00107355      -0.00161526
Cl       0.92846079       8.78184489       9.01677112      -0.00726414       0.00477847       0.00379008
Cl       2.72660229      10.81378277       7.94886074       0.00937259      -0.00945129       0.00073250
C        1.09900100      10.11206267       7.87338559       0.00427086      -0.00007291      -0.00166886
H        0.39409581      10.88852623       8.14429313       0.00870258       0.00551650      -0.00544959
Cl       7.19580755       0.34007456       4.59882940      -0.00648856      -0.00366770      -0.00848439
Cl       7.36489055       2.75659607       2.96245680      -0.00451503      -0.00324377      -0.00689462
Cl       8.99025723       0.43086003       2.29472215       0.01232004       0.00833808       0.00509039
C        7.44529235       0.99642461       2.97432994       0.00504379      -0.00227606      -0.00684497
H        6.65558178       0.61572287       2.33707913       0.01073772      -0.00565746      -0.01153223
Cl      11.24384627      14.37593218      11.68856705       0.00501578      -0.00037673      -0.00055750
Cl       8.63486165      13.07569682      11.56503354      -0.00570717       0.01737574       0.00939853
Cl      10.76899352      11.92060727      13.18533153      -0.00532074      -0.00494418      -0.00525839
C       10.04935707      13.41783707      12.57316948       0.00355798       0.00330019       0.00343590
H        9.71068667      14.00072930      13.42178265       0.01340535       0.00089613       0.00930290
Cl      12.16529451      10.77265848       3.98330984      -0.00515327       0.00344110      -0.00682313
Cl      12.89098857       8.27021871       2.67505017       0.00134655      -0.00220351       0.00507897
Cl      14.90307483      10.35478896       3.06372031      -0.00171086      -0.00228909       0.00874870
C       13.45826820       9.59319901       3.72226610      -0.00484207       0.00104607       0.00433742
H       13.71868711       9.16628888       4.68386330      -0.01033713       0.00288206       0.00677019
Cl       7.49931763       6.90468608       5.82448439      -0.00590853      -0.00679526       0.00643246
Cl       5.51521957       9.03159642       5.57566835       0.00669983       0.00325998       0.00622873
Cl       6.57958132       8.32328824       8.20746796       0.01134266       0.00469983       0.00600410
C        6.91982467       8.45002747       6.48045397       0.00564549      -0.00236671       0.00401810
H        7.71313127       9.17636273       6.35167644       0.00729930      -0.00532457      -0.00118211
Cl      13.96349906       4.45272872       1.48658941      -0.00372590      -0.00301719       0.01413373
Cl      11.96035538       2.35565849       1.77880420      -0.01236808      -0.00161103      -0.01512939
Cl      13.60371602       2.47905070      -0.63011722       0.02459148      -0.00469203       0.00919133
C       13.56364956       2.77533105       1.12816924      -0.00103420      -0.00283265       0.00899749
H       14.28394225       2.10978975       1.59829230      -0.00890839      -0.00506335       0.01890130
Cl       6.89346688       6.15953888       1.64023058       0.00595498       0.00782180       0.02713203
Cl       4.56107978       7.87234293       2.04657513      -0.01271231      -0.00820449      -0.00491603
Cl       4.38450374       5.02094720       2.60404066       0.00292805      -0.00975409      -0.00822074
C        5.43770345       6.44384216       2.61194535      -0.00965587      -0.00088645       0.00671763
H        5.75406008       6.62576531       3.63226870      -0.02455696       0.00032246       0.01118192
Cl       8.98987440       4.84200858       8.90707665      -0.00139216      -0.01038864       0.00369397
Cl       7.71083357       5.67773916      11.39068543      -0.01139574      -0.00641230      -0.00293404
Cl       6.12393053       4.44333900       9.27438242      -0.00286877      -0.01182961      -0.00506866
C        7.70381126       4.49727911      10.07404801      -0.00582410      -0.00976052      -0.00090235
H        7.89692717       3.51832447      10.49663228      -0.00538424      -0.00879836       0.00119728
Cl       6.35850140      10.62597508       1.23998758      -0.01001023       0.00522113      -0.00350329
Cl       7.10251026      13.35708386       1.95310222       0.02923357      -0.00575764       0.00764737
Cl       8.36310807      12.04486047      -0.34078105      -0.02802643      -0.00181044      -0.03376229
C        6.87103004      12.19781515       0.64255770      -0.00542222       0.00319878       0.00421729
H        6.10349888      12.58295983      -0.01858976      -0.01364590       0.01268761       0.01912248
Cl       5.36316840       2.19105944      15.99433317      -0.00595062      -0.00543766       0.00393510
Cl       4.51704620      -0.57067352      15.57394771      -0.00532937       0.00009166       0.02392077
Cl       3.10128681       1.60355047      14.23623421      -0.00198427      -0.01089174      -0.00020975
C        4.66281098       1.04362795      14.84372778      -0.00425202      -0.00741390       0.00796857
H        5.33802890       0.96468674      13.99934788      -0.00076948      -0.01215686       0.01112396
Cl       5.94683001      10.70772330      11.29091110       0.00524604       0.00841990       0.00384355
Cl       6.30898260       9.01258730      13.65407814       0.01181504      -0.00257954      -0.00568485
Cl       8.42135295       9.19982182      11.64478985       0.01208326       0.01469672      -0.00658369
C        7.10559469      10.04858942      12.46712681       0.00820356       0.00537576      -0.00081638
H        7.53777175      10.88826007      12.99653947       0.00671682       0.00445706       0.00179672
Cl       0.01373552       2.69164570      12.32698191       0.01315544      -0.00199626      -0.00685686
Cl      -0.18473244       3.50554018       9.52885871      -0.01394589      -0.02173877      -0.00911427
Cl       2.37850152       2.61292108      10.60915884       0.00389650       0.00761998      -0.01905507
C        0.61808790       2.43136028      10.68584347       0.00531781      -0.00794864      -0.00843259
H        0.38401412       1.41170657      10.40424986       0.01128268      -0.01189834      -0.00019243
Cl       3.70287578      14.33588794       3.69325454       0.00241268      -0.00860272       0.00670058
Cl       2.00781995      13.34141677       1.53325229       0.01242333      -0.00723000      -0.01080272
Cl       1.82043248      12.17841927       4.21043064      -0.01386718       0.00765678      -0.00533867
C        2.11235538      13.65735503       3.29498042       0.00328620      -0.00031966      -0.01192027
H        1.33556265      14.37443441       3.55512816       0.00529483       0.00523558      -0.02554435
