147
Lattice="17.71154295245093 0.0 0.0 0.0 17.71154295245093 0.0 0.0 0.0 17.71154295245093" Properties=species:S:1:pos:R:3:forces:R:3 energy=-1642939.125 stress="0.00014398389612324536 0.00013250338815851137 2.076659984595608e-05 0.00013250338815851137 -7.465772796422243e-05 -0.00016377016436308622 2.076659984595608e-05 -0.00016377016436308622 -6.60061341477558e-05" pbc="T T T"
Rb      17.77613284      17.61267774       0.44166951       0.02839145      -0.01502979       0.02084231
Br      17.10151691      16.13411706      -2.21601867       0.01047078       0.02464387       0.00282446
Cl      13.72783248      14.05918990      11.52680735      -0.00848579       0.00410134       0.00301942
Cl      15.71904037      15.03918952       9.65545482      -0.00168443      -0.00944208       0.00048995
Cl      15.83957310      15.80438989      12.46073174      -0.00253868      -0.01152857      -0.00140709
Cl      13.73690419      16.84998274      10.74764452       0.00630444       0.00571060       0.00466365
C       14.76349183      15.44468417      11.10383920       0.00345036      -0.00543024       0.01750173
Cl      10.30592202       9.45915029       8.09047234       0.00563848       0.00776242      -0.00391561
Cl       8.57422702      11.28913388       6.66208097       0.00459379       0.00611970      -0.00900667
Cl       7.89381799       8.47280235       6.83116060       0.00556174       0.00560555      -0.00085001
Cl      10.13759483       9.33626416       5.20009740       0.00310078      -0.00034709      -0.00081652
C        9.22662191       9.63430634       6.69703058       0.00704773      -0.00059906      -0.00822302
Cl       4.96684691       6.42889351       7.84636026       0.00314988       0.00045255       0.00147587
Cl       3.04186593       4.89989266       6.30115616       0.00404197       0.00414945      -0.00574594
Cl       5.66716795       3.79801284       6.86209415      -0.00108664       0.00144914      -0.00438433
Cl       5.38229008       6.01543424       5.00541500       0.00761507       0.00264932      -0.00097269
C        4.76576852       5.28237313       6.50642112       0.00353791      -0.00490148      -0.00395743
Cl       7.06445208      17.06503617       8.56447143      -0.00414720      -0.00200281      -0.00191889
Cl       4.28841724      16.42978996       8.02465026       0.00070882      -0.00898735      -0.00033972
Cl       5.78566663      14.85829559       9.94843034      -0.00017544      -0.00561228       0.00041038
Cl       6.38856211      14.64474265       7.11823645       0.00255437      -0.00441268      -0.00125980
C        5.87970666      15.75536394       8.42157095      -0.00541648      -0.00046532      -0.00354048
Cl      13.96519032      11.30759201       9.10911445       0.00469778       0.00057403      -0.00161827
Cl      15.43309573      12.40915414       6.87159832      -0.00014889       0.00787415      -0.00106376
Cl      12.54114923      12.61700678       6.94796833       0.00159317      -0.00054005      -0.00045821
Cl      13.79986590      10.04462007       6.50982521       0.00746980       0.00294405      -0.00598308
C       13.92681247      11.59092848       7.36182436       0.00332583       0.00713565      -0.00484391
Cl      14.57863807      10.38373339      15.34490488       0.00113314      -0.00637859       0.00502992
Cl      16.93707425       8.76053866      14.90923570      -0.00021589       0.00205740      -0.00140682
Cl      15.72486032      10.18411767      12.68779449      -0.00489460       0.00989142       0.00122321
Cl      14.37189295       7.90080884      13.86113910       0.00423384       0.00360838       0.00041425
C       15.39996729       9.30854917      14.20298512      -0.00482454      -0.00473640       0.01276743
Cl      11.09517180       3.87563863       9.72001847       0.00074080       0.00330284       0.00112137
Cl       9.72452458       6.37836087      10.25783219       0.00432194       0.00846702      -0.00022709
Cl       8.19827448       3.98329548       9.66919302       0.00013617       0.01099190      -0.00004867
Cl       9.73686261       5.28523971       7.57792771       0.00211495       0.00625136       0.00166202
C        9.69018303       4.88205731       9.30686038      -0.00221073       0.00751159      -0.00294574
Cl      15.58036415       8.83172097       3.57555690       0.00436401      -0.00138590      -0.00277987
Cl      15.61439354       6.11094591       2.57858732      -0.00264364      -0.00384277       0.00049911
Cl      13.52589356       7.93078414       1.73678051       0.00500768       0.00016272       0.00062537
Cl      13.57318104       6.93556586       4.46468709      -0.00046593       0.03181207       0.01396778
C       14.57413932       7.45847193       3.08694761      -0.00277019       0.00939734      -0.00547472
Cl       6.24803639       9.29039789      11.81739048      -0.00201169       0.00168175      -0.01057139
Cl       4.02223075       9.19304084       9.95530379      -0.00758010       0.00494343       0.00126578
Cl       6.31113349      10.88547721       9.39864816      -0.01026630      -0.00190134      -0.01015791
Cl       4.48294658      11.57195717      11.54349398      -0.00149012       0.00518519      -0.00366187
C        5.26520419      10.23411059      10.68000657      -0.00706369      -0.00108798      -0.01092917
Cl       7.73481503       0.09076313       4.71047658      -0.00324339      -0.00415036       0.00313725
Cl       8.19703380       2.88188430       4.07186959      -0.00600268      -0.00766912      -0.00767200
Cl      10.43613917       1.04180246       4.24715228      -0.00359222      -0.00482748      -0.00101475
Cl       9.01231018       1.82458985       6.64800830      -0.00595541       0.00439976      -0.00365603
C        8.84654406       1.46070112       4.91817581      -0.00835395      -0.00318944      -0.00277388
Cl      11.37192676      14.96924479      14.35637059       0.01187930      -0.00815460       0.01359063
Cl      11.47625340      15.77059814      17.14128642       0.00869365       0.00683360       0.00773978
Cl      11.65414954      17.77115023      15.04695733      -0.00583194      -0.00686169      -0.00074132
Cl      13.87078684      15.95707436      15.48918437       0.00949967       0.01314667       0.00626970
C       12.10088563      16.10870355      15.50054998      -0.00362708       0.00773106       0.00749699
Cl      15.10962428      12.76313843       3.43389090       0.00726613       0.00549176      -0.00992775
Cl      15.67492878      11.55007534       0.86193830      -0.00204931      -0.00079584       0.00319746
Cl      17.07977261      13.94511402       1.66962908       0.02033973      -0.00630116      -0.00216092
Cl      14.25793176      14.07378240       0.98391634       0.01654267       0.00405464       0.00133561
C       15.51901571      13.08278328       1.73578429      -0.00963334      -0.00960296       0.01323240
Cl      13.88891868       1.20054302       0.07200664       0.01191692      -0.01019523      -0.00218457
Cl      13.22857023       3.04814784       2.21774033       0.00484578      -0.04153560      -0.00577143
Cl      13.70871576       4.04310333      -0.45711398       0.01411066      -0.00625464       0.01249567
Cl      15.91167099       2.99871584       1.11768750       0.00967036      -0.00416068      -0.00955185
C       14.16284898       2.82037067       0.73469511       0.00966895      -0.01306871      -0.00082011
Cl      16.87423873      18.75030376       5.04266691       0.00199145      -0.01086426       0.01472425
Cl      14.06937836      18.37062984       5.66890533      -0.00563572       0.00921136      -0.01236679
Cl      15.85660116      16.09138791       5.62638453      -0.00999708       0.00292757       0.01254188
Cl      15.12086779      17.41166657       3.15053448       0.00423539      -0.01149066       0.00086361
C       15.48105249      17.64947442       4.88546764      -0.00210389      -0.00111602       0.00164965
Cl       6.57918336       9.41851543       3.54818320       0.00352554       0.00779998       0.00453383
Cl       4.73586825      11.62568678       3.19413155      -0.00372273       0.00275353       0.00004041
Cl       6.19910296      10.58667705       0.91754164      -0.00135903       0.00071925       0.00549930
Cl       7.59017138      12.07277583       2.97430264      -0.00472042       0.00934884      -0.00384776
C        6.27364566      10.92732132       2.65499846      -0.00012415       0.00455167      -0.00562933
Cl      10.08171673       2.93720506      14.45156447      -0.01298752       0.00828767      -0.01554770
Cl      11.58573783       5.21344143      13.46527373       0.00189713      -0.00188075      -0.00629076
Cl      10.31094146       5.32820429      16.06752220       0.00684881      -0.01471494      -0.00329506
Cl       8.69256946       5.35059353      13.66453967       0.00231630       0.01897830       0.00166376
C       10.16740691       4.70688557      14.41157646       0.00369707      -0.00878377       0.00745353
Cl       4.78572135      14.02554000      -1.00203443      -0.00576141      -0.01644066       0.00523643
Cl       1.97447101      14.21015562      -1.78877128       0.00066239      -0.00862384       0.00572008
Cl       2.90026359      11.99027463      -0.14958843      -0.01161498      -0.01282021      -0.00221169
Cl       3.70217288      12.15641994      -2.92726979      -0.01743279       0.00229162      -0.00550520
C        3.33394726      13.09774029      -1.47080691      -0.00671359      -0.00263216       0.00571856
Cl       9.69887860       9.16812697      13.33495555      -0.00222659      -0.01506606      -0.00197554
Cl       9.53733690      11.26085882      11.33116855      -0.00303364      -0.00913900       0.00431609
Cl      11.81274960       9.46335603      11.38187739      -0.00383240      -0.01183316      -0.00481316
Cl      11.48528461      11.45544754      13.46466935       0.00198185      -0.01924890      -0.00008300
C       10.63144859      10.34545094      12.37973251      -0.00168151      -0.01061171       0.00214773
Cl       2.05675026       3.46347774      16.42722119      -0.00090027      -0.00022210      -0.00138515
Cl       2.27769812       6.26150087      15.70338499      -0.00340706      -0.00410303      -0.01004882
Cl       1.22099595       5.52387725      18.30142917       0.00234749       0.00585911      -0.00314060
Cl      -0.33513855       5.02120861      15.90828509       0.00236183      -0.00364746      -0.00158557
C        1.30481556       5.07080645      16.58064416      -0.00376171      -0.00156778      -0.01373079
Cl       3.10577637      12.62013449       8.16136178      -0.00025004       0.01134072      -0.00694247
Cl       0.80305504      14.25985507       7.55890181      -0.00597653       0.00285241       0.00299573
Cl       1.89535560      14.24195226      10.24371273       0.00001417       0.00054806      -0.00508919
Cl       0.51481294      11.90299324       9.23638533       0.00366879      -0.00955445      -0.00095023
C        1.58250220      13.25071854       8.81021808       0.01450258       0.01285604      -0.00323163
Cl      12.05352986      11.23524785      17.96552041      -0.00109512       0.00869679      -0.00255179
Cl      11.31317740       8.72417153      16.72441163       0.00067228       0.00302961       0.00407627
Cl       9.44793251      10.94210000      16.73523273      -0.00235012      -0.00291088      -0.00304881
Cl      10.04579010       9.54375026      19.20018116      -0.00046948       0.00551163       0.00016901
C       10.71627159      10.11366460      17.65809377      -0.00523250      -0.00277043      -0.00358942
Cl       7.74727904       5.64350074       1.14016657      -0.00266609       0.00123176       0.00154990
Cl       5.16435286       6.91198010       0.79376626      -0.00359535       0.00113933      -0.00032537
Cl       6.10536487       4.98450852      -1.16100566       0.00130503       0.00246647       0.00021815
Cl       7.36011217       7.59343416      -0.97420830       0.00009789       0.00081325       0.00259072
C        6.59473573       6.28350106      -0.05639497       0.00215909      -0.00056855      -0.00201627
Cl       0.87845100       4.55886423      12.10207922      -0.00001052      -0.00304770      -0.00320573
Cl       1.61476997       5.95235995       9.66443031       0.00229686       0.00235664       0.00132519
Cl       3.51340546       5.74543809      11.84696059      -0.00072294       0.00193491       0.00063865
Cl       1.17681294       7.44192840      12.11309511      -0.00232007      -0.00004965       0.00139540
C        1.78935053       5.92234234      11.43067095       0.00301547       0.00071761      -0.00519931
Cl      12.21066848      15.46951904       3.86635308       0.00345179      -0.00648320       0.00550343
Cl       9.65131885      15.21882999       2.52658129       0.00581563      -0.00333133       0.00663406
Cl       9.86308892      14.65348468       5.36006179       0.00167096       0.00466616       0.00930947
Cl      11.05904296      12.85060220       3.42606866      -0.00123228      -0.00467849       0.01176694
C       10.70025390      14.54349887       3.79456386       0.00522846       0.00114805       0.00318888
Cl       4.38661919      15.49241080       3.86444651      -0.01244152       0.00601257       0.01713729
Cl       1.67477585      16.50791999       4.06120193      -0.00713767       0.00164279      -0.01414445
Cl       2.16342129      13.65530069       4.08707072      -0.00554969       0.00194183       0.01585045
Cl       2.55873313      15.16813538       1.64305509       0.01663801      -0.01450307       0.00400841
C        2.70206802      15.20038300       3.42079766       0.00914320       0.01101165       0.01229698
Cl       4.01195477       1.03230897       1.13015508      -0.03406244      -0.00201227       0.00233917
Cl       1.90821253       2.33714689       2.65599071      -0.01123464       0.01856168       0.01184784
Cl       4.33922269       3.77723635       2.00284342      -0.00010495      -0.00550011      -0.00353946
Cl       4.41033748       1.63299971       3.93939755      -0.00752580      -0.00665581       0.00254941
C        3.68735641       2.20172480       2.43672360      -0.01602861       0.00097749      -0.00562936
Cl      13.15770197       7.00721680       8.76814505      -0.00097275       0.00374895      -0.00937106
Cl      15.76784159       7.82288511       9.73135998      -0.00280452       0.00549418      -0.00278875
Cl      15.54204649       5.68462409       7.78460236       0.00498950      -0.00011633       0.00333548
Cl      14.67519437       5.25830225      10.52248957      -0.00529791       0.00984913       0.00088704
C       14.78496082       6.44363921       9.20074351       0.00242094       0.00386822       0.00195611
Cl       3.76848871       2.20032929      12.99491653      -0.00332800       0.00384229       0.00346424
Cl       1.29284275       0.69518804      13.17512426      -0.00583339       0.00258455      -0.01652540
Cl       3.41006721       0.22948359      15.09538485      -0.01246088       0.00247152      -0.00106800
Cl       3.73747060      -0.62426325      12.33780995       0.00434998       0.00513083       0.00059742
C        3.04262503       0.62901677      13.38681659       0.00162707       0.00416225      -0.00550956
Cl       0.72564791      10.62044969       5.15164104      -0.00453815      -0.00133276      -0.00459457
Cl       0.61844548       8.19443778       6.72827008      -0.00030690      -0.00224581      -0.00626788
Cl       3.18262844       9.40601280       6.10538990      -0.00338686       0.00354002      -0.00044754
Cl       1.65159797       8.10867938       4.01735390       0.00416104       0.00004607      -0.00498608
C        1.55024857       9.07717932       5.50359957      -0.00047233      -0.00105155      -0.00077751
