149
Lattice="12.246567887487414 0.0 0.0 0.0 12.246567887487414 0.0 0.0 0.0 12.246567887487414" Properties=species:S:1:pos:R:3:forces:R:3 energy=-170590.890625 stress="-0.0006978490273468196 -0.00018494507821742445 -0.0010603615082800388 -0.00018494507821742445 -0.0019841317553073168 -0.0002577583072707057 -0.0010603615082800388 -0.0002577583072707057 -0.0011601046426221728" pbc="T T T"
Rb      13.51622946       9.57993615      -1.56262250       0.00816858      -0.02977670       0.00609177
O       11.04315946      12.67215405       1.04154621       0.04473169      -0.01739049      -0.01073912
O       11.64082275      10.88806330      -0.03789617      -0.00871933      -0.03961241       0.00079107
O       10.13867800      10.75968055       1.52730968      -0.00185525       0.01098955       0.00801587
N       10.93035209      11.45501085       0.84582447       0.01209556      -0.01782247      -0.00169259
O        3.47735581       9.10734971       9.11179458       0.02516478       0.00551131      -0.02368736
N        5.10580691       8.39191441       7.67249916       0.00443901      -0.00043673      -0.00459813
C        5.19566342       7.04655114       8.20613951       0.00148650      -0.00075948       0.00415178
C        6.08404123       8.75681277       6.67137008      -0.00110787      -0.00322320      -0.00568396
C        4.24663311       9.29217323       8.17375050      -0.02256912      -0.00862774       0.02972078
H        6.19491448       6.87143123       8.60552613       0.00429183       0.00226614      -0.00168803
H        5.01974220       6.31824931       7.41057212       0.00065707      -0.00095823       0.00467953
H        4.45494394       6.91236822       8.98480202       0.00614229       0.00384189       0.00386083
H        7.09219287       8.63749737       7.07773627      -0.00183332      -0.00022516      -0.00724395
H        5.92650759       9.78907087       6.36062149      -0.00443161      -0.00400421      -0.00710658
H        6.00105669       8.11138395       5.79519673      -0.00413051      -0.00475994      -0.00193110
H        4.30038311      10.26038139       7.65472333       0.00001627       0.00108987      -0.00381906
O        2.05026489      10.19492504       6.16899001       0.01728255      -0.00038189      -0.01681221
N        3.03082065       8.41808426       5.10715757       0.00063542       0.00588825      -0.00849990
C        2.27177757       7.39130118       5.79582071       0.00142521       0.00852062      -0.00181107
C        3.88928289       7.99054589       4.02585847      -0.00458436       0.00703359      -0.00949934
C        2.83377890       9.72362263       5.35417164      -0.01708609       0.01667196       0.01177084
H        2.95430546       6.68809276       6.27667408       0.00467277       0.01000835      -0.00353797
H        1.68436797       6.82219206       5.07172555       0.00140697       0.00633475      -0.00051174
H        1.63357494       7.84436262       6.55136959       0.00388184       0.00832736      -0.00234520
H        4.57382936       7.21270365       4.36954221      -0.00350407       0.00857367      -0.01157901
H        4.47201641       8.82839292       3.65251608      -0.00664973       0.00756255      -0.01181788
H        3.29715143       7.57698559       3.20966830      -0.00781012       0.00732322      -0.00666291
H        3.48076311      10.36219696       4.72511319      -0.00236520       0.00869104      -0.00991353
O        5.34866526       2.13587825       1.24042907      -0.00155842      -0.00121361       0.00668725
N        3.14230134       2.17472346       1.85701197      -0.00065988      -0.00056573       0.00019620
C        3.39424881       1.75189196       3.22052733      -0.00421758       0.00133369       0.00124335
C        1.78451740       2.55331858       1.50426553       0.00116166      -0.00215935      -0.00502502
C        4.16737040       2.35989083       1.00178433       0.00704491      -0.00299649       0.00405639
H        2.98943888       0.75482500       3.41155231      -0.00741115       0.00285181       0.00175174
H        2.93351925       2.45892799       3.91152780      -0.00484183       0.00344849      -0.00132687
H        4.47024303       1.73358605       3.37700829      -0.00515354      -0.00082527       0.00408526
H        1.10951246       1.69445949       1.49578460       0.00183703      -0.00238198      -0.00418335
H        1.77299990       2.99240646       0.50960034       0.00417682      -0.00548226      -0.00642642
H        1.41434747       3.29941904       2.20751649      -0.00095085       0.00013652      -0.00866634
H        3.82758598       2.75078922       0.02796816       0.00589709      -0.00379252       0.00122541
O        2.33302275       9.83197005       1.00986687      -0.00687933      -0.00524545       0.01380175
N        1.00088956      10.44427737       2.76638549      -0.00921634      -0.00132647       0.00611634
C        0.48927651       9.11067960       3.00168896      -0.01156418      -0.00038381       0.00714016
C        0.41609567      11.51254019       3.56103072      -0.00609794       0.00074869       0.00406124
C        1.84542824      10.68395583       1.75678128      -0.00286543      -0.01000321       0.00453490
H       -0.56869418       9.08299752       2.73263561      -0.01065412       0.00039932       0.00352597
H        0.60288270       8.85538740       4.05543675      -0.01592449       0.00353714       0.00857970
H        1.04674813       8.40480923       2.39160051      -0.01066178      -0.00279091       0.01185936
H       -0.66889088      11.50030138       3.44816670      -0.00563893       0.00387643       0.00244298
H        0.78032521      12.46868193       3.19780770      -0.00290681      -0.00106499       0.00294636
H        0.68322477      11.39463623       4.61171069      -0.00701790       0.00069518       0.00406384
H        2.08555437      11.75210430       1.64709850      -0.00141338      -0.00621420       0.00686951
O        8.53053245      11.78624309      11.34783080       0.00040036       0.01764286       0.00287870
N        6.88343071      10.27790625      10.89254419       0.00685441       0.00347251       0.00393268
C        6.55250607      10.89024086       9.63009786       0.00322393      -0.00183480       0.00347679
C        6.14881690       9.09148637      11.27904977       0.01304056      -0.00120783       0.00519605
C        7.87761514      10.79756249      11.64585574      -0.00117975       0.00243187       0.00724617
H        5.49720834      11.16798090       9.60998278       0.00317791      -0.00340959       0.00367833
H        6.74602075      10.19632191       8.80926507       0.00346457      -0.00382385       0.00503682
H        7.16958676      11.77520497       9.50685600       0.00194493      -0.00094029      -0.00040558
H        5.07809911       9.30558879      11.31501461       0.01191181      -0.00764278       0.00297933
H        6.47415034       8.76361701      12.26468608       0.01366559       0.00179060       0.00557104
H        6.30408171       8.28542647      10.55598831       0.01904183      -0.00104722       0.00598791
H        8.05759046      10.23090867      12.57165902       0.00489409       0.01134568       0.00425756
O       12.39329040       8.25812252       8.33802455      -0.00260955       0.00903249      -0.00312114
N       10.77412383       9.83409553       8.64280434      -0.00518610       0.00301372      -0.00311141
C       10.17372168       9.17072794       9.78439798      -0.00746027      -0.00119488      -0.00740784
C       10.17275202      11.08272067       8.21741074      -0.00419954       0.00331834      -0.00031200
C       11.81244185       9.28662480       7.98914107       0.00096714       0.00405192       0.00085030
H        9.12057883       8.96808208       9.57939157      -0.00728348       0.00098769      -0.01051212
H       10.26185139       9.80344163      10.66983802      -0.00821342      -0.00495940      -0.00487450
H       10.67574918       8.21801826       9.93598037      -0.00922100      -0.00210401      -0.00980861
H        9.15478625      10.91062682       7.85234276      -0.00394556       0.00384543      -0.00121579
H       10.75595908      11.53810626       7.42151775      -0.00441161       0.00547542       0.00093803
H       10.11618989      11.76786195       9.06547124      -0.00462358       0.00122936       0.00115842
H       12.13868496       9.86861930       7.11468529       0.00212508       0.01124233       0.00324929
O        8.67689579       6.82767052       7.98825267      -0.00034565       0.00221902       0.00122660
N        9.92383199       6.52507535       6.09377461       0.00036788      -0.00287824       0.00376195
C        9.87292847       7.90685294       5.67955287       0.00476794      -0.00310650       0.00207502
C       10.60842942       5.60765358       5.21236253       0.00223611      -0.00500855       0.00814813
C        9.31302172       6.11498531       7.22280221      -0.00215304       0.00114924       0.00443178
H        9.28827354       8.00234883       4.76041298       0.01281387      -0.00423129      -0.00280729
H       10.88118842       8.27794558       5.48899607       0.00655729      -0.00424829       0.01039759
H        9.41453423       8.49437713       6.46963476      -0.00101538      -0.00187177      -0.00262365
H       10.15485668       5.62982233       4.21639470       0.00630906      -0.00541308       0.00644588
H       10.53866349       4.59586172       5.60505660      -0.00073514      -0.00434074       0.00921872
H       11.66305083       5.87590065       5.11493662       0.00278321      -0.00635117       0.01208612
H        9.44361303       5.03319825       7.39219905      -0.00462105       0.00028014       0.00524605
O        6.65482675       8.50180576       2.30283183       0.00956255       0.00065112       0.01278663
N        6.92506015      10.69848147       2.90458510       0.00204974       0.00026155       0.00310899
C        5.90883407      11.24042886       2.02458686      -0.00686304      -0.00795305       0.00852631
C        7.72371761      11.65156455       3.64537583       0.00192223       0.00409402      -0.00422348
C        7.20950865       9.38912512       2.94289666       0.00468023      -0.00425637       0.00004774
H        6.35338821      11.95454400       1.32993584      -0.01521704      -0.00475830       0.00653359
H        5.16118949      11.78012380       2.60866936      -0.00645925      -0.01241848       0.01349851
H        5.43057316      10.42827698       1.48496972      -0.00441484      -0.01028410       0.01149806
H        8.39710820      12.18979567       2.97529480      -0.00350863       0.00444154      -0.00911659
H        8.32252764      11.12812233       4.38900031       0.00773071       0.00848839      -0.00621429
H        7.06423219      12.35624395       4.15628854       0.00216144       0.00301519      -0.00301823
H        8.02829559       9.17574332       3.64866599       0.01459402       0.00605248      -0.00198871
O        2.79025344       4.92688646       3.50776260      -0.01447868       0.00393466      -0.00076568
N        4.08639228       5.47451262       1.70019975      -0.00383197      -0.00022453      -0.00004625
C        3.02095398       6.11750386       0.95789476      -0.00003067      -0.00145973      -0.00600693
C        5.42238551       5.53404284       1.13490652      -0.00071767       0.00006431       0.00333021
C        3.85880569       4.93038805       2.90706905       0.00222391       0.00300930      -0.00536305
H        2.98085219       5.70396639      -0.05186390       0.00315164       0.00154132      -0.00710472
H        3.19328942       7.19600469       0.88895899      -0.00228183      -0.00152019      -0.00481337
H        2.08223085       5.92429616       1.47168086      -0.00232142      -0.00333727      -0.00979406
H        5.37422639       5.28496621       0.07505609       0.00245162      -0.00050530       0.00320095
H        6.05259985       4.79888947       1.63267205      -0.00258213       0.00023066       0.00541575
H        5.84957770       6.53117884       1.26299623      -0.00091293      -0.00015050       0.00392552
H        4.77090602       4.46482166       3.32250558      -0.00815827       0.00457188       0.00272509
O        5.23497801       4.74229051      10.13796376      -0.00023949      -0.00069159       0.00262743
N        6.55297013       2.90483833       9.82846050       0.00485220       0.00267339      -0.00025615
C        5.45006428       1.97286898       9.87620804       0.00808442      -0.00058934       0.00214940
C        7.88675689       2.35865948       9.68700825       0.00603810       0.00654451      -0.00347361
C        6.33068509       4.22345137       9.95555027       0.00268728       0.00153887       0.00000529
H        5.53614029       1.33068131      10.75569761       0.01142691       0.00029206       0.00226432
H        5.45027659       1.35351767       8.97653870       0.00841612      -0.00099000       0.00260562
H        4.52402872       2.53887085       9.92016379       0.00638488      -0.00350009       0.00323158
H        8.09493798       1.63866603      10.48058225       0.00860952       0.00554490      -0.00526643
H        8.61315781       3.16762508       9.73489006       0.00397554       0.00811478      -0.00290086
H        7.99538396       1.85166853       8.72277460       0.00589735       0.00864975      -0.00452265
H        7.25839619       4.81608628       9.87284858      -0.00047046       0.00427580      -0.00185895
O       11.60923388       4.67526341       0.99026411       0.00814152      -0.00793457       0.00259380
N       10.13450881       6.41753681       0.79904911      -0.00022382      -0.00288937      -0.00429047
C        8.94036931       5.60691605       0.86149186       0.00203617      -0.00422810      -0.00470600
C        9.94384994       7.84908918       0.78933431      -0.00760471      -0.00114825      -0.00803668
C       11.36138414       5.86360018       0.87202577      -0.00215393       0.02425230      -0.00311126
H        8.30479840       5.81933720      -0.00188394       0.00210278      -0.00848182      -0.00500840
H        8.36870702       5.84998191       1.76166063       0.00078394      -0.00732077      -0.00544685
H        9.22253629       4.55795060       0.86319553       0.00705877      -0.00454623      -0.00403796
H        9.26468021       8.13521530      -0.01544948      -0.00719252      -0.00643763      -0.01085809
H       10.88663892       8.36795750       0.64107555      -0.01050842       0.00366384      -0.00707571
H        9.50886099       8.19297786       1.72959839      -0.01299188      -0.00120386      -0.01058665
H       12.15525818       6.63082607       0.81310030      -0.00394946       0.00748456      -0.00113799
O       10.51301764       1.17727999       5.94169546      -0.00969028       0.01208287       0.00323319
N        9.77723115       2.35107587       4.11920702      -0.00299852       0.00021874      -0.00220770
C       11.09680858       2.57372368       3.55580910      -0.00174461      -0.00607095      -0.00169490
C        8.64929581       2.79846889       3.33316425      -0.00094533       0.00111795      -0.00269719
C        9.61727231       1.65592898       5.26003953       0.00004447       0.00509292       0.00597757
H       11.21877871       3.62417845       3.29026637       0.00048761      -0.00745252      -0.00642090
H       11.21113412       1.98178124       2.64704139      -0.00260038      -0.01045379       0.00088856
H       11.84027765       2.28415911       4.29406592      -0.00300829      -0.00419382      -0.00050083
H        8.66649644       3.88515357       3.22419224       0.00124420       0.00059861      -0.00371886
H        7.72044143       2.51320815       3.82327093      -0.00175290       0.00308277      -0.00332342
H        8.67602966       2.34964040       2.33698008      -0.00119410       0.00005916      -0.00196531
H        8.55190617       1.55886055       5.53942828      -0.00543028       0.01120549       0.00264838
