146
Lattice="12.795718445801729 0.0 0.0 0.0 12.795718445801729 0.0 0.0 0.0 12.795718445801729" Properties=species:S:1:pos:R:3:forces:R:3 energy=-1040928.5 stress="-7.565148553112522e-05 -0.0006163241341710091 -0.00015623803483322263 -0.0006163241341710091 0.0010291512589901686 0.00036902670399285853 -0.00015623803483322263 0.00036902670399285853 0.0008114074589684606" pbc="T T T"
Re      11.57167195      11.87049130       0.85199360       0.00420991      -0.00282525      -0.00813764
Br      -1.12189835       3.45850272       2.84830233      -0.00069240       0.00540493      -0.00447866
Br       9.70753125       9.95366654       6.93653230       0.00198313      -0.01872643      -0.00186871
Br       7.59600106      10.73618529       5.42366164       0.00208160      -0.01667957       0.00179923
Br       3.25712384       5.58351835       5.51824929      -0.00074384       0.00327125       0.00425774
Br       1.08514747      12.58756578       6.83700423       0.00829649       0.00023158       0.00298747
Br      11.57209544       8.97272601       8.18806217       0.00890593      -0.00136057       0.00313261
Br      10.05201781       6.60683743      11.42162944      -0.00002564      -0.00610295       0.00013720
O        7.56752577       3.09832871       6.44940528       0.00177842      -0.00400829       0.00157345
C        6.21844140       3.46353494       6.22491544       0.00233138       0.00031722       0.00395717
H        6.05218876       3.77321999       5.18855472       0.00106936      -0.00073898       0.00377333
H        5.88664992       4.28407623       6.86879555       0.00680266       0.00254238       0.00346255
H        5.59346535       2.59509369       6.43548200      -0.00034982       0.00287431       0.00677249
H        8.11970442       3.89141650       6.24530521       0.00326282      -0.00520178       0.00154486
O        1.99465725       8.11228435       9.69831517       0.00187269       0.00275243       0.00687301
C        2.36818402       8.58098256       8.40399401       0.00258756       0.00270092       0.00717130
H        3.37547550       8.99148621       8.48644165       0.00221291       0.00376767       0.00796827
H        1.69193821       9.36542429       8.05468558       0.00227088       0.00206304       0.00604299
H        2.38480956       7.76787646       7.67183247       0.00401391       0.00244707       0.00725260
H        1.19682044       7.54121992       9.61629350       0.00396974      -0.00041062       0.00745641
O        4.85691812       2.62869566       2.89787238      -0.00301743      -0.00044897       0.00509198
C        5.78621318       1.55004413       2.82504331      -0.00500202      -0.00230512       0.00588538
H        5.28012181       0.58137093       2.83730640      -0.00692049      -0.00140166       0.00356067
H        6.45881740       1.61447090       3.67891079      -0.00670756      -0.00465608       0.00750646
H        6.36828181       1.63745900       1.90679600      -0.00262199      -0.00238261       0.00728312
H        4.02847240       2.64098440       3.90564647      -0.00370466       0.00161861       0.00567347
O        8.77307226       9.27095911      11.74063457      -0.00858361      -0.00806391      -0.00974999
C        9.50921380      10.34636218      11.10036102      -0.00680017      -0.00831582      -0.00799489
H       10.09250387      10.88759570      11.87262538      -0.01067141      -0.00647488      -0.00667755
H        8.79281139      11.01296137      10.63032414      -0.00555879      -0.01000141      -0.01234769
H       10.16571350       9.91358865      10.34975905      -0.00243011      -0.00830488      -0.00425228
H        9.23012547       8.32066564      11.59661170      -0.00676173      -0.00606999      -0.00834565
O       10.32434038       8.34979590       2.60105475      -0.01934117       0.00487113       0.00498480
C        9.31521783       7.38453909       2.90222118      -0.00778043      -0.00608781       0.01097967
H        9.68908388       6.61419139       3.57774547       0.00737019      -0.00595683       0.00244462
H        8.94213897       6.91036142       1.98963843      -0.01354088      -0.00356871       0.01211196
H        8.49471485       7.90994850       3.38962696      -0.00675532      -0.01551881       0.02284899
H       11.16983295       7.86010770       2.56662270      -0.01586685       0.01225512      -0.01499062
O        3.59036115       2.91317890       0.76944849       0.00134748       0.00054696       0.00226985
C        3.88052337       4.19974127       0.20565036       0.00290661       0.00030485       0.00266497
H        3.28519202       4.98400155       0.67489983       0.00579548       0.00150660       0.00459862
H        3.69842917       4.20775921      -0.86665673       0.00045167       0.00159309       0.00302106
H        4.93023591       4.41901937       0.39059011       0.00396675      -0.00230657       0.00009067
H        4.31707312       2.71747646       2.02023601      -0.00163613       0.00036707       0.00444628
O       10.96564178       0.68798109       0.42345829       0.00081673       0.00093085      -0.00944483
C       10.12265190       1.78753373       0.05265023       0.00083670      -0.00116283      -0.00983314
H       10.37966762       2.60975164       0.72291890      -0.00507690      -0.00294960      -0.00533673
H        9.09103956       1.47438139       0.20927848       0.00047442      -0.00450099      -0.01791853
H       10.29677732       2.02548633      -0.99307717       0.00660644       0.00345328      -0.00794807
H       13.17582381       2.91820583       1.40262345       0.00248370       0.00162414      -0.00136045
O       10.70192649      11.41024594       2.40843168       0.01095968       0.00251342      -0.00375469
C       11.16969231      11.41855277       3.77955241       0.00866514       0.00970056      -0.00319371
H       11.75565372      10.51851960       3.96131778       0.00546573       0.00909528       0.00363701
H       10.28301835      11.40582768       4.41080877       0.00765309       0.01625851      -0.00456992
H       11.76059918      12.31381006       3.96690581       0.01114494       0.00876775      -0.00784080
H        9.24075273       9.66041626       1.86703688       0.00080574      -0.04465372      -0.00970897
O        4.44091596       6.65400940       2.67077045      -0.00852460       0.00815344       0.00357810
C        5.69147523       7.20533069       3.04094493      -0.00262040      -0.00263745       0.00025012
H        6.25411479       7.40600406       2.12971083      -0.00992322       0.00696800      -0.00218189
H        6.27299188       6.52224415       3.66531025      -0.00071537      -0.01371717      -0.01381433
H        5.58318616       8.14905577       3.59186482       0.00632264      -0.00973740       0.01408079
H        4.05822533       6.24977407       3.47490972      -0.00644591       0.00549503       0.00332084
O        7.81426500       2.23263140       9.05306856       0.00324410      -0.00247633       0.00295109
C        7.62392954       3.40212187       9.81594387       0.00133502      -0.00237095       0.00234675
H        8.53601473       4.00257533       9.92007227       0.00171238      -0.00412673       0.00790697
H        7.29739105       3.10289195      10.81505700      -0.00452556      -0.00202382       0.00066346
H        6.84417934       4.04848232       9.39617729       0.00480223      -0.00075048      -0.00142810
H        7.81936787       2.48947733       8.10943090       0.00317787      -0.00313019       0.00274795
O        2.46446969       9.78048716       1.13020034       0.01816732       0.00016400       0.00669363
C        3.42227526       9.24083230       0.21137428      -0.01118039      -0.00205364       0.00553754
H        3.95504527       8.45257993       0.73794176      -0.00695169      -0.00785914       0.01028344
H        4.12700614      10.01287278      -0.10760870       0.00119013      -0.01435548      -0.00764782
H        2.93047833       8.81972200      -0.66670827      -0.01186487      -0.01084872       0.00902221
H        2.32946930       9.89554104       2.77076146      -0.00212748       0.00327259       0.00347114
O        0.99810539       2.72641607      13.44441332       0.00179080       0.00031534      -0.00148621
C        0.46308653       3.33633139      12.27020071       0.00214189       0.00194757      -0.00105986
H        0.20425459       2.57296575      11.53486841       0.00506011       0.00282905      -0.00310108
H        1.20776059       3.99734142      11.82134518       0.00077146       0.00518566       0.00123101
H       -0.41653704       3.93309589      12.52083307       0.00021675      -0.00103556      -0.00068787
H        2.59712518       2.79761450      13.57225099       0.00112255       0.00090129       0.00048866
O        7.53336294       7.46063679       6.35697380      -0.02591637      -0.00893149      -0.03522199
C        6.55505908       7.44216882       7.38365929      -0.00051636       0.00425970      -0.01075053
H        5.54658211       7.43453113       6.96069568      -0.01064646       0.01630131       0.01371080
H        6.66717041       8.29549552       8.05631742       0.02740975       0.00317201      -0.01451817
H        6.69463099       6.52776118       7.95984700       0.00176059       0.00319910      -0.01281995
H        7.68982455       8.37839304       6.08556149      -0.02550074      -0.01035809      -0.04156944
O        1.36248668       1.78450099       9.44107507       0.00208235       0.02038582      -0.01105177
C        2.72326612       1.62569542       9.77588550      -0.00273937       0.00406654       0.00107560
H        3.34202793       1.45209349       8.89039352       0.00491405       0.01159155       0.00497872
H        2.88443199       0.79581175      10.47527240      -0.01680946      -0.00698429      -0.00902492
H        3.06412577       2.54337689      10.25782408      -0.00058358      -0.00544292       0.01742785
H        1.17183341       1.18748029       8.69741052       0.00086457       0.02000433      -0.01052584
O        2.13362766      10.03246022       3.72686669      -0.00200976       0.00506194       0.00219166
C        2.36884409       8.81516534       4.46677201      -0.00940982       0.00457723       0.00522023
H        1.42182565       8.41732697       4.82513081      -0.01309207       0.00375477      -0.00576031
H        3.01499094       9.03386460       5.31631711      -0.01971965       0.00535147       0.01240760
H        2.85889086       8.08283250       3.83089314      -0.00129010       0.00546303       0.01046544
H        2.63104882      11.17786573       4.26570968       0.00372636       0.00245664       0.00123909
O        0.02585781       6.33066896       9.70952028       0.01163836      -0.00767606       0.02689645
C        0.06757461       5.08655036       9.02076294      -0.00376869       0.00232768       0.00771570
H       -0.92419428       4.63619065       8.97648391      -0.00720504       0.00935037       0.01332217
H        0.73918834       4.38634909       9.51930973      -0.00284156      -0.00833294      -0.00881219
H        0.42778819       5.24270208       8.00165449      -0.01416765       0.01272886       0.00538516
H       -0.84917491       6.45817259      10.12460376       0.00715630       0.00224741       0.01502475
O        8.43014187       9.77785672       1.32441130       0.00177819      -0.01897654      -0.00960150
C        7.76158942      11.01535210       1.57900233       0.01914404      -0.01321751       0.00569153
H        6.75806132      10.92238616       1.16584225       0.01451036       0.00374985       0.01230022
H        8.27914149      11.85053367       1.09948472       0.02671213      -0.01570579       0.00905232
H        7.69974400      11.18933537       2.65333058       0.02946429      -0.02114071       0.00750923
H        8.64728160       9.46594000      -0.01721164      -0.00681575      -0.00962244      -0.00659934
O        3.00392362      12.08515490       4.70899884       0.00754325       0.00206925       0.00083400
C        4.26983337      11.82872950       5.36086897       0.00753179      -0.00216245      -0.00014773
H        4.88982064      11.23670488       4.69361417       0.00511424      -0.00309731      -0.00159286
H        4.10639269      11.29807210       6.29758606       0.00687622      -0.00285655      -0.00070676
H        4.74911382      12.78344138       5.55591984       0.01045731      -0.00388342       0.00059250
H        2.27378753      12.35034699       5.47918200       0.00859824       0.00262280       0.00177997
O        8.99756665       5.27648210       5.97126382      -0.00073457      -0.00064759       0.00053734
C       10.20369281       5.25186590       6.72577767       0.00092533       0.01147110      -0.00190678
H       10.56931746       4.22639422       6.71723760       0.01001908       0.01457959      -0.00110571
H       10.03846581       5.56932200       7.75870081       0.00032887       0.01146665      -0.00206631
H       10.96619278       5.89501389       6.28049324      -0.00489673       0.01711947      -0.00398210
H        8.54374736       6.13544498       6.11006268      -0.00562772      -0.00158468      -0.00763669
O       -0.34564787       6.58694905       2.86318250      -0.01253217       0.00966693      -0.02969819
C        0.87612104       6.38464288       2.17339574      -0.00082219       0.00832476      -0.00859475
H        1.55418431       5.74803128       2.74888372      -0.01066855       0.00986066       0.00462052
H        1.35849199       7.35331862       2.04275769       0.00175475       0.00789607      -0.00285330
H        0.71008122       5.93361746       1.18939905       0.01601708       0.00587922      -0.01041383
H       -0.74086991       5.69238211       2.97279922      -0.01132590       0.00932208      -0.02859040
O        3.28618838       2.68776124       4.73168275      -0.00280352       0.00300044       0.00583513
C        1.94297248       2.47030736       4.19650916      -0.00355026       0.00237757       0.00765813
H        2.01653170       1.68629061       3.44771088      -0.00378857       0.00397226       0.00585887
H        1.56567161       3.38860402       3.75751458      -0.00530533       0.00281540       0.01007399
H        1.30569507       2.14552316       5.01268269      -0.00177988      -0.00008380       0.00824496
H        3.31721894       3.65933722       5.09042653      -0.00218665       0.00325397       0.00520717
O       12.50351959      10.39740060       0.37300508       0.00052613       0.00119585      -0.01043695
C       12.46340286       9.07545388      -0.22161815       0.00453856       0.00023732      -0.01229122
H       12.84556385       9.13388315      -1.23919978      -0.00591387       0.00446261      -0.01602593
H       11.43805788       8.71463332      -0.21657245       0.00674349      -0.00698248      -0.00267618
H       13.07456538       8.42037293       0.39257745       0.01547106       0.00341417      -0.01935786
H       14.61142256      10.32110788       0.66861597      -0.00524343       0.01650113      -0.00731251
O        3.74223968       6.13778187      10.43419851       0.00837997       0.00608510       0.00595689
C        3.92879392       5.41422248       9.23310541      -0.00043303      -0.00198489       0.00922590
H        2.99367082       5.01377514       8.82742485      -0.00349718      -0.00453892       0.01855229
H        4.59267468       4.57450432       9.44627906       0.00080711      -0.00082779       0.01033561
H        4.38642743       6.02059112       8.44648072      -0.00562280      -0.00743061       0.00195974
H        3.12599140       6.87138265      10.23427458       0.00598317       0.00412227       0.00608952
