143
Lattice="14.219996993182614 0.0 0.0 0.0 14.219996993182614 0.0 0.0 0.0 14.219996993182614" Properties=species:S:1:pos:R:3:forces:R:3 energy=-581444.5625 stress="0.0002917644160334021 -0.000301056046737358 8.949548282544129e-05 -0.000301056046737358 0.0006356083904393017 -0.00024030003987718374 8.949548282544129e-05 -0.00024030003987718374 0.0007682778523303568" pbc="T T T"
Re      12.81214095      13.74539525      -1.23947938      -0.00169085      -0.00598665      -0.01424661
F        7.88241485       2.69321522      13.11750093       0.00699529       0.00243686       0.00787815
F       14.37905774      12.84992043      13.14356283      -0.00531816      -0.00916582       0.00346475
F       11.59207448       8.74211431       7.48170650       0.01762697      -0.00340652      -0.00008845
F       11.03669878      13.81255588      -1.48628640       0.00062680      -0.00509266      -0.03217867
F        4.53746997       8.49562833       3.49729279      -0.02087940      -0.03064731      -0.03296514
F        8.90064282       1.31437381      12.82985493       0.00254770       0.00048001      -0.00023054
F       12.56094657      10.16192347       0.00192312      -0.00098111      -0.00319365      -0.00414884
O       11.00801171       3.17441173       4.26422615       0.00472319      -0.00481305       0.00323722
O       10.86204752       2.40705168       2.24837551       0.01141560      -0.01000168       0.00325507
O        8.99519332       2.42893053       3.53037506       0.01677227       0.00473166      -0.00724199
C       10.42725454       3.41295561       5.56657166      -0.00343961       0.00199333      -0.00030172
C       11.44184398       4.18776662       6.36694066      -0.00454170       0.00247535       0.00144103
C       10.16862857       2.64654490       3.36223546      -0.01033938      -0.00650169       0.00265325
C       10.07104654       1.89164348       1.15966677       0.01175413      -0.00931183       0.00145680
H        9.49413317       3.96338377       5.44234344      -0.00054640       0.00395617      -0.00807379
H       10.20051996       2.45026100       6.02521709      -0.00790529       0.00453007       0.00215751
H       11.07348666       4.33403030       7.38216809      -0.01062568       0.00880495      -0.00127375
H       12.38461218       3.64281640       6.42360514      -0.00697902      -0.00056569       0.01017860
H       11.62973784       5.16555109       5.92534389       0.00122362      -0.00028983      -0.00218184
H        9.67317907       0.91066636       1.41177195       0.00510621      -0.00565553       0.00322343
H       10.74601117       1.81450142       0.31618859       0.01684412      -0.01625797       0.00560871
H        9.25240659       2.56428289       0.91718637       0.01776651      -0.00499400      -0.00499497
O       12.09333461      10.42026492       2.18249353       0.00236426      -0.00770943      -0.00263849
O       12.28841349       8.41284634       1.38835037      -0.00432335      -0.00591722      -0.00786269
O       14.17386601       9.75872035       1.37141705       0.00011575      -0.01240490      -0.00917403
C       12.38667241      11.82980947       2.17720527       0.00981718      -0.00820974       0.00586493
C       11.29948054      12.52268803       2.95783398       0.00676200      -0.00793253       0.00195247
C       12.78661555       9.67179427       1.29099918      -0.00152709      -0.00633147      -0.00580895
C       12.82723093       7.47804785       0.44755967      -0.00335636      -0.00672655      -0.00678901
H       13.37501336      11.99519031       2.61346633       0.00691772      -0.01562308       0.01464164
H       12.40514382      12.18688186       1.14160274       0.01924639      -0.00343248       0.00766289
H       11.45104705      13.60274840       2.91253410       0.00913882      -0.00802562       0.00618266
H       10.32379319      12.29596376       2.52791457       0.00883605      -0.00482657      -0.00434107
H       11.30222060      12.20874289       4.00115292       0.00063642      -0.01099242       0.00118160
H       12.43299035       7.67777868      -0.54874014       0.00586076      -0.00107999      -0.00939789
H       12.50147755       6.49686532       0.77154087      -0.01262268      -0.00559968      -0.01200087
H       13.91714688       7.53152739       0.42405258      -0.00267899      -0.01411521       0.00229582
O        1.59394542       5.76055769      11.20907134      -0.00200029       0.00618675      -0.00332639
O        0.65635437       6.16162529       9.29963473      -0.00545307       0.00602057      -0.00122270
O        2.11622962       7.68197099      10.12494954       0.00421911       0.00783789      -0.00809677
C        2.50883223       6.13783953      12.26733179       0.00069641       0.00464004      -0.00548506
C        2.52784779       5.01698415      13.27341239       0.00017250       0.00726244      -0.00269821
C        1.51576763       6.64070043      10.20250744      -0.00592029      -0.00222617      -0.00413989
C        0.47340870       7.00255028       8.14337434      -0.00654228       0.00332824      -0.00285932
H        3.49202934       6.31356034      11.82932044       0.00067163       0.00148753      -0.00766489
H        2.16691977       7.07740099      12.70469387       0.00408737       0.00698286      -0.00658943
H        3.22623264       5.24763896      14.07936471       0.00187556       0.00721423      -0.00433005
H        1.53771797       4.86537555      13.70506682       0.00045101       0.01022018      -0.00065238
H        2.84821798       4.08580633      12.80552398      -0.00276331       0.00520919      -0.00121008
H        0.21573942       8.01557881       8.43507955      -0.00062896       0.00573111      -0.00454682
H       -0.34618509       6.56134573       7.58780246      -0.01089364       0.00652438       0.00127651
H        1.38585529       7.01334432       7.54760688      -0.00841242      -0.00264338      -0.00650400
O        5.42536645       2.68852972       2.52649170       0.00401150       0.00334889       0.00389147
O        4.82807171       4.07436105       4.06933102       0.00145309       0.00866231      -0.00099993
O        4.97781694       4.83094295       1.93933447      -0.01968315      -0.00551748      -0.00740516
C        5.84122269       2.40562646       1.16663150       0.00171776       0.00221938       0.00322137
C        6.40563241       1.01176954       1.16957829       0.00545701       0.00345606       0.00239355
C        5.07208908       3.94665782       2.75683824      -0.00602490       0.00172442      -0.00250089
C        4.51066983       5.40992950       4.47913552      -0.00564875       0.00870366      -0.00647730
H        4.97589687       2.50968814       0.50731716       0.00038922       0.00000671       0.00449643
H        6.58601254       3.13783126       0.86004329      -0.00022918       0.00370628       0.00121696
H        6.78202892       0.77217857       0.17532861       0.00494241       0.00474517       0.00179341
H        7.22922634       0.94914165       1.87979154       0.00668238       0.00562859       0.00139116
H        5.64692730       0.28716861       1.46556584       0.00769757       0.00139596       0.00322218
H        5.35378040       6.07490958       4.30433024      -0.01008341       0.01289913      -0.01283125
H        4.29296560       5.33674009       5.54093026      -0.00164607       0.01293720      -0.00530773
H        3.64986284       5.78917412       3.93166544      -0.00907087       0.00121617      -0.00643700
O        6.89954196       8.82970169       8.47921017       0.00226641       0.00062692      -0.00055104
O        4.82170445       9.05685064       7.92974880       0.00209603      -0.00507805      -0.00368321
O        6.15877697      10.88353293       7.87401298      -0.00310668      -0.00079966       0.00176135
C        8.23094599       9.37693232       8.69225416       0.00155306       0.00362533      -0.00233439
C        9.03849022       8.30390388       9.36757756       0.00533718       0.00530976      -0.00403428
C        5.98783557       9.70756639       8.07264636       0.00065708      -0.00132620      -0.00092456
C        3.73485047       9.89427987       7.51979398      -0.00064117      -0.00612798       0.00125310
H        8.65971946       9.66645040       7.73489860      -0.00073919       0.00472277      -0.00310433
H        8.13744210      10.27464658       9.30286936       0.00080092       0.00338298      -0.00212315
H       10.06755152       8.64490335       9.47136228       0.00509840       0.00728116      -0.00633770
H        8.61860167       8.06057371      10.34494316       0.00813530       0.00486215      -0.00278059
H        9.05650540       7.39932666       8.76050452       0.00580241       0.00503051      -0.00371303
H        3.62318181      10.73593882       8.20142942       0.00138665      -0.00596726       0.00139144
H        2.85398823       9.26128850       7.55845763      -0.00007302      -0.00689721       0.00620438
H        3.90264298      10.26785449       6.51059762      -0.00530116      -0.00637162       0.00029349
O       11.91106354       0.73316825       7.16289018       0.00012623       0.00134216       0.00194031
O       10.36226841       0.94153955       8.65488502      -0.00312185       0.00782558      -0.00279638
O       12.46922091       0.47751288       9.33650529      -0.00643891      -0.00357267       0.00484055
C       13.29327781       0.48748237       6.81783951      -0.00059789      -0.00555205       0.00468504
C       13.38767461       0.50984661       5.31608840       0.00238609      -0.00557674       0.00474161
C       11.65035523       0.69209563       8.47049974      -0.00550699       0.00195074      -0.00038868
C        9.93619711       0.92598527      10.04159506      -0.00870304       0.00591911      -0.00431554
H       13.90418614       1.26549281       7.28176964       0.00258547      -0.00873333       0.00619623
H       13.58758601      -0.47720210       7.23094101      -0.00629003      -0.00742823       0.00482163
H       14.43084297       0.40624861       5.01597466       0.00239325      -0.01035058       0.00638425
H       12.82626645      -0.31888813       4.89144886      -0.00085659      -0.00292453       0.00368183
H       12.99825512       1.44300967       4.90795035       0.00714421      -0.00359440       0.00443006
H       10.11678678      -0.05757892      10.46523227      -0.02325234       0.00081643      -0.00946707
H        8.87575121       1.14234656      10.02194404      -0.00574312       0.02019563      -0.00722235
H       10.46454891       1.68335605      10.61303707      -0.00027952      -0.00440821       0.00199232
O       11.87680560       3.05327487      12.31387767       0.00551461      -0.00756657      -0.00190905
O       10.21600243       4.43070980      12.23130535       0.00370494      -0.01075150      -0.00642921
O       11.63481194       4.55815925      13.98832070      -0.00186938      -0.00797427       0.00232172
C       13.12605871       2.63485795      12.89718969       0.00466853      -0.00518817       0.00074825
C       13.50665247       1.33168282      12.23985277       0.01083115      -0.00335088       0.00082484
C       11.26905946       4.06546695      12.94816284      -0.00077686      -0.01170245      -0.00843823
C        9.37250645       5.39874854      12.86917754      -0.00060536      -0.01220217      -0.00973381
H       13.87362418       3.40507561      12.68677627       0.00362295      -0.00306320       0.00401565
H       13.01584446       2.55117141      13.97889447       0.00200401      -0.00642762       0.00086540
H       12.78418383       0.07599779      14.50951740      -0.01545695       0.00017888      -0.01659955
H       13.30121241       1.35756764      11.16995048       0.02401073       0.00155407      -0.00151968
H       14.58647627       1.17745454      12.36769130       0.00899935      -0.00518698       0.01437023
H        8.97304579       4.98888510      13.79411748      -0.00166562      -0.01230219      -0.01003402
H        8.56801376       5.58174030      12.16607213       0.00028664      -0.01488637      -0.01135209
H        9.93045895       6.31324794      13.07197771      -0.00312385      -0.01032087      -0.00951849
O       11.93905111      10.92927886       8.15840122      -0.00158215      -0.00349498       0.01118553
O       10.60254971      10.55978776       6.44561489       0.00062275      -0.00645411       0.01010370
O       12.85893433      10.16526706       6.18737822       0.00386810       0.01472537       0.00639176
C       13.13041110      10.65064337       8.85968640      -0.00061899       0.00194640       0.01180196
C       13.14560652      11.45258704      10.14599693      -0.00374864       0.00416520       0.01083159
C       11.87667008      10.18911539       6.94181623       0.00438583       0.00191396       0.00732565
C       10.24805471       9.83088822       5.29276691       0.00380892      -0.00610495       0.00871938
H       13.16794398       9.57914923       9.08345191       0.00353365       0.00235045       0.01405063
H       13.99727804      10.88296676       8.22822163      -0.00138474       0.00418243       0.01151067
H       14.04841248      11.22276298      10.71601321      -0.00387681       0.00690961       0.01235727
H       13.11992299      12.52379299       9.93082791      -0.00583424       0.00387302       0.00833978
H       12.27705396      11.19351158      10.75806799      -0.00391746       0.00318147       0.01018295
H       11.08196083       9.77165913       4.59002313       0.00481862      -0.00333424       0.00959602
H        9.41396756      10.35849980       4.82812791       0.00305101      -0.00761092       0.00807998
H        9.93373342       8.81555795       5.55437468       0.00589725      -0.00729579       0.00708443
O        1.61498591      10.28635320       2.78130388      -0.01524762       0.03038917      -0.00354639
O        2.93683542      11.70898195       1.83628049      -0.01638806       0.01657116      -0.01090939
O        3.22814270       9.51963467       1.37977942      -0.01302159       0.03306091       0.03263301
C        0.70494068       9.21720236       2.46546667      -0.00744218       0.01067442       0.00420299
C       -0.00603826       8.83010035       3.72606872      -0.00914189       0.01577881       0.00251740
C        2.64309140      10.42436862       1.94161502       0.00192705       0.00661051      -0.00526637
C        3.98808914      12.02284377       0.90646875       0.01026210       0.00099495       0.00266716
H        1.28793510       8.39103630       2.05141338       0.01110536       0.01308912       0.01818731
H        4.17117287       8.66939782       2.65252400      -0.03995419       0.02104518      -0.00589547
H        0.73885040       8.40369728       4.39898596      -0.01035927       0.02655495       0.01096853
H       -0.48543322       9.65860703       4.24401901      -0.01628712       0.01822212      -0.00629866
H       -0.75634738       8.07215682       3.51379559      -0.00220934       0.01146992       0.00358386
H        4.94104028      11.63158237       1.25585138      -0.00295731      -0.01385339       0.02562594
H        4.00888816      13.10552576       0.86443750       0.02617754      -0.00277030      -0.00700814
H        3.75289160      11.60519248      -0.07027572       0.02238458      -0.00929040       0.00250834
