150
Lattice="14.250651199537147 0.0 0.0 0.0 14.250651199537147 0.0 0.0 0.0 14.250651199537147" Properties=species:S:1:pos:R:3:forces:R:3 energy=-576857.8125 stress="0.0006053310353308916 2.315859831014677e-06 8.083366992650554e-05 2.315859831014677e-06 0.00031644743285141885 -0.00014740526967216283 8.083366992650554e-05 -0.00014740526967216283 0.0006074112607166171" pbc="T T T"
Re      12.42007306      13.27671904      -0.71861957      -0.01198906       0.00000310      -0.01273108
O        8.43989397       2.38764507      13.04969572      -0.00089070       0.00021507       0.00495443
H        8.87149457       2.86655169      12.32656992       0.00133589       0.00275882       0.00801486
O       12.84936222      13.00767321      11.74132827      -0.00607808       0.00804383      -0.01104462
H       13.00024553      13.61328126      10.97927640      -0.01101123       0.00638846      -0.01474695
O       11.72326142       8.19299033       7.85346186       0.01034918      -0.01621926       0.00096623
H       10.86500565       7.93616481       8.20487196       0.00055203       0.01744649      -0.00100878
O       10.70226141      13.92933337      -0.24096865      -0.01632065      -0.01320195      -0.01165700
H       10.07610031      13.18857265      -0.06501047      -0.01149329      -0.01723726      -0.01045149
O        5.85965092       9.66709873       4.06964388       0.00078857       0.00159401      -0.01874876
H        5.48782733       8.85211003       3.71347573      -0.00159115       0.00038290      -0.01279491
O        8.68043425       1.00636682      12.68582975      -0.01162371       0.00126893      -0.00623713
H        9.45273594       0.77863521      13.24273945      -0.01494110      -0.00948620      -0.00594798
O       13.18075938       8.51489120       1.03810018       0.01088993       0.01422271       0.01631555
H       12.64249528       8.76336001       1.79490922      -0.00037888       0.01132339       0.00905684
O       11.25938939       3.59779131       4.54832923       0.00295341      -0.00419950       0.00681124
O       10.43974722       2.78553488       2.71848168       0.00524953      -0.00465283       0.00593007
O        9.20880645       2.63752444       4.61520291      -0.00135279       0.00421399       0.00245816
C       11.12475483       3.87614009       5.95578535      -0.00030994      -0.00124687       0.00607387
C       12.38412170       4.59079308       6.37720774      -0.00158149       0.00073993       0.00698460
C       10.19840291       2.96977432       4.01481940       0.00216091      -0.00105894       0.00448480
C        9.34571223       2.19910910       1.99477511       0.00481928      -0.00189565       0.00356124
H       10.23468916       4.48953986       6.11107623      -0.00132090      -0.00183684       0.00303825
H       10.98704095       2.93695480       6.49156438      -0.00047095      -0.00030667       0.00781843
H       12.35327036       4.79503806       7.44983464      -0.00443769       0.00534801       0.00618364
H       13.26403092       3.97749725       6.17636125      -0.00063665       0.00030932       0.01242671
H       12.49465118       5.52987869       5.83049151       0.00020467      -0.00179231       0.00267543
H        9.16465059       1.18228521       2.34218008       0.00010145      -0.00065100       0.00486878
H        9.64837644       2.20715775       0.95424294       0.00784753      -0.00521505       0.00423285
H        8.44298542       2.79471784       2.12545855       0.00695899       0.00180927      -0.00008019
O       11.42102117      11.56161513       1.61982483       0.00561918      -0.00542630      -0.00889292
O        9.55213261      10.93130439       2.53265415       0.00970796      -0.00394358       0.00038072
O        9.51928748      11.62013727       0.38766936       0.00096932      -0.01461253      -0.00247476
C       12.23735109      11.56925971       0.43162664       0.00002635      -0.00232881      -0.01323846
C       13.56755901      12.10509244       0.60281714      -0.00056478       0.00212501      -0.02074957
C       10.10452030      11.38333862       1.42831765       0.00519934      -0.00840177      -0.00353438
C        8.11903391      10.66934249       2.42944653       0.00790855       0.00072917       0.00754640
H       13.80707261       9.23878763       0.95145599       0.02388304       0.00499821       0.03953224
H       12.04650951      10.66545835      -0.13948170       0.00155913      -0.00307269      -0.01248977
H       13.08451383      14.40151008       0.23228673      -0.02266634       0.00361094      -0.00915502
H       13.84490200      12.50598883       1.57358400       0.00499757       0.00192120      -0.02216118
H       14.39034548      11.54234241       0.16283174      -0.00277403       0.00384533      -0.02691121
H        7.59703024      11.58923304       2.17757302       0.00858733       0.00494376       0.02242705
H        7.77239624      10.28163508       3.38414113       0.01394424      -0.00889486       0.00548857
H        7.95789931       9.93027536       1.64847717      -0.00020241       0.01045272       0.00021942
O        1.87647497       5.70748741      11.28895057      -0.00009739       0.00683419       0.00295371
O        1.06615328       5.93004786       9.29838917       0.00772949       0.00513586       0.00320219
O        1.77183730       7.78587150      10.38867294      -0.01489684       0.01030266       0.00754549
C        2.53554109       6.25171939      12.46584262      -0.00468798       0.00589168       0.00597428
C        2.77191585       5.10726159      13.41320988       0.00157959       0.00594637       0.00365868
C        1.59440648       6.59203077      10.34168113      -0.00847550       0.00206232       0.00684822
C        0.79953830       6.75721360       8.16168492       0.00521442       0.00250246       0.00179419
H        3.46893297       6.71710629      12.14524889      -0.00793827       0.01329635       0.00688118
H        1.89895760       7.02414707      12.89817730      -0.00974232       0.00224286       0.00594108
H        3.32735187       5.45993423      14.28236706      -0.00196980       0.00708032       0.00526121
H        1.82572442       4.68080301      13.74807267       0.00319660      -0.00006456      -0.00023849
H        3.35927211       4.32482770      12.93289459       0.00636515       0.01175934       0.00097346
H        0.11107022       7.56092490       8.42584830      -0.00336570      -0.00324316      -0.00173639
H        0.35712032       6.09625953       7.42122029       0.01307764       0.00080441      -0.00142699
H        1.72494229       7.18845479       7.78037849       0.00348011       0.00978665       0.00492684
O        5.22017730       2.58573250       2.35465299       0.00179860       0.00460568      -0.00261417
O        5.18040838       4.33557987       3.62432837       0.00110917       0.00720522      -0.00624898
O        5.64412551       4.60602541       1.42343170       0.00301287       0.00246561      -0.00624633
C        5.35168991       1.98546632       1.04647143       0.00335528       0.00149482      -0.00125532
C        5.21747170       0.49538836       1.22189426       0.00255666       0.00191277       0.00247531
C        5.37630584       3.91231726       2.37414582       0.00226161       0.00486058      -0.00573015
C        5.34057584       5.75558468       3.80308674       0.00054343       0.00776088      -0.00943793
H        4.56920698       2.39195534       0.40141757       0.00442877       0.00018276      -0.00333658
H        6.31549999       2.26485711       0.61931709       0.00414622       0.00001118      -0.00057639
H        5.31555800       0.00936246       0.25082680       0.00397915      -0.00085800       0.00390394
H        5.99738804       0.11068768       1.87892366       0.00147048       0.00344367       0.00471605
H        4.24960919       0.23075890       1.64633155       0.00176008       0.00337760       0.00174914
H        6.35471010       6.05732443       3.54653425       0.00126314       0.00736615      -0.00694314
H        5.15159109       5.93217620       4.85762111      -0.00259139       0.01000263      -0.01032883
H        4.63179887       6.30310438       3.18389762       0.00214970       0.00618543      -0.01269150
O        6.79257546       8.89464461       8.63335692       0.00480302       0.00584286      -0.00808185
O        4.95932009       9.21922307       7.53028716       0.01661256       0.00305084      -0.02101707
O        6.52268597      10.86137727       7.54361799       0.01755309      -0.00422692      -0.01234707
C        8.07188361       9.37719556       9.07415813       0.00434065      -0.00006503       0.00020906
C        8.71323432       8.26895216       9.87044610      -0.00250931      -0.00306791       0.00314528
C        6.12296860       9.76831311       7.85771814       0.01241502       0.00278306      -0.01804060
C        4.19666670       9.97643553       6.57257913       0.01761656       0.00173289      -0.02301022
H        8.66506772       9.65702215       8.20196966       0.00791669      -0.00329226       0.00254574
H        7.92815650      10.27852552       9.67378749       0.00497637       0.00012285      -0.00031087
H        9.70047115       8.57912119      10.21905943      -0.00208557      -0.00570024       0.00501317
H        8.11080819       8.02023330      10.74372457      -0.00497989      -0.00008297       0.00239199
H        8.81172476       7.36364798       9.26665190      -0.00398265      -0.00380540       0.00406119
H        4.04743746      10.99574154       6.92892879       0.02196231       0.00321263      -0.02280888
H        3.24416661       9.45388422       6.50182918       0.01633817       0.00558424      -0.02006501
H        4.72897978       9.96711087       5.59858458       0.01171520       0.00364175      -0.03201777
O       12.22415963       0.72709878       7.26079108       0.00280702      -0.00674734       0.00105208
O       10.77034616       0.90793560       8.81661037      -0.00014177      -0.00708014      -0.00100332
O       12.85013735       0.17488312       9.36672168       0.00062607      -0.00162686       0.00231099
C       13.56964330       0.52788250       6.76119853       0.00392842      -0.00963064       0.00486392
C       13.48497096       0.61204983       5.25979487       0.00915075      -0.00735797       0.00476703
C       12.02211223       0.56940272       8.56279983       0.00017726      -0.00489324       0.00125802
C       10.34083627       0.84148317      10.18845714      -0.00194263      -0.00684235      -0.00112280
H       14.20923382       1.30434063       7.18808313       0.00496958      -0.01257595       0.00837310
H       13.93427438      -0.44318542       7.10014134      -0.00025379      -0.01159313       0.00444940
H       14.48341337       0.52118152       4.83200783       0.00996298      -0.01264171       0.00799290
H       12.86675311      -0.19448043       4.86631965       0.00579099      -0.00357109       0.00182548
H       13.05757364       1.56449620       4.94441547       0.01546697      -0.00463760       0.00440671
H       10.53604945      -0.14521230      10.60405232      -0.01008591      -0.00950778      -0.00357437
H        9.27358414       1.02324441      10.16635486      -0.00046873       0.00157689      -0.00143905
H       10.84071934       1.61186654      10.77574462       0.00339848      -0.01210034       0.00145757
O       11.61215561       3.50418069      12.53868772      -0.00216782       0.00864872       0.00152004
O        9.86984129       4.77242304      12.35129590      -0.00770479      -0.00075060       0.00274479
O       10.99697634       4.76203678      14.31992938      -0.00444688       0.00718457      -0.00655091
C       12.73663145       3.00783646      13.30989609       0.00088501       0.01161513       0.00272012
C       13.54608504       2.14676995      12.38068124       0.00558674       0.01771201       0.00177145
C       10.84882467       4.38456842      13.19059570      -0.00285098       0.00919464       0.01002014
C        8.93854163       5.69859435      12.94296318      -0.01424178      -0.00520465       0.00511712
H       13.30225423       3.86063171      13.68436692      -0.00438276       0.01363242       0.00513300
H       12.34935596       2.45161944      14.16621411       0.00129890       0.00838974       0.00081262
H       14.38381504       1.70074848      12.91685839       0.00494495       0.01746755       0.00396484
H       12.92809391       1.34326165      11.97217188       0.01060267       0.01697452      -0.00393861
H       13.93330742       2.72209589      11.54025571       0.00831988       0.02249551       0.00634253
H        8.40572646       5.22908022      13.76807115      -0.00942016      -0.00930366       0.00498959
H        8.25385984       5.96008101      12.14286792      -0.01637539      -0.01073552       0.00513169
H        9.46856064       6.57928008      13.30176365      -0.01909389      -0.00240409       0.00343694
O       11.94098200      11.10896519       8.28750027       0.00281274      -0.00874114       0.00529766
O       10.21900617      11.39424096       6.99439695       0.00285387      -0.00689542       0.00991702
O       12.26824492      11.24966766       6.02138314       0.00703844       0.00218116      -0.01124668
C       13.17906531      10.75754143       8.46437229      -0.00626087      -0.01050425       0.00160736
C       13.64472041      10.46262174       9.79727951       0.00416014      -0.00586587       0.00282592
C       11.50765643      11.26254606       6.93932367      -0.02715838      -0.00215799       0.02518821
C        9.54982592      11.44417139       5.69860296      -0.00777717       0.00022104       0.01332933
H       12.12525385       7.36537992       7.57438736      -0.03315364      -0.02624869      -0.02574263
H       13.78173456      10.66749402       7.56443001      -0.00591391      -0.01904602      -0.00045061
H       14.59773622       9.93311879       9.78084662       0.00679243       0.00071532       0.00159764
H       13.76357677      11.38655764      10.38268292      -0.00396879      -0.00325394      -0.00033134
H       12.88877281       9.89071762      10.34623870       0.00935143      -0.01018742       0.00447729
H        9.94149360      12.27659211       5.11824425      -0.01585501       0.00891931       0.01910439
H        8.49721531      11.55902341       5.93318728      -0.00878471      -0.00962188       0.01597635
H        9.73606655      10.51241801       5.16997988      -0.00219552       0.00638011       0.00338006
O        2.16023531      10.08113909       2.79764292      -0.01053675      -0.00492024      -0.00498466
O        3.71442518      10.75290159       1.45423606      -0.00946447      -0.00553198      -0.00467169
O        3.57398132       8.54024807       1.92593530      -0.00763455      -0.00466800      -0.00061248
C        1.54888234       9.02636140       3.57100893      -0.00521177      -0.00303844       0.00181994
C        0.50523807       9.67302070       4.44334839      -0.00488761      -0.00070575       0.00097832
C        3.19790851       9.67972846       2.05241409      -0.00859857      -0.00537622      -0.00383708
C        4.92800581      10.48085211       0.73900372      -0.00274689      -0.00334372       0.00503279
H        1.11775496       8.29278133       2.88643983      -0.00458032      -0.00840202       0.00716242
H        2.32899370       8.53228171       4.15315229      -0.00246421       0.00242525       0.00298351
H       -0.02070470       8.91293977       5.02404773      -0.00109845       0.00170727       0.00733441
H        0.96191349      10.38448629       5.13293870      -0.00446056       0.00489749      -0.00511962
H       -0.23324367      10.21150542       3.84879060      -0.00786765      -0.00615764      -0.00038876
H        5.62627138       9.98376745       1.41022888      -0.00330751       0.00966433       0.01562521
H        5.30986392      11.45076996       0.43358642      -0.00882069      -0.00330952      -0.00227597
H        4.72602240       9.85660179      -0.13118906       0.00801736      -0.01392210       0.01013729
