150
Lattice="11.924691789405681 0.0 0.0 0.0 11.924691789405681 0.0 0.0 0.0 11.924691789405681" Properties=species:S:1:pos:R:3:forces:R:3 energy=-611712.75 stress="-0.0009640339412726462 -2.7858544626724324e-06 -7.145713971112855e-05 -2.7858544626724324e-06 -0.0011483744019642472 -0.000739948998671025 -7.145713971112855e-05 -0.000739948998671025 -0.0005747774848714471" pbc="T T T"
Re      11.15116071      10.14828011       0.80835088      -0.00194103      -0.00021714       0.00648293
S        5.30031066       2.72215834       5.17458441       0.00548571      -0.00182292       0.00379716
N        2.59921227       3.46679399       4.83327671       0.03646109       0.02114652      -0.00857808
C        3.71213028       3.18235058       4.99713588      -0.01448298       0.02185766      -0.01017054
S        5.64029139       3.79713573       7.06092717       0.00714713       0.00518339      -0.00306198
N        8.42284373       4.04922350       6.49829346       0.00501353       0.01017242      -0.01437327
C        7.27919070       3.96706987       6.67926521       0.00492257       0.00896125      -0.00855751
S        3.39977877       8.52023146      -0.62223776      -0.00507945      -0.00881130       0.00347430
N        1.15451896       9.88239872       0.28252323      -0.00454673      -0.00914171       0.00435608
C        2.11659947       9.29528194      -0.10297432      -0.00509387      -0.00923377       0.00378248
S        7.00293023       7.43175455       7.12826429      -0.00791585       0.00861371       0.00853741
N        5.87170463       5.89986656       9.18649339      -0.00162542      -0.00312340       0.00309241
C        6.34779982       6.55823517       8.32523369      -0.00464720       0.00187161       0.00496413
S       -0.24398538      10.11274175       3.07114610       0.00492838       0.01559984       0.00791276
N        1.47938767      12.27200370       3.73505456       0.00856331       0.01857191      -0.01424884
C        0.75918290      11.39170602       3.47896451       0.00710201       0.01785281      -0.00573451
S       -0.05002071       3.51968112       7.60433393      -0.00234795      -0.00150689       0.00881219
N        0.12146873       3.81753019      10.39236768       0.00428306      -0.00514215       0.00902462
C        0.02565820       3.68880592       9.22592186       0.00174740      -0.00309994       0.00896430
S        8.17986652      11.95451569       0.60707019      -0.00150824       0.00003445       0.00705726
N        9.40517005       9.47164612       1.11136951       0.00033177       0.00307027       0.01718272
C        9.18465044      10.69724285       0.81075473      -0.00005603       0.00150204       0.00927668
N        3.92478484      10.90129747       2.06658400       0.00313098      -0.00692946      -0.00219055
H        4.18267937      10.70088811       1.10709493      -0.00296448      -0.00075557      -0.00493836
H        3.06870445      11.44038685       2.01110384       0.00992849       0.00442713       0.00591665
H        3.65292488      10.00615767       2.47660426      -0.00687613      -0.00718448      -0.00886849
N        9.75714293       0.72496407       8.38664542      -0.00512550      -0.00424793       0.00441441
H       10.17295105       1.52044556       7.91009782      -0.00214186       0.00057077       0.01497489
H        8.74197379       0.78308432       8.26387711      -0.00350627      -0.00638401      -0.00730878
H       10.06996068      -0.10884832       7.90410441       0.00301284       0.00130010       0.00051033
N        3.74789903       0.02509691      10.13868180       0.00427012      -0.00653815       0.00477776
H        4.68694260      -0.17223729      10.46791997       0.01041406       0.00740269      -0.00540338
H        3.86244733       0.40051981       9.20247621      -0.01221736      -0.00619975       0.00296886
H        3.30395056      -0.87837886      10.01241808       0.01533279      -0.01277909       0.01219194
N        2.77685684       7.94070753       3.03722010       0.01295263       0.01085092       0.00786120
H        1.90601069       7.65058157       2.60748457       0.01307476       0.00496763       0.01172800
H        2.85188179       7.44608142       3.92537995       0.01374033       0.02123225       0.01359206
H        3.52282266       7.60687554       2.43769220       0.01262033       0.00377448       0.01157442
N        0.50010917       5.32136311       3.00026733       0.00059123       0.00405030      -0.01637346
H        0.33099646       5.98425123       3.76752793      -0.00001782      -0.00060448      -0.01277165
H        1.46234464       5.02148536       3.11031603      -0.00303501      -0.00527247      -0.01025142
H       -0.05512391       4.50246096       3.22722014      -0.00859722       0.00739124      -0.02705655
N        2.09375315       6.24148899       9.00381677       0.00369592      -0.00209108       0.00222115
H        1.72600473       6.12651651       9.94016245       0.00172216       0.00673694       0.00233430
H        3.09309017       6.38939812       9.09946192       0.00442421      -0.00810892       0.00272832
H        1.97075829       5.34908942       8.54095683      -0.00183888      -0.00396517       0.00747383
N        5.52619608      11.02987537       5.05143600      -0.00613034       0.00303694      -0.00157166
H        5.11396273      10.42697198       5.75895122      -0.00009752       0.00245172       0.00082326
H        5.17305382      10.72563074       4.14902113      -0.01580113       0.00725320       0.00078931
H        5.14810441      11.95567721       5.20730051      -0.00140099       0.00368530       0.00551767
N       10.13472593       6.35675532       8.63680478       0.00045249       0.01504588       0.00939208
H       11.13418302       6.51847224       8.58043418       0.00159681       0.00778021       0.01184559
H        9.65677584       7.11843919       8.16645762       0.00934324       0.01222068      -0.00417504
H        9.95410276       5.52183603       8.08832856      -0.00162302       0.00974688       0.01848492
N        6.68048697       0.72333631       8.37658115      -0.00617018      -0.00412130      -0.01775765
H        6.59171976       1.40580560       9.12774917       0.00258683      -0.00244746      -0.01820391
H        6.68214930      -0.21633532       8.77250847      -0.00014886      -0.00236261      -0.01391903
H        5.87539757       0.80703913       7.77003668      -0.01487815      -0.00687078      -0.00642747
N        0.90305489       9.72442966       7.68195421      -0.01758150      -0.00847542       0.00501209
H        1.25197395       9.93701442       6.75511636       0.00322260      -0.02172115       0.01014817
H        0.79697012      10.62049770       8.16617791      -0.01226055      -0.00413400      -0.00317848
H       -0.02098176       9.32586177       7.56800998      -0.02080828       0.00305191      -0.00725203
N        5.66469291       6.19231769       3.63906859       0.01153030      -0.01535100      -0.00793570
H        5.77670682       7.15051888       3.29679187       0.01903665      -0.01728868      -0.01152219
H        6.28879392       6.11570746       4.43731545       0.01245818      -0.01849069      -0.00927368
H        4.73293681       6.14506299       4.03863871       0.01173890      -0.00684095      -0.00656682
N        4.56804727       1.79720993       2.82134508       0.00150491      -0.00371269       0.00373012
H        3.56105005       1.88049393       2.87153818       0.00036602      -0.02208227       0.01221445
H        4.90772121       2.43316085       2.11025077      -0.01396511       0.00753973       0.00656402
H        4.77516919       0.82856737       2.57885109       0.01736977       0.00268969      -0.00340558
N       10.18785254       2.14565735       4.70538386       0.02159086       0.00909789      -0.00461891
H       11.16453312       1.93519983       4.87603621       0.02013150       0.00101198      -0.00685003
H        9.66708879       1.30035181       4.91334919       0.01585014       0.00935796      -0.01957186
H        9.91148689       2.81514067       5.42011131       0.02431520       0.00063762       0.00375925
N        6.46067910       8.89517107       2.21292039       0.00278600      -0.01597419      -0.00267375
H        7.04733678       9.57564922       2.70516711      -0.00549388      -0.01522765       0.00483271
H        5.96672548       9.41854397       1.50032298      -0.01870072      -0.01011339       0.01729053
H        7.11065644       8.30312266       1.70996226       0.00855100       0.00980017      -0.02458154
N        3.30530355       3.03302512       8.03916191       0.00829902      -0.00332937      -0.00637534
H        3.50889867       3.16274178       9.02269787       0.01232603      -0.00535829      -0.00713748
H        3.42585650       2.04764097       7.80168458       0.00204813      -0.00398842      -0.00760073
H        2.32389162       3.24696003       7.87277958       0.00885281       0.00164351      -0.00229158
N        7.76208111      10.02440234       9.56288390       0.01149473       0.00761271       0.00412198
H        8.49117784      10.03122603       8.85840988       0.00425944      -0.01993184      -0.00277203
H        7.74322637       9.08523050       9.95555811      -0.00089654       0.01768005       0.02584551
H        8.04641444      10.66057149      10.29896658       0.02463484       0.02197072      -0.01417458
N        9.59532972       9.68198095       6.85831050      -0.00714140       0.00206744      -0.01758171
H        9.51774755       8.80411770       6.35099383      -0.01076978       0.01797359      -0.04452217
H       10.23528459      10.25221587       6.31656126      -0.00687018       0.01746660       0.00009030
H        8.68201452      10.12010350       6.78344669      -0.00489631       0.00857791       0.00003091
N       11.31922791       6.28497691       0.24544159      -0.00347206       0.00595397      -0.00659266
H       10.32952944       6.12357085       0.39825440      -0.00271302       0.00101083      -0.00721985
H       11.77973725       6.06047351       1.13704944      -0.00288647       0.00846197      -0.00613793
H       11.59221945       5.54397906      -0.40489045       0.00054315       0.00660181      -0.00531489
N        7.21381433       3.21210748      10.41668887       0.00177181      -0.01337888      -0.00943059
H        7.18443067       3.27460048      11.42592914      -0.00501152      -0.02371281      -0.00910747
H        6.89923074       4.10827237      10.05294958       0.00183628      -0.01076373      -0.00256552
H        8.18732646       3.10312190      10.15782540       0.00347784      -0.00877535      -0.00433740
N        8.28418253       7.16930430      10.91842967      -0.01368986       0.00310170       0.01177320
H        8.98359002       6.65787009      10.37292253      -0.01265442       0.01495063       0.00218107
H        7.39050316       6.72532140      10.73799863      -0.01210552       0.00569156      -0.00074071
H        8.48732657       7.09647269      11.90502956      -0.01613756      -0.02361596       0.01015776
N       11.49025362       0.32830569       0.78654118       0.00090158      -0.00020362      -0.00969589
H       12.44940575       0.73665599       0.54821168       0.00369820      -0.00347668      -0.00403918
H       10.80379970       0.74068603       0.15091948       0.00758317      -0.00266609      -0.01811582
H       11.23943020       0.70923054       1.69906075      -0.00685580       0.00590016      -0.01445955
N        9.09308256       4.84879880       3.19618220      -0.01308857      -0.00614320      -0.01592059
H        8.10286309       4.84047069       2.97900380      -0.01568279      -0.01682412      -0.00093450
H        9.34208014       3.93384829       3.56595402      -0.00332107       0.00625867       0.00699137
H        9.60424237       4.96693066       2.33084066      -0.02772722      -0.02982375      -0.02718979
N       -0.92711744       8.84243345      10.98423439      -0.01322056       0.00772367       0.00138927
H       -0.26085555       9.05406185      10.24735698      -0.02028093       0.01066476      -0.00406736
H       -1.87211479       8.80008782      10.59698350      -0.01655668       0.00722813       0.00984328
H       -0.70987891       7.86868189      11.36399862      -0.00918731       0.00685492      -0.00305526
N        3.99127553       9.17696829       7.23306553      -0.00513587       0.01022114       0.02384927
H        4.78172940       9.01586655       7.84742536      -0.00193390       0.01584730       0.02107796
H        4.03921262       8.44796030       6.52832452      -0.00184730       0.01076081       0.02366960
H        3.13417926       9.02011860       7.75904981      -0.00140822       0.00106951       0.02682160
N        0.64318243       0.34376063       9.35206586      -0.00096520      -0.00108388      -0.00081363
H        1.05092091       1.26240277       9.21633880      -0.01070090       0.00271326      -0.00335177
H        0.96757549       0.02188414      10.25452787       0.01097344      -0.00093114      -0.00518352
H       -0.36867723       0.48903243       9.39016839      -0.00117131      -0.00953577       0.00934386
N        3.00528521       0.23572817       6.89023412      -0.00514586      -0.00457700       0.00562656
H        2.11351341       0.23585499       7.37571774      -0.00519001      -0.00597945       0.00552407
H        3.35796140      -0.72328039       6.90538234      -0.00253490      -0.00367211       0.00719969
H        2.80981149       0.47616111       5.92433160      -0.00451158      -0.00488575       0.00543830
N        8.26134495      10.86860631       3.90097023      -0.00566810      -0.00424460      -0.00016630
H        8.47982406      11.72595784       3.41250151      -0.01466082      -0.01030058      -0.01451105
H        9.06425125      10.57964769       4.43936589      -0.00260437       0.01198041       0.00358081
H        7.46050353      11.02741395       4.52130436      -0.00612786      -0.00152114      -0.00217426
N        0.04396856       7.34283858       5.24409670      -0.00860662      -0.01146564      -0.00509474
H       -0.01629287       6.95543374       6.17861671      -0.00675683      -0.01652023      -0.00711495
H       -0.86710921       7.73582746       5.00688105      -0.01115754      -0.01598592      -0.00227205
H        0.73922668       8.07610876       5.26134139      -0.01393646      -0.00681445      -0.00009969
N        1.87382472       1.74275131      11.99686988       0.00903502      -0.00883257       0.00348430
H        1.38986489       2.44356426      11.43203661       0.01367234      -0.00486708       0.00484895
H        2.55623085       1.27047826      11.39612748       0.00933490      -0.00953849       0.00456493
H        2.40697169       2.26218575      12.68490185       0.00745180      -0.01470511       0.00902148
N        9.10775384       7.78396821       4.19382121      -0.00817105      -0.00678672       0.00116235
H        9.11198439       6.76824002       4.06780731      -0.00243731      -0.00433224      -0.01761938
H        9.24247654       8.20172301       3.27914666      -0.00583785       0.01072079       0.00968271
H        8.17064389       8.05436185       4.47036249      -0.01131785      -0.01756288      -0.00004704
N        2.91890645       6.37231946       5.94849276       0.00307782       0.02318416       0.00720539
H        3.72547052       5.90352563       6.35165887       0.00589770       0.02466023       0.00270352
H        2.29659531       5.63461302       5.63433150       0.01193397       0.02212551      -0.00789697
H        2.44821103       6.81348372       6.73441820      -0.00451241       0.00584534       0.01208127
N        4.27934012       4.69480598       0.41072476       0.01720098      -0.00270305       0.01541565
H        4.81559507       5.20373311       1.10687057       0.01330471       0.00058717       0.01600268
H        3.34985301       5.09917926       0.41181796       0.01271924      -0.01348464       0.01878951
H        4.67690542       4.91906358      -0.49664692       0.01247337       0.00403555       0.01519156
