150
Lattice="12.659906510543157 0.0 0.0 0.0 12.659906510543157 0.0 0.0 0.0 12.659906510543157" Properties=species:S:1:pos:R:3:forces:R:3 energy=-312227.9375 stress="-0.003496994497254491 0.0007267259934451431 0.0004485269309952855 0.0007267259934451431 -0.0012681366642937064 0.000499757967190817 0.0004485269309952855 0.000499757967190817 6.788965038140304e-06" pbc="T T T"
Rh      11.99674695      12.03419593       0.63295237      -0.00252321       0.00604808       0.02812529
Cl       8.99266450      12.12195495       5.64950443       0.00941920      -0.01696092      -0.02753735
O       10.01792704      11.04828224       5.79550832       0.00184464      -0.02240479      -0.01474822
O        8.60909976      12.85116856       6.89425508       0.01274297      -0.00057650      -0.03635246
Cl       5.08157765      12.04554143      10.95721986      -0.01758702      -0.03256994      -0.01083481
O        4.03869979      11.64450746      11.93610806      -0.02277088       0.01176754       0.00089663
O        6.24922085      12.76589878      11.52396119      -0.02811158       0.00473058      -0.03798342
Cl       6.47230980      11.74315169       7.38293861       0.00538582       0.01273358      -0.02361855
O        6.84912122      10.88780787       6.21875721      -0.00050056       0.00840193      -0.02228600
O        6.73738932      11.19424891       8.72913843       0.00238174       0.01286557      -0.02350497
O        7.48355749       6.61804624       9.73603804      -0.01030528       0.00223607       0.01691286
O        6.63961013       4.68281923       9.04201560       0.00984997      -0.00147015      -0.00242192
O        8.17024174       4.70395138      10.70409899       0.03466541      -0.01337212      -0.03228223
C        6.40787327       6.97699585       8.83473403      -0.02222533      -0.00535524       0.02478923
C        6.18358200       5.67789232       8.09851880      -0.01308338      -0.00428346       0.01633686
C        7.48999702       5.28225289       9.91386420       0.01517501      -0.00187820      -0.01067942
H        6.73609820       7.76649654       8.16809494      -0.03074265       0.00140092       0.03037736
H        5.56259724       7.31218444       9.43166487      -0.02328807      -0.01861618       0.03111142
H        5.15383364       5.47871245       7.84194228      -0.01324114      -0.01305884       0.02585856
H        6.78394444       5.63540697       7.19046240      -0.02329552       0.00998423       0.01073620
O        3.41722132       4.22480968      10.63247256      -0.01690581      -0.01979330       0.00397165
O        4.12053624       2.26160981       9.85670530      -0.00850130      -0.01862510       0.01140031
O        4.28605173       2.70865318      12.05741734      -0.02293053      -0.01336476       0.00968778
C        3.02520087       4.22067066       9.25673372      -0.01531512      -0.02575573       0.00259280
C        3.74760296       2.99849157       8.68491320      -0.00525555      -0.02364597       0.00794971
C        3.97773071       3.03367336      10.95456518      -0.00482067      -0.01324072       0.00897938
H        3.33675412       5.16540562       8.81368658      -0.01908913      -0.02513537       0.00157931
H        1.93828157       4.12870650       9.20912980      -0.01487434      -0.03316993      -0.00292046
H        3.11111284       2.36647587       8.06847951       0.00193626      -0.02568358       0.00253615
H        4.65664839       3.26083409       8.14407471      -0.00273636      -0.01962063       0.01466699
O        1.18680287       2.45281299       5.54242881       0.00398064      -0.00209691      -0.02037476
O        0.40620506       3.66016861       3.84565254      -0.01619440       0.00148641      -0.00763322
O        0.87659367       1.48266863       3.53234717      -0.00878251       0.00520355      -0.02105117
C        0.75352382       3.67796189       6.15437875       0.00032885      -0.00907493      -0.00976473
C        0.45230955       4.57369238       4.95235574      -0.02032501      -0.00527710      -0.00191829
C        0.79605103       2.43735986       4.24497841      -0.00665700       0.00156355      -0.01719859
H        1.56485705       4.06512593       6.76944378       0.00366285      -0.00576173      -0.01660642
H       -0.12133721       3.46862890       6.76602184       0.00910759      -0.01970531      -0.00133553
H       -0.51328834       5.06885856       5.01455543      -0.02600423      -0.01776662       0.00802185
H        1.24427435       5.30440769       4.77097633      -0.03148127       0.00600848      -0.00299691
O       11.05794534       8.74412671       7.35370985      -0.00146277      -0.01174811       0.01711634
O        9.92678211      10.09796409       8.69787986      -0.00957718      -0.00320304       0.00130951
O       12.14157521      10.38127963       8.44845800      -0.00919449      -0.00344795       0.01005578
C        9.67296724       8.39248026       7.13931159      -0.00020026      -0.01249871       0.01136202
C        8.97408050       9.08866784       8.29461198      -0.00555858      -0.00872247       0.00516626
C       11.12290399       9.80828941       8.18520111      -0.00542229      -0.00534147       0.01004776
H        9.58260332       7.30918158       7.15290301       0.00003728      -0.01210040       0.01452565
H        9.36547644       8.77552694       6.17124923       0.00478157      -0.01627013       0.00856549
H        8.06091645       9.58744259       8.00327100      -0.00655371      -0.01296666       0.00062574
H        8.78827390       8.45669235       9.16014172      -0.00421264      -0.00476253       0.00826079
O        5.64924246       8.55661363       4.47403692       0.00324047       0.00020920       0.00754650
O        7.78970075       8.86003307       3.97373260       0.00122195      -0.00620559      -0.00457409
O        7.24356968       7.47864161       5.65280022       0.00676897       0.00541532       0.00840020
C        5.64331974       9.29826004       3.24112805      -0.00208056      -0.00559108       0.00448695
C        7.07893254       9.79231826       3.13802072      -0.00131857      -0.01034307      -0.00679320
C        6.90101310       8.22377634       4.77914875       0.00367271       0.00144935       0.00260860
H        4.91129648      10.09630952       3.33576713       0.00071758      -0.00305733       0.00514645
H        5.38401810       8.61568814       2.43176658      -0.00874558      -0.00813812       0.00918359
H        7.49131181       9.74189850       2.13211883      -0.00722103      -0.01832916      -0.00875062
H        7.20566671      10.79111676       3.56150941       0.00311580      -0.00765130      -0.01478356
O        4.65296178       4.11504211       2.72883535       0.00205103       0.01011005      -0.00084141
O        4.91112523       5.02031338       4.74954653       0.02142480       0.00230187      -0.00059015
O        5.75305177       6.07635925       2.94076409       0.01466411      -0.00579846       0.00087345
C        3.75773791       3.39404389       3.58986904       0.00214890       0.01313017       0.00117782
C        4.27530377       3.75322774       4.97206594       0.00786136       0.00966356       0.00101817
C        5.16342883       5.16595691       3.42472188       0.01929137       0.01116920      -0.00555089
H        3.79730027       2.33556669       3.35469697      -0.00285355       0.01382056      -0.00034553
H        2.74788144       3.76290190       3.41137539       0.00322935       0.01784685       0.00535383
H        3.48662913       3.88584638       5.70885817       0.00979909       0.01988190       0.00042987
H        5.01088342       3.03690653       5.34294073      -0.00003201       0.00227943       0.00081953
O        3.09919783      10.76450481       5.41503848      -0.01085922       0.00273193      -0.00022888
O        1.90855986      11.66983402       7.06011588      -0.00473583       0.01676068      -0.00398602
O        3.79080113      10.53967440       7.55003437      -0.00746083       0.01370525      -0.00096214
C        2.09594512      11.58752277       4.77203567      -0.00999975       0.00060417      -0.00378501
C        1.08057419      11.77839916       5.87977851      -0.00700617       0.01080931      -0.00286838
C        3.00567636      10.95640398       6.74980734      -0.00738305       0.01116526      -0.00131238
H        1.71777447      11.05873281       3.90031199      -0.01333494      -0.00502989       0.00128737
H        2.55925150      12.52237868       4.46246075      -0.00833991      -0.00291157      -0.01146569
H        0.59295524      12.74668609       5.87964415      -0.00441492       0.01193959      -0.00861953
H        0.33086867      10.98607094       5.92030279      -0.00861096       0.01293004       0.00430778
O       10.42790863       6.44688121       3.88112956      -0.00314565       0.02945211       0.00473666
O        9.90313342       7.69378347       2.10835704       0.01396599       0.00829533      -0.01425900
O        8.87581767       5.70626739       2.41412991       0.01303411       0.01761305       0.00285190
C       11.37741589       7.52050760       3.87152704       0.00094864       0.02561417      -0.00217727
C       10.74494968       8.52480054       2.92281174       0.01057988       0.01590568      -0.01886651
C        9.64845867       6.53731425       2.75970247       0.00176758       0.01117170      -0.00465599
H       12.33055134       7.13575151       3.49744408       0.00075522       0.01667242       0.00748810
H       11.49820423       7.89212926       4.88673268      -0.00294898       0.03734456      -0.00661969
H       10.12599816       9.25135526       3.44768835       0.00942117       0.02425784      -0.03225541
H       11.45093741       9.04217202       2.27606109       0.01634538       0.00515921      -0.02032757
O       11.22067050       4.70106356      11.45666989      -0.00283514      -0.00777048       0.01806641
O       10.89498811       4.84140269       9.25913844       0.02934504      -0.00338021       0.01410377
O       11.26927101       2.83128205      10.20558922       0.03973430      -0.00453091       0.01240747
C       10.86682762       6.07878972      11.24488855      -0.00778725      -0.00941572       0.01765072
C       10.79265659       6.19390910       9.72285005      -0.00430543      -0.00790122       0.01764971
C       11.12361967       4.01017184      10.30678915       0.02267366      -0.00037903       0.01502610
H       11.64358345       6.70726523      11.67826947      -0.01183835      -0.00599280       0.02028216
H        9.91227814       6.27401431      11.72609672      -0.00943249      -0.01350596       0.01545182
H        9.84535578       6.60644481       9.39121619      -0.01219255      -0.02788429       0.01557263
H       11.61477127       6.76651514       9.29224580      -0.01648110       0.01246792       0.02239050
O        9.32381438       3.35018120       4.41039360       0.00824907      -0.01157235       0.00021726
O        9.30756716       2.85865125       6.57342949       0.00260635       0.00573150       0.00370705
O       11.06461406       2.25415062       5.31864983       0.00066566      -0.01513416       0.01032078
C        8.12105532       3.95934066       4.93606267       0.01008900      -0.00174540      -0.00700033
C        7.94841119       3.21236293       6.24655683       0.00531991       0.01131040      -0.00057703
C        9.98850686       2.77658561       5.42270496       0.00280720      -0.00750753       0.00523563
H        7.33019505       3.79253057       4.21255654       0.01052913      -0.00566572      -0.00618738
H        8.29045944       5.02935127       5.05509205       0.01420952      -0.00165838      -0.01690036
H        7.55414466       3.79280728       7.07078919       0.00844398       0.02187222      -0.00678107
H        7.38140256       2.28834884       6.12728939       0.00003880       0.01350856       0.00798684
O        2.17955949       7.23282660       6.38635627       0.00420025       0.01065337      -0.00571317
O        2.89930556       7.80055885       8.41696465       0.00271532      -0.00608544      -0.00072648
O        4.38666545       7.31386788       6.80531421       0.00842059      -0.00393710      -0.00165018
C        1.00714858       7.69103737       7.07142907       0.00386357       0.00644958      -0.00357285
C        1.47033737       7.84891532       8.51967801       0.00293146       0.00056711      -0.00302523
C        3.26527409       7.45618862       7.16773833      -0.00269502       0.00098434      -0.00021675
H        0.21553367       6.95524622       6.94745708       0.00476664       0.00581470      -0.00631402
H        0.69310668       8.63791134       6.63918717       0.00236131       0.00774071       0.00051540
H        1.17376063       8.80522385       8.94252368       0.00685991       0.00069618      -0.00030652
H        1.14907478       7.02797501       9.16450392      -0.00222239       0.00073028      -0.00550145
O        7.01625021       1.36561291       3.27226002      -0.00892176       0.00415903      -0.01001918
O        5.01417428       0.41957203       3.11542842      -0.00481312      -0.00231152      -0.01648903
O        5.91664032       0.77699872       5.13677327      -0.02128586       0.01874748      -0.01186442
C        6.67831737       1.48361359       1.86379402       0.00271943      -0.01282623      -0.01387507
C        5.41870280       0.63510542       1.73696453       0.00680190      -0.01789460      -0.01538673
C        5.98014663       0.84081964       3.93888635      -0.01227626       0.00762147      -0.01462656
H        7.51071985       1.10681209       1.27860279       0.00914827      -0.01681173      -0.00232540
H        6.50967390       2.53584159       1.64677413       0.00086197      -0.01609689      -0.02791444
H        4.61541012       1.14286069       1.21258000       0.01065564      -0.02709472      -0.02943203
H        5.59190988      -0.33439280       1.28241359       0.01365346      -0.02280706      -0.00239125
O        9.01765032      11.45386174      11.23662098       0.01623610       0.01148584       0.01964920
O       10.62015200      10.00850948      11.76130888       0.02331400       0.01307517       0.00064979
O        8.48760581       9.29740059      11.61037720       0.02524424       0.00712192       0.00560208
C       10.23099909      12.18346494      11.06474175       0.01470569       0.01308477       0.01227574
C       11.30832840      11.26900219      11.64785082       0.01685619       0.01804098       0.01452231
C        9.29335003      10.17332396      11.54164498       0.02189237       0.00973827       0.00811847
H       10.12136781      13.15250690      11.55580892       0.01399934       0.01585206       0.00541803
H       10.39979145      12.36629941      10.00169117       0.01273318       0.00638168       0.01075858
H       12.14177873      11.09459009      10.96560627       0.02270201       0.02798370       0.02001116
H       12.48460501      10.65067987      13.63453512       0.04095941       0.01525760      -0.00782437
O        3.85899945       5.90173917       0.35329795      -0.00029659       0.01507252      -0.00794251
O        3.07592160       7.98359347       0.24519845      -0.01237789       0.01092416       0.00305191
O        5.19305859       7.55446903      -0.39380263      -0.00930560       0.02692389      -0.00170231
C        2.48017362       5.77358991       0.69875404       0.00213604       0.00670528      -0.00148797
C        1.99167715       7.22534054       0.78175934      -0.00336936       0.00380737       0.01066834
C        4.14900299       7.17399584       0.02952687      -0.01010448       0.01771501      -0.00090560
H        2.40510941       5.24189979       1.64497058       0.00995050       0.00041224      -0.00462654
H        1.98166457       5.19480171      -0.07799133       0.00048321       0.00914121      -0.00194427
H        1.10371761       7.41437120       0.17997889      -0.01030442       0.00305152       0.02099407
H        1.81007400       7.55500650       1.80581782       0.00585720      -0.00238015       0.01431400
