148
Lattice="13.369916188396642 0.0 0.0 0.0 13.369916188396642 0.0 0.0 0.0 13.369916188396642" Properties=species:S:1:pos:R:3:forces:R:3 energy=-421739.34375 stress="-0.0012640502536669374 0.0005964884476270527 0.0003901633172063157 0.0005964884476270527 -0.0016446926165372133 -0.00017109751206589863 0.0003901633172063157 -0.00017109751206589863 -0.003433091100305319" pbc="T T T"
Rh      12.59799061      12.60697324       0.38296832      -0.00859501      -0.01423640      -0.01752731
Br       0.56706906      12.99981777       2.21336605      -0.02132453      -0.01630704      -0.00711964
Br      11.36416112      12.40605404      11.80684413       0.01126508       0.02008313      -0.03316647
Br       5.23713729      13.68294855      13.21448215      -0.01982161       0.02969590       0.00241892
C       12.07622665       8.60357775       8.22076853       0.01085168      -0.00074452       0.02054103
C       11.43057378       7.37977258       8.11071229       0.01034063       0.01235254       0.01389015
C       11.86146136       9.40761616       9.33480031       0.02698615       0.00579181       0.01457744
C       10.56161306       6.96417387       9.11122612       0.00020620       0.01076388       0.02306540
C       11.01934096       8.97586573      10.35142284       0.01592952       0.00514850       0.02294789
C       10.36979676       7.75208590      10.23766605       0.01454950       0.01854391       0.01599640
H       12.72519942       8.94216277       7.42431676       0.01645100      -0.00018708       0.01561539
H       11.58773692       6.75467193       7.24154618      -0.00130873       0.00744686       0.01769833
H       12.34120648      10.37461211       9.41445534       0.02981976      -0.00263394       0.01975796
H       10.04032283       6.02403672       9.00568331      -0.00118134       0.01888764       0.02033482
H       10.86393471       9.60335108      11.21982371       0.02626268       0.01005957       0.01856658
H        9.71034439       7.41203882      11.02603542       0.00709968       0.01969388       0.01935723
C        3.65670059       7.74998550       4.31588449      -0.00420240      -0.00086614      -0.00961863
C        4.90352580       8.35966021       4.34054998       0.01515375       0.00755762      -0.00762280
C        2.53073203       8.48945052       3.97116640       0.01373515       0.00952446      -0.00331139
C        5.02264710       9.70918445       4.02754802      -0.00115810      -0.00010152       0.00008678
C        2.65185900       9.83567283       3.65331458      -0.00183314       0.00143035       0.00249134
C        3.89930611      10.44837130       3.68315304       0.01704349       0.00912216       0.00547576
H        3.56555534       6.69884663       4.56115034       0.00834817       0.00267698      -0.01749429
H        5.78130033       7.78056276       4.59966079       0.00394014       0.00055539      -0.01357969
H        1.55911581       8.01017348       3.93640816       0.00386716       0.00582206      -0.00498677
H        5.99705109      10.18193272       4.03757245       0.00901143       0.00365368       0.00253924
H        1.78675763      10.40828766       3.34246769       0.00922549       0.00873386       0.00392921
H        3.99427047      11.48813474       3.39452681       0.00790681       0.00560570       0.01134737
C       10.84166102       1.19732405       3.70057320      -0.02090912      -0.02203384       0.01002026
C       11.30768407       2.39421847       3.16942779       0.00806008       0.00065696       0.01130860
C        9.54114414       0.78589634       3.43165630       0.00544215       0.00421152       0.00063950
C       10.47015567       3.17348234       2.38363584      -0.00876584      -0.01296069       0.01325787
C        8.70931940       1.55303433       2.62679966      -0.01233119      -0.00983429       0.00486965
C        9.17555066       2.75185665       2.10848762       0.01702070       0.01389946       0.00637268
H       11.50111893       0.57082355       4.28713517      -0.01229095      -0.01238940       0.00842418
H       12.33273564       2.69750146       3.34459632      -0.00726733      -0.01399798       0.02026650
H        9.17947747      -0.14830346       3.83180480      -0.01429160      -0.00619461      -0.00072313
H       10.82708693       4.10275128       1.95748058       0.00877423      -0.00204937       0.01708554
H        7.71222155       1.21018022       2.37800013       0.00214720       0.00703331      -0.00012099
H        8.53489372       3.34457935       1.47287970       0.00682159       0.00388852       0.00854489
C        6.10306363       5.44923430       1.05850911      -0.01808731       0.00835123      -0.00885290
C        7.11642414       6.15248280       1.69729595      -0.01649279      -0.00485615       0.02086652
C        5.57416719       4.30251659       1.63507039      -0.01373118      -0.01181547       0.01414248
C        7.60284355       5.70997158       2.91828370      -0.02733961       0.01431991      -0.00798807
C        6.05550154       3.86466417       2.86323325      -0.02298382       0.00733782      -0.01222966
C        7.06893125       4.56807232       3.50100119      -0.02165385      -0.00437744       0.01671186
H        5.74138874       5.78588153       0.09540434      -0.01299605      -0.00122416       0.00658508
H        7.54609852       7.03200522       1.23232860      -0.02126751       0.00424150       0.00528563
H        4.82798458       3.71564147       1.11480604      -0.01082458      -0.00427546      -0.00384535
H        8.41647021       6.23110138       3.40133308      -0.02881797       0.00684915       0.01330138
H        5.66779264       2.94619497       3.28544742      -0.01899225      -0.00111531       0.00254321
H        7.50063636       4.20412955       4.42307229      -0.03016570       0.00813890       0.00411838
C       12.58998163       3.43960332       9.01694927      -0.00677820      -0.01860423      -0.02645281
C       12.37635214       2.57641492       7.94722672       0.02988443      -0.01560078      -0.02594624
C       11.51215658       3.90026541       9.75737932       0.03303966      -0.01593769      -0.03263666
C       11.08620687       2.17409129       7.62455679      -0.00981798      -0.01960577      -0.02749763
C       10.22167152       3.49839279       9.43363235      -0.00686841      -0.01925416      -0.03138956
C       10.00692482       2.63293103       8.37236181       0.02874562      -0.01556262      -0.03158234
H       13.59330277       3.75511940       9.27478334       0.01496704      -0.01860818      -0.02722140
H       13.21583779       2.22030426       7.36387413       0.00668445      -0.02052977      -0.02373771
H       11.67045556       4.57901900      10.58482270       0.00951058      -0.01783543      -0.03160730
H       10.92077786       1.51380236       6.78353557       0.01318367      -0.01710188      -0.02572348
H        9.38289787       3.85486969      10.01534469       0.01591760      -0.01791213      -0.03260377
H        8.99629248       2.32287523       8.13288686       0.00808972      -0.01645367      -0.03122153
C        9.12641397       2.15816598      12.27132592       0.00054405      -0.00684664      -0.00775202
C       10.08324025       3.11836071      12.57600508       0.01219410      -0.00880003      -0.00990122
C        7.82961521       2.54045810      11.94891974       0.00863735      -0.00374009       0.00056644
C        9.74429310       4.46746886      12.57252413       0.00799306      -0.00819862      -0.01147569
C        7.49741991       3.88957754      11.92753569       0.00401980      -0.00315740       0.00050909
C        8.45108618       4.85249866      12.24123666       0.01579332      -0.00528206      -0.00280151
H        9.38873909       1.10840954      12.30735704      -0.00168339      -0.00787371      -0.00514762
H       11.08615022       2.80726322      12.84007562       0.00803171      -0.01077433      -0.01558074
H        7.06839059       1.78833168      11.77367712       0.00208062      -0.00198540       0.00380139
H       10.47976447       5.21909656      12.83543739       0.01623141      -0.01014481      -0.01551140
H        6.48401136       4.18551484      11.69152947       0.00805934      -0.00141765       0.00734600
H        8.17644509       5.90034937      12.25336376       0.01371177      -0.00473180      -0.00488968
C       10.07358887       4.94733775       5.60264320       0.00360367       0.00368693      -0.00413424
C       10.90093568       5.63839392       4.72575639       0.00845940       0.01695738      -0.00411130
C        9.05035237       5.61566646       6.26389920       0.00569733       0.00140079      -0.00791606
C       10.69962416       6.99493938       4.50242134       0.00138120       0.01188728       0.00975316
C        8.84206693       6.97056097       6.03427015      -0.00154132      -0.00382172       0.00618325
C        9.66490732       7.65953991       5.15217951       0.00371801       0.00970791       0.00658645
H       10.23001905       3.89107848       5.77225832       0.00938079       0.00666603      -0.01431621
H       11.69683625       5.11140840       4.21694960       0.00786227       0.01937836      -0.00238618
H        8.42386242       5.07714999       6.96413738       0.00213069      -0.00787456      -0.01038034
H       11.34364610       7.53185283       3.81732629       0.00445452       0.02103527       0.01239048
H        8.04926194       7.49680011       6.55258661      -0.00172444      -0.00648740       0.00323887
H        9.51080772       8.71508456       4.98130990      -0.00036675       0.00717866       0.01832199
C        3.38383600       7.56575978       0.67225704      -0.01417035       0.01140584       0.00348768
C        4.44358994       8.45877259       0.77060535      -0.02465448       0.02005961       0.00647018
C        2.10275514       8.03760226       0.41118466      -0.02257425       0.02228445      -0.01268904
C        4.22978051       9.81991357       0.60549850      -0.01093170       0.00733851       0.00269087
C        1.88556507       9.40359012       0.25678242      -0.00903180       0.01050291      -0.01774284
C        2.94981710      10.29350270       0.35211808      -0.01926827       0.01917720      -0.01321187
H        3.55636332       6.50526096       0.81054921      -0.02340282       0.01808862       0.00851654
H        5.44007235       8.09101888       0.97086580      -0.02110320       0.01343898       0.01956707
H        1.27491707       7.34148535       0.34301748      -0.01615301       0.01739857      -0.01631257
H        5.05228948      10.52306074       0.65461395      -0.01753700       0.01313615       0.00718591
H        0.88678719       9.78035053       0.07197620      -0.01200397       0.01691126      -0.02968184
H        2.79490874      11.35957765       0.23683702      -0.00986141       0.01233047      -0.01703662
C        5.43542003       8.23907220      10.96744667       0.00624523      -0.00007939      -0.00826171
C        6.80235908       8.47404399      10.90524335       0.00037497       0.00760381      -0.00565309
C        4.54335245       9.30138622      10.92300115       0.00040215       0.01009601      -0.00230999
C        7.28190429       9.77811919      10.81872074       0.00567560      -0.00146288       0.00332246
C        5.01961255      10.60278528      10.84831981       0.00622368      -0.00000216       0.00604695
C        6.38816026      10.84289378      10.80496319      -0.00017435       0.00850001       0.00810513
H        5.05969960       7.22628373      11.05579313       0.00210567       0.00519155      -0.01639876
H        7.49527973       7.64181281      10.91357597       0.00302567       0.00263810      -0.00953417
H        3.47922470       9.11454217      10.97847235       0.00418475       0.00462834      -0.00418774
H        8.34757238       9.96287167      10.77230721       0.00208434       0.00396124       0.00575488
H        4.33490213      11.43995214      10.87356556       0.00330384       0.00587250       0.01078197
H        6.74886652      11.86299454      10.79494782       0.00343654       0.00243142       0.01332480
C        5.06479648       8.07483410       7.85331123      -0.00225088      -0.00102744      -0.01145540
C        3.78376890       7.53628273       7.83900003      -0.00361278       0.00067152      -0.00565205
C        5.25997106       9.42268490       7.58784245      -0.00360505      -0.00016372      -0.00673111
C        2.69469525       8.35039103       7.55951375      -0.00304581       0.00248479       0.00568607
C        4.17113004      10.23402279       7.29775864      -0.00304884       0.00180258       0.00467074
C        2.89014387       9.69830290       7.28310920      -0.00460173       0.00349915       0.01061226
H        5.91369473       7.45330153       8.10825063      -0.00217313      -0.00328777      -0.02119598
H        3.63198628       6.48536821       8.05098536      -0.00274532      -0.00014320      -0.00969701
H        6.25662541       9.84322658       7.62806533      -0.00245154      -0.00163797      -0.01236750
H        1.69553903       7.93287842       7.54886566      -0.00386706       0.00375659       0.01078496
H        4.32071669      11.28394544       7.08086380      -0.00400843       0.00258836       0.00861142
H        2.04376060      10.32859572       7.04197998      -0.00468585       0.00531678       0.02023679
C       12.56968929      11.53108834       6.46760076       0.00572480       0.01048466       0.00421466
C       12.63490027      10.79287784       5.29182393       0.01305097       0.02080505      -0.00351471
C       11.36874243      12.10167324       6.87101412       0.00386194      -0.01046910       0.01228181
C       11.49730205      10.63312894       4.51064165       0.01028258       0.01549203      -0.00075071
C       10.23057798      11.94001615       6.08990023       0.00082594      -0.01657872       0.01566062
C       10.29681691      11.20428365       4.91230491       0.00834283      -0.00498378       0.00727062
H       13.45319459      11.65450855       7.08172008       0.00786699       0.01657237       0.00079411
H       13.56932298      10.33958936       4.98666794       0.01573786       0.03793137      -0.01036747
H       11.32130561      12.67203479       7.78960426      -0.00083994      -0.01767464       0.01700458
H       11.54765776      10.07564362       3.58434628       0.01627786       0.02586318      -0.00727409
H        9.29875921      12.40488149       6.38899144      -0.00205670      -0.03366077       0.02322452
H        9.41352552      11.08563147       4.29642649       0.00637211      -0.00832503       0.00985935
C        5.80270354       4.48800168       7.57577600      -0.01482566      -0.01625541       0.00230419
C        5.91673551       3.31976802       6.83199061      -0.01616424      -0.02718252       0.00612211
C        5.36799121       4.43004457       8.89530249      -0.00733895      -0.02034768       0.00518602
C        5.59693116       2.09520360       7.40549022      -0.00663861      -0.01689422       0.01204336
C        5.03612732       3.20573208       9.46543602       0.00249621      -0.01027048       0.01147681
C        5.15386334       2.03761627       8.72168453       0.00111714      -0.02117077       0.01521982
H        6.04632474       5.44000388       7.12027210      -0.02254546      -0.02223663      -0.00308033
H        6.24798038       3.36792880       5.80449796      -0.02224616      -0.02511069       0.00394666
H        5.28992302       5.34081049       9.47740520      -0.00693135      -0.01381356       0.00164273
H        5.69222126       1.18843474       6.82136708      -0.00799569      -0.02359338       0.01549704
H        4.69354077       3.14405437      10.49043183       0.00864433      -0.01272716       0.01361860
H        4.90497491       1.09049106       9.18178745       0.00802974      -0.01479803       0.02031581
