146
Lattice="12.508954939659878 0.0 0.0 0.0 12.508954939659878 0.0 0.0 0.0 12.508954939659878" Properties=species:S:1:pos:R:3:forces:R:3 energy=-194328.140625 stress="-0.0012250853469595313 -0.00020482133550103754 -0.00017664192273514345 -0.00020482133550103754 -0.0007891274290159345 2.7505606340127997e-05 -0.00017664192273514345 2.7505606340127997e-05 -0.002063019899651408" pbc="T T T"
Rh      11.02226977      11.79751090       0.78200454      -0.04348528      -0.01131898       0.01987624
P       11.58881704       9.58331490       0.74757608      -0.00280395       0.03676236       0.00701088
O       11.64007938      10.40885827       2.11973776      -0.02788888       0.01663124       0.01307046
O       12.38774986      10.65746592      -0.13921338      -0.01607305       0.04355511       0.01699358
O       11.94364491       8.16762940       0.70503431       0.03573938       0.01526102       0.00326839
O       10.12079433      10.07514544       0.30749716      -0.00756013      -0.00856459      -0.00352231
C        5.25105181       3.38420586      11.64718529       0.00056076      -0.00148267       0.00213365
C        6.58782019       4.11235994      11.68645691       0.00052349      -0.00312257       0.00266229
C        4.05024147       4.31632365      11.75830649       0.00015901      -0.00214076       0.00772857
C        7.79317154       3.18731939      11.56927736      -0.00002915       0.00213504      -0.00654032
C        2.71919378       3.57806954      11.80302208       0.00040299      -0.00213051       0.00959554
C        9.11455554       3.94304434      11.58491473      -0.00170827      -0.00190273      -0.00595979
H        5.18105911       2.81047184      10.71672955      -0.00231156       0.00169772      -0.00000638
H        5.21352183       2.64605512      12.45329475       0.00055890      -0.00489949      -0.00049916
H        6.66284128       4.69061260      12.61535376       0.00172373      -0.00730745       0.00645339
H        6.62358138       4.84887917      10.87541757      -0.00396862       0.00357318       0.00673321
H        4.15430018       4.93609852      12.65560220       0.00259985      -0.00446442       0.00896615
H        4.06143708       5.01360324      10.91491375      -0.00219477       0.00007097       0.00947818
H        7.76891404       2.46006617      12.38809268       0.00585861      -0.00424504      -0.01121667
H        7.70968937       2.60423882      10.64582522      -0.00141941       0.00700189      -0.00984579
H        2.59401074       2.93629465      10.92898087      -0.00319793       0.00260422       0.00681999
H        1.87637323       4.27059845      11.82880020       0.00056954      -0.00238138       0.01699729
H        2.65475444       2.94092067      12.68741889       0.00444598      -0.00676222       0.00642402
H        9.16729938       4.65428190      10.75777807      -0.00586880       0.01054437       0.00200111
H        9.23235818       4.51142644      12.50882663       0.00443698      -0.00668705      -0.00130194
H        9.97052155       3.27303229      11.49794084      -0.00818828       0.01561397      -0.02101774
C        4.96056276       8.27549229       3.40892517      -0.00034249       0.00087515      -0.00105824
C        3.69200105       8.67568598       2.67527760       0.00311422       0.00070146      -0.00748616
C        4.90386066       6.91456136       4.08851738      -0.00087798      -0.00099781      -0.00494461
C        3.82159082      10.02245123       1.97638489       0.00542185       0.00255221      -0.00345552
C        6.21068367       6.57491290       4.78845792      -0.00345150      -0.00059788      -0.00001210
C        2.53946325      10.42668461       1.27109524       0.00840646       0.00807366      -0.00625795
H        5.79831193       8.28595957       2.70404397       0.00374544       0.00460812       0.00401869
H        5.19601041       9.03846936       4.16130064      -0.00642446      -0.00076118       0.00238124
H        2.85421853       8.71407182       3.37636366      -0.00071388      -0.00277041      -0.01204240
H        3.43010265       7.90864693       1.93726098       0.00893978       0.00211321      -0.01089957
H        4.08322073       6.90330659       4.81310263      -0.00404090      -0.00458413      -0.00874758
H        4.66154575       6.14570073       3.34613735       0.00411700       0.00039926      -0.00786072
H        4.10285728      10.78267124       2.71427446       0.00407105       0.00009349      -0.00051099
H        4.64967245       9.97590641       1.26146326       0.00735751       0.00382966      -0.00104779
H        7.02981619       6.49842097       4.07295638      -0.00050995       0.00078700       0.00324042
H        6.15458953       5.63315248       5.33688839      -0.00486510      -0.00115769      -0.00135501
H        6.48009822       7.35817112       5.49922848      -0.00701848      -0.00137797       0.00206484
H        2.23455539       9.67045194       0.54672420       0.00846344       0.01122008      -0.00985008
H        1.71291956      10.53115579       1.97611760       0.00706001       0.00893415      -0.00813586
H        2.63795395      11.37125373       0.73459253       0.01316989       0.00970940      -0.00230768
C        3.22240003       2.69985081       3.52222839       0.00020762      -0.00289204       0.00073022
C        4.67582629       2.98378618       3.88583791       0.00003740      -0.00633807       0.00352484
C        2.30455583       2.68323644       4.73718584      -0.00281293       0.00145983      -0.00170225
C        5.59300721       3.04437819       2.67155115       0.00282091      -0.00828222       0.00569916
C        0.85711912       2.34903688       4.41355721      -0.00204751       0.00052944      -0.00433648
C        7.04462074       3.35532843       3.00728912       0.00285921      -0.01361337       0.00991967
H        2.87136550       3.45795463       2.81164167       0.00375855      -0.00292608      -0.00085862
H        3.15725848       1.73851832       2.99849500      -0.00138932      -0.00328401       0.00205279
H        5.03738670       2.21469826       4.57894055      -0.00322156      -0.00729972       0.00392117
H        4.73006172       3.93349932       4.43016507       0.00138204      -0.00670412       0.00380807
H        2.68778858       1.95825874       5.46023797      -0.00434001       0.00504923       0.00251271
H        2.35589279       3.65941073       5.22873514      -0.00415027       0.00354302      -0.00575049
H        5.53316604       2.09149418       2.13577423       0.00113003      -0.00744870       0.00468189
H        5.20911004       3.80146971       1.98038773       0.00723384      -0.00634989       0.00561993
H        0.44017167       3.04825275       3.68646133       0.00141758      -0.00277086      -0.00927892
H        0.23048436       2.38330982       5.30649250      -0.00423540       0.00736035      -0.00629745
H        0.78175241       1.34474359       3.99510330      -0.00412658      -0.00131586       0.00005591
H        7.13051117       4.31828904       3.51016889       0.00483661      -0.01457772       0.01138517
H        7.46950356       2.59838582       3.66976354      -0.00163591      -0.01591787       0.00992835
H        7.66336016       3.39950439       2.10949700       0.00522862      -0.01468545       0.01156896
C        8.49186767       9.94832774       4.34111449       0.00832403       0.00122765      -0.00370330
C        9.21568086       8.62300915       4.13443488       0.00740623       0.00027981       0.00043309
C        8.61659542      10.48779644       5.76003419       0.00454861       0.00405875      -0.00445396
C        8.96694605       8.01878411       2.75933340       0.00671673      -0.00293922       0.00207922
C        7.85657571      11.78684904       5.99077549       0.00146851       0.00300491      -0.00921232
C        9.66262106       6.68309658       2.54595032       0.00512519      -0.00395811       0.00470580
H        8.88801658      10.68037222       3.62761759       0.01180287      -0.00104240      -0.00402771
H        7.43109672       9.82644985       4.09516225       0.00903869       0.00226148      -0.00658185
H        8.90198421       7.91543168       4.91160786       0.00738309       0.00277297       0.00241598
H       10.29286498       8.77368984       4.27036576       0.00739148       0.00044756      -0.00068877
H        8.24699108       9.72802384       6.45544429       0.00437815       0.00486782      -0.00388761
H        9.67537570      10.62824913       6.00243439       0.00355726       0.00663337      -0.00228307
H        7.88941601       7.90292084       2.60768607       0.00675485      -0.00202291       0.00208345
H        9.29388614       8.72874798       1.99847446       0.00756487      -0.00510988       0.00066432
H        8.21489128      12.57742361       5.32771269       0.00142466       0.00227343      -0.00981525
H        7.96529618      12.13917857       7.01837635      -0.00207511       0.00558091      -0.00987151
H        6.78916837      11.65459902       5.79710166       0.00237972       0.00034580      -0.01172668
H       10.74179029       6.78333135       2.66077713       0.00588164      -0.00370716      -0.00219166
H        9.30785815       5.93019971       3.25578751       0.00975929      -0.00025280       0.01062262
H        9.48832524       6.30766330       1.53680888      -0.00209461      -0.00941374       0.00800550
C        1.99393001       9.65232754       7.43498934      -0.00097945      -0.00225836      -0.00275016
C        1.93785817       8.97109860       6.07350817      -0.00349283      -0.00034179      -0.00354087
C        2.98145274      10.81028254       7.51693160       0.00113660      -0.00450976      -0.00022760
C        0.94435849       7.81306100       6.03647591      -0.00485009       0.00105809      -0.00292236
C        3.03162205      11.43345085       8.90578891       0.00115486      -0.00742643       0.00097668
C        0.85007713       7.10883996       4.68930536      -0.00665887       0.00098459      -0.00253218
H        0.99525562      10.01836473       7.69387243       0.00008124      -0.00058948      -0.00178026
H        2.24798765       8.91034613       8.20160000      -0.00244818      -0.00399658      -0.00413024
H        2.93858624       8.60892198       5.80922547      -0.00454307      -0.00126123      -0.00565087
H        1.66846008       9.70586840       5.30575593      -0.00399904       0.00059593      -0.00226484
H        3.97910013      10.45813473       7.23493434       0.00051594      -0.00561886      -0.00024533
H        2.70831253      11.57166043       6.77764814       0.00300230      -0.00251755       0.00131588
H        1.21759090       7.08972560       6.81375411      -0.00532039       0.00068653      -0.00328070
H       -0.04440242       8.19215749       6.31535821      -0.00409198       0.00216268      -0.00227050
H        2.06027125      11.84384030       9.18957934       0.00212069      -0.00538888       0.00085561
H        3.76457376      12.23882041       8.96000441       0.00332442      -0.00962430       0.00349723
H        3.29523916      10.68933170       9.66001139      -0.00217960      -0.00945392       0.00011811
H        0.55189739       7.79831723       3.89712627      -0.00564142       0.00120184      -0.00263746
H        1.80882799       6.67384179       4.39862513      -0.00777939      -0.00096526      -0.00282934
H        0.11520635       6.30171178       4.71627653      -0.00825357       0.00265627      -0.00191640
C       10.75316319       7.29984184       8.80583140       0.00172210      -0.00629547       0.00208455
C        9.92287319       6.31774806       7.99234697       0.00082296      -0.00661142       0.00338013
C       10.07891602       8.66054318       8.93201631       0.00281435      -0.00599401       0.00256854
C       10.57583594       4.95922997       7.77603410       0.00185698      -0.00565438       0.00077252
C       10.95397250       9.68952249       9.62244188       0.00572774      -0.00280243      -0.00529274
C        9.67759580       4.00852483       6.99491332       0.00274885      -0.00536588      -0.00039297
H       10.94201026       6.89637720       9.80689340       0.00303628      -0.00636241       0.00177258
H       11.73471026       7.42527011       8.33837627       0.00103107      -0.00709546       0.00071454
H        9.69669544       6.76339046       7.01499738      -0.00107761      -0.00616941       0.00408497
H        8.95510188       6.17448201       8.48566711       0.00157392      -0.00756577       0.00447629
H        9.79720946       9.01329063       7.93530555      -0.00102201      -0.00803857       0.00288740
H        9.14587164       8.54419549       9.49339087       0.00487030      -0.00445931       0.00606278
H       11.52468586       5.09522098       7.24563448       0.00104275      -0.00364704       0.00001878
H       10.82908966       4.51958299       8.74619033       0.00440045      -0.00697185      -0.00054517
H       11.26627006       9.33439228      10.59992643       0.01553968       0.00081545      -0.00672129
H       10.43048693      10.63420512       9.77724495       0.00457506      -0.00394443      -0.00352698
H       11.85891262       9.89460132       9.04921132      -0.00035755      -0.00143296      -0.01422791
H        8.72944949       3.85568619       7.51682090       0.00349213      -0.00865497      -0.00033659
H        9.44427874       4.41572187       6.00821106       0.00104228      -0.00353512       0.00076479
H       10.13929699       3.03046142       6.85110525       0.00446385      -0.00391202      -0.00346331
C        4.77163130       4.63819032       8.11917370      -0.00345081       0.00565451       0.00130362
C        4.77075408       6.15960735       8.17661699      -0.00604242       0.00561869      -0.00147787
C        3.37352522       4.03425119       8.10764492      -0.00213623       0.00276789      -0.00087181
C        6.16194246       6.75972002       8.32367913      -0.00794309       0.00818276       0.00513336
C        3.38831683       2.51371571       8.14275604       0.00115226       0.00282204      -0.00268529
C        6.16126801       8.28013415       8.27594048      -0.01013937       0.00798482       0.00379489
H        5.31824201       4.30443093       7.22874661      -0.00084385       0.00511450       0.00327432
H        5.33041253       4.24317218       8.97445877      -0.00458711       0.00821771       0.00311771
H        4.14439017       6.49210046       9.01284892      -0.01103827       0.00601289      -0.00556323
H        4.29615841       6.55737784       7.27131045      -0.00165275       0.00330746      -0.00472617
H        2.80977926       4.41524700       8.96487124      -0.00513814       0.00044893      -0.00182155
H        2.83919810       4.38406223       7.21929485      -0.00146338       0.00226038      -0.00136998
H        6.60287685       6.42179419       9.26719652      -0.01275799       0.00989022       0.00782898
H        6.80792348       6.36582631       7.53530520      -0.00299720       0.00867711       0.00897887
H        3.96971608       2.10525593       7.31393965       0.00443929       0.00528977      -0.00142112
H        2.38406216       2.09043689       8.08545961       0.00228283       0.00113690      -0.00652862
H        3.84372917       2.15225304       9.06590474      -0.00108361       0.00229992      -0.00186379
H        5.70667880       8.63961773       7.34939085      -0.00083786       0.00650569      -0.00113672
H        5.58766807       8.69946340       9.10515707      -0.01980737       0.00757307      -0.00278863
H        7.17214164       8.68424902       8.33109628      -0.01154852       0.01000446       0.01417121
