149
Lattice="12.640209544730256 0.0 0.0 0.0 12.640209544730256 0.0 0.0 0.0 12.640209544730256" Properties=species:S:1:pos:R:3:forces:R:3 energy=-260615.71875 stress="-6.165445665828884e-05 0.0002721519267652184 0.00022094524319982156 0.0002721519267652184 -0.001168783288449049 0.00021750616724602878 0.00022094524319982156 0.00021750616724602878 -0.00010697596735553816" pbc="T T T"
Rh      13.66088480      12.04331860      -1.29024822       0.00596923       0.00235407      -0.00263718
O        9.49639005      13.32237088       4.59711843       0.01311756       0.02497339       0.00000584
O       10.51077270      12.68300212       2.78995035       0.01009333       0.01213294       0.00563490
O        8.70585049      11.62201441       3.49938904      -0.00389719       0.03161705       0.00305521
N        9.48365570      12.52960830       3.69620218       0.00810081       0.02896334       0.00652564
O        1.47447797      12.50666471       9.37280029       0.00401449       0.00580406      -0.00579069
O        2.94466487      12.49696905      10.92297228       0.00695463      -0.00689381      -0.00937629
O        3.53239740      13.10302650       8.89637970       0.00556028       0.00182691      -0.00795221
N        2.70881780      12.72574391       9.67891987       0.00361675      -0.00079362      -0.00667930
O        3.33024393      12.52544532       3.42996653      -0.01126605      -0.00280219       0.01019204
O        4.42144703      10.97695842       4.54799146      -0.00400662      -0.01323485       0.00476533
O        4.63116409      13.07499934       5.06412081       0.00523871      -0.01327980      -0.00623417
N        4.17797826      12.15901876       4.40410773      -0.00527549      -0.01427884       0.00127557
O        7.95253431       2.82976765       2.20969472      -0.00020167      -0.00447047      -0.01542336
O        6.33924572       4.35672646       1.91367959      -0.00210118      -0.00235152      -0.00831705
C        8.46493543       5.05218301       2.79097416       0.00124729      -0.00733376      -0.00630468
C        7.45929782       4.06498109       2.27038457       0.00402915      -0.00583035      -0.00843096
H        8.89570540       4.69404090       3.72432425       0.00510617      -0.01215783      -0.00996964
H        9.28872036       5.13786715       2.08044370      -0.00147104      -0.00146745      -0.00864841
H        7.99205674       6.01882380       2.92936369       0.00058331      -0.00900088       0.00121179
H        7.28881214       2.26274046       1.74280806      -0.00303051      -0.00462358      -0.01185537
O       12.34083366       1.12585722       7.58084565      -0.00322843      -0.00062993      -0.00970840
O       13.56389022       2.85848536       8.25807509       0.00972646       0.01457596      -0.01991577
C       11.67254695       2.18363462       9.58017588      -0.00206494       0.00566337      -0.01507843
C       12.61667770       2.12409810       8.43318909      -0.02590412      -0.01178539      -0.00684947
H       10.68227510       1.82252953       9.31783187      -0.00234543      -0.00515926      -0.01103006
H       12.06271968       1.51812139      10.35832621       0.00031251       0.01570781      -0.00775379
H       11.64270897       3.18877102       9.98604652      -0.01316022       0.00856560      -0.02213009
H       13.09812050       1.04649908       6.98133703      -0.00867563      -0.00445526      -0.00981116
O       11.23219491       3.55699425       6.32913180      -0.01847965      -0.00622767      -0.01949996
O       11.56971028       5.29229729       4.97248428      -0.01113039      -0.00056467      -0.00475076
C        9.86366637       5.44389523       6.66017713      -0.00105053       0.00153950       0.00054285
C       10.97325046       4.79654900       5.90691576      -0.00665459       0.00091493      -0.01335683
H        8.93067925       5.16728231       6.16742241      -0.00395489       0.01987224      -0.00323963
H        9.80508454       5.08618538       7.68371701      -0.00446374      -0.01301543      -0.00574863
H        9.95448247       6.52511302       6.62461718       0.01188392       0.00066218       0.01555350
H       11.92827370       3.18958019       5.76205093      -0.02571821      -0.00909734      -0.02715558
O        2.23340020       6.74001596       2.40708257      -0.00317752       0.00469404      -0.00428850
O        3.56370588       8.02242746       3.66992360       0.00658225      -0.02532363      -0.00129187
C        4.43019595       7.12190381       1.62345619      -0.00187564      -0.00264333      -0.00357789
C        3.39434210       7.36423980       2.67001835       0.00226745      -0.00015426       0.01291001
H        5.02235196       6.24581289       1.90402727       0.00412457       0.00155236      -0.00454863
H        3.98109784       6.93344286       0.65100315      -0.00466675      -0.00496598      -0.00073854
H        5.10854961       7.96823768       1.57347502      -0.00624030       0.00089140      -0.00489000
H        1.56920570       7.05451336       3.05163123      -0.00164851       0.00361367      -0.00043230
O        6.50281199       8.90895844       9.11593860       0.01696496       0.00912845       0.02076709
O        8.03053088      10.20183146       8.10246654       0.02866626      -0.01635627      -0.03209794
C        5.74933945      10.95540468       8.19831854       0.01523024      -0.00428200      -0.00424002
C        6.89039633      10.01950615       8.44742144      -0.02135062      -0.00554201       0.00439408
H        5.57119930      11.03524268       7.12412351       0.01132764       0.00037167      -0.00344685
H        4.83602669      10.63089211       8.68788855       0.01076365      -0.00158523      -0.00180712
H        6.02852350      11.94749296       8.54774179       0.01330681      -0.00407232      -0.00154276
H        7.29740057       8.36689739       9.25263524       0.01031461       0.00927341       0.02296834
O        2.24523296      10.61786767       2.29428949      -0.03896475       0.01377159       0.02258098
O        1.28988440      11.81366876       0.68134086       0.00969201       0.01017451      -0.00092131
C        1.24740636       9.41142065       0.52468822       0.00034820       0.00504893       0.00331980
C        1.62256063      10.69134963       1.21401037      -0.01406020       0.00934392       0.00826997
H        2.13098870       8.98960828       0.03907698       0.00078952       0.02135330      -0.00867078
H        0.93388422       8.69885573       1.28740800       0.00446144      -0.00982205      -0.00951955
H        0.48133086       9.56297419      -0.23536418       0.00491250      -0.01355909      -0.00356082
H        2.91416305      11.66088140       2.94288794      -0.03565311       0.01046290      -0.00354947
O        4.69961466       2.67117123      12.30198928      -0.00323921      -0.00432488      -0.01229656
O        6.38525985       1.47323033      13.17592193      -0.00740498      -0.01200271      -0.00621903
C        6.32161893       1.86339586      10.81182929      -0.00213853      -0.00883441       0.00015712
C        5.81998420       1.97456659      12.21917174      -0.01064100      -0.00678372      -0.00035214
H        5.54113117       1.42328648      10.19065158       0.00816931      -0.01691542      -0.01311461
H        6.51273300       2.86160129      10.41434878       0.00374770      -0.01297934      -0.01894539
H        7.22756141       1.26578385      10.77880270       0.00573575      -0.01166160       0.00124665
H        4.33471850       2.65731724      13.22118919      -0.00771403       0.00757184      -0.01929134
O        2.24670936       9.78601745       8.16605554      -0.00736886      -0.01649952       0.02904701
O        0.97904413       8.41520667       6.92329997       0.01181722       0.00268036       0.01346326
C        3.37355488       8.32243607       6.70042083      -0.00224322       0.00382084       0.01230481
C        2.07483855       8.80127260       7.25292513      -0.02256536      -0.00990245       0.01220446
H        3.63592891       8.96330716       5.85616404      -0.00834379       0.00751351       0.01334587
H        4.16635282       8.37862037       7.44314654      -0.00212949       0.00521527       0.00999041
H        3.25699393       7.31658642       6.30816825       0.00017139       0.00460224       0.01023114
H        1.36637564      10.03704811       8.48433467      -0.01052982      -0.02566116       0.03327039
O        8.51156393       7.41163068      10.84215690       0.00703633       0.00022238       0.01051813
O        7.15357109       7.53033910      12.62376315       0.01641536      -0.02262855       0.02659988
C        7.28633445       5.46827509      11.41560405       0.01198915      -0.00839031      -0.00872024
C        7.60984036       6.90165678      11.69903760       0.01706910      -0.01860142       0.00145888
H        7.31882888       5.25021355      10.35007977       0.00462600       0.00679632      -0.01227227
H        8.05205473       4.85842374      11.90226097       0.01466829      -0.01587503      -0.02307397
H        6.32770362       5.20760983      11.85486807       0.01502705      -0.01526473      -0.00616691
H        8.87131605       8.25378742      11.24246128       0.00770953      -0.00479439       0.01622212
O       10.57670751      10.85903875       0.84829699       0.00964634       0.00325519       0.00974335
O        9.74004114       9.48139740      -0.68204708       0.01411608      -0.00585917       0.01511848
C        9.52001963       8.89553817       1.64000412      -0.00125112       0.01293546       0.01782000
C        9.92365107       9.76001072       0.49017680       0.00852981       0.00316070       0.01436752
H       10.41207268       8.37319917       1.99933691      -0.00743344       0.00236280       0.01699802
H        9.14657070       9.50148110       2.46247043       0.00846083       0.02058266       0.01625945
H        8.77239864       8.17815430       1.31783236      -0.00956072       0.02025914       0.02169067
H       10.39874394      11.94765469       2.12657292       0.00712945       0.01112095       0.00902465
O        6.49458302       3.70795207       5.21442544      -0.00238566      -0.00684968       0.00572437
O        6.79693426       4.40770313       7.31758381      -0.00513189      -0.00254506       0.00499409
C        7.29591843       2.12870174       6.75478104      -0.01692784      -0.00685036       0.01271620
C        6.82338447       3.51398965       6.46989390      -0.00691879      -0.00559914       0.00682846
H        6.69114778       1.39907624       6.22081337      -0.02624975      -0.00498098       0.02073279
H        8.31384199       2.03290081       6.36865847      -0.02014142      -0.01679272       0.00746550
H        7.30305481       1.93683492       7.82284058      -0.01300018      -0.00057902       0.01358953
H        6.22548453       4.67507863       5.05625206       0.00672420      -0.00527187       0.00245520
O        2.93145219       4.67355387       8.23914506       0.00862765      -0.01296133      -0.00022399
O        2.20987867       5.77341664      10.06195625       0.00113487      -0.01945874      -0.01135147
C        4.48258960       6.04429280       9.33446932      -0.00396967       0.00549290       0.00302678
C        3.08542488       5.51604502       9.26826393       0.00734997      -0.03615203       0.02611816
H        5.10079481       5.25050979       9.75429442      -0.00102969       0.01426055      -0.00369269
H        4.87213174       6.25776221       8.34306935      -0.00290916       0.01580228       0.00349584
H        4.53660154       6.92196757       9.96997785      -0.01184167      -0.00024989       0.01487096
H        2.07469390       4.20930801       8.32243708       0.01954810      -0.02233999       0.00475131
O       11.68024557      11.78141201      11.45890146       0.00473619       0.00748976       0.00570935
O        9.68318550      12.34510497      10.67656825      -0.01292443      -0.00271833       0.01433051
C       11.09942708      11.10276350       9.21072477       0.00081401       0.00797194       0.00464690
C       10.75564210      11.81417725      10.48125607       0.00964028      -0.00269270       0.00483257
H       12.17351313      11.09083083       9.03252657      -0.00243068       0.02975483      -0.00622907
H       10.76770677      10.06961099       9.33161034       0.02303523       0.00258707       0.00735680
H       10.56452983      11.53790021       8.37247100      -0.01363020      -0.00462100       0.00756107
H       10.99442722      11.32844458      12.64612649       0.00724631       0.00282825       0.00821880
O        6.83016599       6.94290584       6.58232763      -0.01832829      -0.00135237       0.01205736
O        5.97353540       6.16493647       4.66927697       0.02387413      -0.00622821      -0.00356054
C        6.53586397       8.47677144       4.79312698       0.00573049      -0.00400990       0.00684837
C        6.41039863       7.09755551       5.33689841       0.00552493      -0.00400680       0.00500602
H        6.76614204       9.20465460       5.56480543       0.01285529      -0.00453729       0.00437805
H        7.34478385       8.47496886       4.05818658       0.00136735      -0.00250480       0.00381829
H        5.61513735       8.72575431       4.26612445       0.00261086      -0.00032230       0.01314899
H        6.74368186       5.97571917       6.84877980      -0.01547711      -0.00228310       0.00904833
O        1.53805160       2.19313484       3.35167621      -0.00526851       0.01445806      -0.01246127
O        3.04741713       2.44365216       1.73282436      -0.00503680       0.00837088      -0.01169121
C        3.45644720       3.47258896       3.87033086      -0.00082707       0.00638711      -0.01160657
C        2.69819231       2.67440283       2.86884876      -0.00332531       0.00851589      -0.01259458
H        2.79952809       4.16874605       4.38882758      -0.00012092       0.00734143      -0.01216601
H        3.86712261       2.77754043       4.60591545       0.00022880       0.00621018      -0.01234037
H        4.27132715       3.99771419       3.38239245      -0.00243646       0.00668437      -0.01306690
H        1.18164686       1.59088473       2.67959967      -0.00830717       0.01522855      -0.01216018
O       11.12531794       7.90110804       4.99860127      -0.00275618       0.00167280       0.00066149
O       12.77491935       8.09734504       3.50998742       0.00057495      -0.00729740      -0.00463879
C       11.99638994      10.05828658       4.65643954       0.00228134      -0.00138569      -0.00322655
C       12.03170003       8.60165340       4.32822374      -0.00696218       0.00290447       0.00506991
H       11.00438846      10.44898046       4.42870948       0.00106095       0.00085932       0.00579184
H       12.15357133      10.17548696       5.72799030       0.01265281       0.00045335      -0.00466862
H       12.75755905      10.58617915       4.09112871      -0.00229359      -0.00238065      -0.01025440
H       11.29863277       6.93598646       4.83573417      -0.00607598       0.00176657       0.00054410
O       11.61625644       6.74297340      12.02113117       0.01055361       0.00840607      -0.00658607
O       12.25551459       8.24619843      10.47964014       0.02198285       0.01528347      -0.00601578
C       11.72704546       6.00176192       9.79434148      -0.00149872       0.01514846      -0.00912601
C       11.89814535       7.13050290      10.75455610       0.00709054      -0.00075603      -0.00488041
H       12.54355409       5.29989755       9.97018623      -0.00384638       0.00958499      -0.01866953
H       10.77316170       5.50362415       9.96299525      -0.00240965       0.01746111      -0.00414503
H       11.80420914       6.37897521       8.77994381      -0.00898536       0.01997779      -0.00809447
H       11.81576031       7.49611603      12.59472181       0.01711160       0.00261241      -0.00417659
