142
Lattice="11.84720606990125 0.0 0.0 0.0 11.84720606990125 0.0 0.0 0.0 11.84720606990125" Properties=species:S:1:pos:R:3:forces:R:3 energy=-233843.234375 stress="-0.00043864556937478483 0.001340694958344102 0.0011442137183621526 0.001340694958344102 -0.0001810919784475118 -0.00039231400296557695 0.0011442137183621526 -0.00039231400296557695 -0.0016919431509450078" pbc="T T T"
Ru       9.48338622      11.76138066      -0.59278718      -0.00604334      -0.00449073       0.01721841
S        5.60768173      11.47575350       9.08226466       0.01231503       0.00521874      -0.00452730
O        5.77301121      10.09959479       8.59658860       0.00770217       0.00240922       0.00498205
O        5.79431683      12.49136267       8.06413575       0.02148321      -0.00110483      -0.01163089
O        6.37346442      11.72140991      10.31990833       0.00844926       0.01098567      -0.00429964
C        3.90433790      11.55686517       9.59384806       0.01185930       0.01807624      -0.00967586
H        3.73938323      10.81035164      10.36667893       0.00705661       0.02329259      -0.00594221
H        3.70789624      12.54610648       9.99644367       0.01664666       0.02062556      -0.01449053
H        3.28259344      11.36494794       8.72066609       0.01191068       0.01672622      -0.00899207
S        9.95363003       9.45739518       9.05444231       0.01368409       0.00877424       0.00847909
O        9.95498980       8.55070161      10.21691286       0.00776973       0.00554270       0.00073749
O       11.19380628       9.49760204       8.33530428       0.01746845       0.01607289       0.01480347
O        9.52354500      10.87035774       9.45704806       0.00686648       0.00645959       0.01198536
C        8.60940998       8.93107665       8.05840380       0.02279735       0.01622877      -0.00753570
H        7.70638246       9.00360248       8.65952482       0.01795924       0.01185446      -0.01394427
H        8.55252697       9.56321319       7.17913342       0.02948143       0.02411397      -0.00190222
H        8.82019224       7.90921967       7.75094984       0.02561868       0.01909922      -0.01388614
S        9.81846750       9.37931345       4.19699464       0.01543170      -0.01888943       0.01327375
O        9.79158048       8.22349361       3.27990419       0.00877788      -0.00261116      -0.01047599
O       10.10508618       9.00320551       5.56838661       0.03520572      -0.02588296      -0.02109361
O        8.66457650      10.26026019       4.02813974       0.01549113      -0.02265024       0.02790253
C       11.21789423      10.34873978       3.66009492       0.00530207      -0.00485319      -0.00697410
H       11.12858725      10.52641144       2.59113815      -0.00612270       0.00189360      -0.00603171
H       11.20877210      11.28692041       4.20661461       0.00683264      -0.00829026      -0.00037111
H       12.12774442       9.79732560       3.88295786       0.01195511      -0.00112300      -0.02083381
O        5.72306426       0.66951861       2.86260112      -0.00519148      -0.01158130      -0.00045556
C        6.30328264       1.00323727       4.13012988      -0.00035715      -0.01184148      -0.00271587
C        7.53306753       1.87642133       3.99710367      -0.00742692      -0.00271314      -0.00663475
H        5.56262744       1.49553803       4.76888239       0.00000361      -0.01914576       0.00276524
H        6.56374693       0.05306279       4.59057295       0.00884211      -0.01148826      -0.00755255
H        7.84634135       2.21787781       4.98524292      -0.00656645      -0.00010896      -0.00796883
H        8.35573287       1.31937715       3.54910359      -0.00435846       0.00461258      -0.00960460
H        7.33420438       2.76314655       3.39397896      -0.01634666      -0.00459312      -0.00601761
H        5.51248796       1.48928942       2.40615974      -0.01300894      -0.01130621       0.00353033
O        9.76265453       9.91787495       0.40040506      -0.02062330      -0.00928375       0.01209706
C        8.39268785       9.91645178       0.90829092      -0.02120286      -0.00359339       0.00897369
C        8.13190035      11.38471533       0.84246859      -0.01750022      -0.00288171       0.00653882
H        7.75661805       9.37218332       0.20601405      -0.02278095      -0.00281903       0.00972798
H        8.37714513       9.46856857       1.89952370      -0.02185984      -0.00213683       0.00968289
H        7.10099959      11.70871496       0.78217794      -0.01656537      -0.00166176      -0.00164274
H        8.68385969      11.92696957       1.63278639      -0.02322314      -0.00278322       0.01036969
H        8.01080597      11.75511190      -1.11982789      -0.00219014      -0.00362904       0.00733369
H        9.87400196       9.21746675      -0.32044518      -0.01867214      -0.00733571       0.01131846
O       -0.48906901       1.73974038       9.11962199      -0.00840168      -0.00098410       0.01333350
C        0.42629440       1.10268211       9.99447235      -0.00359733      -0.00203891       0.00775129
C        1.33973977       2.07093741      10.71143074      -0.00793892      -0.00150037       0.01153505
H       -0.19390434       0.55359620      10.73379302       0.00057316      -0.00979754       0.00480355
H        0.98936447       0.33496437       9.45533761      -0.00175512       0.00408736       0.00127232
H        1.96826925       1.54902172      11.43414435       0.00000344      -0.00199479       0.00378232
H        1.98854699       2.58077201       9.99628827      -0.01621142       0.01004121       0.01284766
H        0.75886591       2.82360202      11.24610802      -0.01134551      -0.01107225       0.02058957
H       -0.04673371       2.45107905       8.59363953      -0.01097330      -0.00072602       0.01112086
O        1.85910559       2.53492049       3.14540255       0.00649518      -0.01841873      -0.01344520
C        2.78276035       2.23232382       4.17605655      -0.00431103      -0.00330192      -0.00034285
C        2.74486124       0.74718616       4.44806814      -0.00061724      -0.00017637       0.01513429
H        3.79737893       2.52795446       3.87722018      -0.00257087      -0.00176753       0.00799617
H        2.54572032       2.79075089       5.09403245      -0.01685807       0.00492394      -0.00920302
H        3.45169580       0.47468111       5.23202441      -0.00751776       0.01123346       0.02518341
H        1.74467518       0.43945577       4.75398412      -0.00182365      -0.00176304       0.00904400
H        3.01145381       0.20349798       3.54201645       0.00957113      -0.00902329       0.02360627
H        2.08338531       3.41047674       2.78707923      -0.00125565      -0.01544896      -0.01111934
O        8.61244906       5.73573704       3.54435062      -0.01227981       0.01754457       0.00197738
C        7.43257432       6.35752072       3.06438525      -0.01309288       0.01004644      -0.00242114
C        6.35601769       5.31707428       2.86592422      -0.00534692       0.00273508      -0.00379840
H        7.09457329       7.12351894       3.77155400      -0.02102405       0.00917128      -0.00525463
H        7.63769479       6.87244991       2.11756116      -0.01378608       0.00932711      -0.00285310
H        5.43683806       5.79636102       2.52189176      -0.00690910      -0.00545158      -0.01036474
H        6.66059400       4.57993370       2.11974726       0.00456382       0.00270136       0.00081509
H        6.14060134       4.79830387       3.80096183      -0.00577856       0.00468829      -0.00297788
H        9.23299216       6.47937547       3.65607979      -0.01153618       0.01997233      -0.00634803
O       10.78501664       3.36154723       5.56245538       0.00519514      -0.00955471       0.00053200
C       11.20443250       1.98732218       5.50530615       0.00118592      -0.01046667      -0.00029610
C       10.24778150       1.01129889       6.16444382      -0.00150734      -0.00837129      -0.00167394
H       11.42326300       1.72291839       4.46754104       0.00064912      -0.00995508      -0.00049084
H       12.15873449       1.98457180       6.03510782       0.00083494      -0.01335664      -0.00001693
H       10.77284299       0.09623829       6.44675662      -0.00486785      -0.01233876      -0.00855531
H        9.84038469       1.43507172       7.08092463       0.00406791      -0.01119237       0.00188221
H        9.42862753       0.71886006       5.51203552      -0.00553781      -0.00117213       0.00013569
H       10.04615812       3.52829689       4.96872287       0.00032426      -0.00892624       0.00681375
O        9.34716942       1.92117453      10.70762284      -0.00224245      -0.00530314       0.01424664
C        8.18197490       2.75941616      10.86855428      -0.00404729      -0.00540659      -0.00298707
C        8.58899918       4.18625012      11.14855953      -0.00809638      -0.00664127       0.00693361
H        7.53803366       2.67683940       9.99559736       0.01058418      -0.00293341      -0.01346707
H        7.65420355       2.32244899      11.71593116      -0.01905325      -0.00683151      -0.01372871
H        7.71465128       4.75848847      11.45555253      -0.01332399      -0.00578178      -0.01151682
H        9.33361570       4.23715244      11.94461894      -0.02509473      -0.00770152       0.02188127
H        8.97499406       4.67472495      10.25645486       0.01122273      -0.00588356       0.01644441
H        9.94173770       2.11448556       9.93631205       0.00346515      -0.00963554       0.01651013
O       12.10467234       3.95283921       7.85333300      -0.00687104      -0.00920042       0.00537968
C       11.20814141       4.71244629       8.68007243      -0.00020565       0.00243989       0.00134996
C       11.48283074       6.19035038       8.65588268       0.00479150       0.00082338      -0.01632162
H       10.17796362       4.49985462       8.37229819      -0.00232536       0.00302319       0.00885732
H       11.33344056       4.32437220       9.69299045       0.00392125       0.01277059       0.00461537
H       10.82820539       6.69319580       9.36592700       0.00988981       0.01082873      -0.01914442
H       12.51114291       6.39478921       8.95235302       0.00678749      -0.00037562      -0.02308381
H       11.31533113       6.62786153       7.67190595       0.00177672      -0.01000198      -0.02038312
H       11.71543448       3.95644473       6.95867866      -0.00798714      -0.01324069       0.00568873
O        2.32226871       5.02740811       1.97166042      -0.00279498      -0.00769198       0.00127545
C        0.96774108       5.52398023       1.91041377      -0.00101382      -0.00287614      -0.00036967
C        0.51397733       6.08821501       3.23106952      -0.00254618      -0.00450861      -0.00056338
H        0.89625952       6.27214932       1.11481672       0.00323220      -0.00072709       0.00129926
H        0.36248922       4.66575078       1.61717169      -0.00310716      -0.00011984      -0.00417023
H       -0.47270985       6.54153191       3.14121379      -0.00324863      -0.00618340      -0.00102389
H        0.48638456       5.31651467       4.00152208      -0.00212708      -0.00488970      -0.00096312
H        1.18503119       6.88553034       3.55824054      -0.00437477      -0.00335480       0.00056937
H        2.83896607       5.68220191       2.45184484      -0.00285594      -0.01268318       0.00793371
O        5.69457176       6.72359652      10.79125792      -0.00120343      -0.00253585       0.00243002
C        4.52961247       7.54954098      10.64213389       0.00315416       0.00278977      -0.00224695
C        3.26990824       6.72010349      10.51775148      -0.00012690       0.00892463      -0.00616143
H        4.46628741       8.24905464      11.48327952       0.00290887       0.00389004      -0.00331599
H        4.70700556       8.13591473       9.74274449       0.00884508       0.00100327      -0.00197148
H        2.39638108       7.36588749      10.40909381       0.00362633       0.01295391      -0.01159934
H        3.32264610       6.07391075       9.63999236       0.00104182       0.00705524      -0.00447650
H        3.11644301       6.09056787      11.39955493      -0.00686018       0.01179241      -0.00537002
H        5.59167345       6.21313810      11.60012101      -0.00865152      -0.00420736       0.00032715
O        3.36292238      10.88933019       0.90446997       0.01120532       0.00647569      -0.00163090
C        2.00617872      10.51593026       1.10447833       0.01199952       0.00247538      -0.00301639
C        1.84929568       9.09622843       1.61290734       0.01571909       0.00234139      -0.00263220
H        1.50178166      11.22466860       1.77131252       0.00938931       0.00128868      -0.00373849
H        1.53319507      10.60489813       0.12298835       0.01282440       0.00060205      -0.00349233
H        0.79412566       8.82303918       1.67585376       0.01651701      -0.00096732      -0.00346260
H        2.35018185       8.39931481       0.93982132       0.01804464       0.00333872      -0.00189179
H        2.28266338       8.98974677       2.61065172       0.01557899       0.00410518      -0.00232030
H        3.80117804      11.00747298       1.75391683       0.00915449       0.01272004      -0.00148124
O        6.29252606       4.50654272       9.13342961       0.00954700       0.00995314      -0.01263124
C        5.46120443       4.08422150       8.05973287      -0.00186750       0.00807765      -0.00240403
C        5.38915043       5.11821374       6.95448727       0.00103167      -0.00272918      -0.01213795
H        5.88509280       3.14267591       7.70851458      -0.01329547       0.00081933       0.00405599
H        4.45070992       3.84833513       8.42374774      -0.00154513       0.02249512       0.00644904
H        4.77517745       4.75154809       6.12812070      -0.00700822      -0.00495784      -0.00478464
H        4.94995052       6.05516826       7.30246469       0.01188911       0.00440997      -0.01864202
H        6.38739247       5.34004037       6.57375004       0.00111328      -0.01711879      -0.01944591
H        5.96724462       5.34731675       9.49306740       0.00892304       0.00679928      -0.00586303
O        4.28045704       8.35007574       7.11716010      -0.00807071      -0.00194159       0.01950610
C        2.97897091       8.76594183       6.76294229      -0.00424874       0.00381434       0.01336384
C        2.20306365       7.55621766       6.29653841      -0.00208372       0.00932544      -0.00270465
H        2.45836995       9.22734367       7.61308348      -0.00969830      -0.00249439       0.01334417
H        3.00972232       9.51887484       5.96059885       0.00348311       0.01029396       0.02020240
H        1.18173066       7.82782383       6.02449951      -0.00018291       0.01298475      -0.00351907
H        2.70053897       7.09980549       5.43869043       0.00113043       0.01835501      -0.00558126
H        2.16106678       6.80754961       7.08787183      -0.00604573       0.00132647      -0.01070690
H        4.77149831       9.08691660       7.52952192      -0.00408454      -0.00223294       0.01477453
