136
Lattice="12.70537205341803 0.0 0.0 0.0 12.70537205341803 0.0 0.0 0.0 12.70537205341803" Properties=species:S:1:pos:R:3:forces:R:3 energy=-822426.5 stress="0.0009756239596754313 0.0005386057018768042 0.0006263020040933043 0.0005386057018768042 0.0010281181894242764 0.00015992464614100754 0.0006263020040933043 0.00015992464614100754 -0.0007236195378936827" pbc="T T T"
Ru      13.69014114      12.12804144      -2.66527054      -0.00266087      -0.00017923      -0.00765683
I        8.95511101      11.48943668       4.78996834       0.00723437       0.00412115      -0.00934476
O        8.62496560      11.22650052       3.05058995       0.00706381       0.00739500      -0.01065302
O        7.59571070      10.79216716       5.72087358       0.00925136      -0.01023233      -0.01811063
O       10.49174956      10.72237943       5.28630486       0.01250207       0.01836771      -0.00459790
O        9.02834765      13.25272637       5.13401907       0.00927785       0.00371075      -0.00722626
I        1.16968610      10.08120747       7.10731078       0.01358909      -0.00129182      -0.00388877
O        0.94796834      10.85548298       5.52909419      -0.00281052       0.01967129       0.00887966
O        2.87258294       9.77653510       7.52027229       0.01996022       0.00902274      -0.02045658
O        0.39866738      11.20899853       8.43719350      -0.00188931      -0.02309185       0.00452840
O        0.19476876       8.60923492       7.30098770       0.03225464      -0.01519543      -0.01670060
I        6.12104844       9.39387891      10.23348658      -0.01032255      -0.00098670      -0.00073143
O        4.52740273       8.88723490      10.87864853      -0.01455665       0.02048677       0.00581521
O        6.19762503       9.12976171       8.46697842      -0.01867593      -0.00297028      -0.00084770
O        6.38520477      11.10994521      10.66696383       0.01024647      -0.00208056      -0.00481135
O        7.42205493       8.42409344      10.99911367      -0.02079332      -0.01463580      -0.00270975
O        4.99258186       4.63558038       8.83070744       0.00360683      -0.00851597      -0.00825343
O        6.80239297       5.72903654       9.27534889       0.00261968      -0.00638086      -0.00765556
O        6.38147150       5.17979241       7.12271028      -0.00153720       0.00222897      -0.00850797
C        4.15455447       3.92741323       7.89219161       0.00196779      -0.00602282      -0.00899640
C        2.80980334       3.72878322       8.53940760       0.00098389      -0.00237441      -0.00978267
C        6.09309130       5.18743697       8.29416799       0.00154218      -0.00383629      -0.00916529
C        7.99124277       6.41111540       8.83175409      -0.00247398       0.00219388      -0.00861210
H        4.09063953       4.50914104       6.97434356       0.00427200      -0.00562224      -0.00900048
H        4.63584909       2.97505905       7.65865636      -0.00053838      -0.00754172      -0.00855059
H        2.17356906       3.13873701       7.87905406      -0.00047623      -0.00046524      -0.01022851
H        2.90704561       3.20588635       9.48951071      -0.00145511      -0.00290943      -0.00971541
H        2.32145730       4.68424382       8.73021252       0.00334254      -0.00095674      -0.01037592
H        8.66803920       5.69493810       8.37213599      -0.00112607       0.00895512      -0.01756644
H        8.40387122       6.86201049       9.72668174       0.00079056      -0.00292352      -0.00762218
H        7.72080681       7.19664419       8.12980206      -0.00996736       0.00605023      -0.00154924
O        3.73890011      12.54577461       6.08021305      -0.00424731       0.00821963      -0.00916106
O        2.85843090      12.69628495       8.05478187      -0.00795108      -0.01383409      -0.01103817
O        5.06248483      12.19603814       7.88066305       0.00992513       0.04030079      -0.00792468
C        4.82378905      12.08018870       5.23100567       0.00040978       0.01792244      -0.00686491
C        4.26743866      12.03270533       3.83569632       0.00896537       0.00714076      -0.00944239
C        4.00845760      12.45107007       7.37411192      -0.00651658       0.01471534      -0.01209739
C        2.91140720      12.25206865       9.41382641      -0.00352427       0.00363395      -0.00750387
H        5.67264984      12.75591588       5.33481677      -0.00596571       0.02655792      -0.00881585
H        5.15219144      11.10777501       5.59473545       0.00923812       0.02256948      -0.00265503
H        5.05949378      11.75645792       3.14291007       0.01870449       0.00925203       0.00107688
H        3.46082198      11.30256983       3.76699661       0.01554155       0.00026414      -0.01436631
H        3.87496558      13.00834866       3.54609899       0.00482477       0.00254041      -0.01953335
H        3.38654072      11.26935438       9.42896574       0.00341445       0.00662297       0.00790950
H        1.67743122      11.10834599      10.92129355       0.02093875       0.01035953      -0.01835948
H        3.53107301      12.93336249       9.99986422      -0.01045182       0.01495177      -0.01283383
O        1.59022415       7.71129178       4.11140912      -0.00786150       0.02554317       0.04113829
O        1.50716308       9.43307484       2.81283634      -0.00411099       0.02308086       0.02781744
O       -0.37300920       8.20494006       3.10277581       0.02491355      -0.01045921      -0.01517862
C        0.93584735       6.61372649       4.78402264      -0.00606388       0.00195098       0.00631952
C        2.01594209       5.81925668       5.46961545      -0.00277621       0.00604513       0.00745001
C        0.78855811       8.43367665       3.32771642      -0.02843082       0.00347997       0.00822625
C        0.74267583      10.39091119       2.07586762      -0.01185885       0.01350158       0.02061552
H        0.22507835       7.03076217       5.49702541      -0.02111876      -0.02393281       0.00490069
H        0.38606192       6.02307600       4.04834602       0.01714167       0.01001179      -0.01349640
H        1.55417689       5.07107552       6.11454253      -0.00379203      -0.01119111      -0.01084772
H        2.66252609       5.31883505       4.74745042       0.01319826       0.02394260       0.00914314
H        2.62780049       6.47656540       6.08766614      -0.01973151       0.00153431       0.02830184
H        0.00200043       9.89613607       1.44936466       0.01506108       0.00034335       0.00478451
H        1.46803065      10.92892465       1.46939709      -0.00389460       0.01915449       0.03125881
H        0.23712133      11.06376031       2.76908478      -0.04927713      -0.00090045       0.00816962
O        9.67727608      11.05381641       9.47486272      -0.00301588      -0.00154425       0.00456336
O       11.07531325       9.52065969       9.95141548      -0.01046076      -0.00708354       0.00742301
O       11.52355022      11.63720466      10.64538266       0.00097615      -0.00733101       0.00060946
C        9.04030223      12.35740583       9.63260043       0.00664768       0.00231536       0.00542793
C        8.16849576      12.57224447       8.42876116       0.01175356       0.01220772       0.00389028
C       10.80933804      10.81305814      10.06500617      -0.00305280      -0.00634629       0.00354046
C       12.21561312       9.00097799      10.63052794      -0.01211043      -0.01020272       0.00870704
H        8.44940862      12.27831340      10.54556247       0.00367135       0.00370960       0.00375211
H        9.81734859      13.11441792       9.73770057       0.01180470      -0.00364569       0.01076813
H        7.46937843      13.38441496       8.62797649       0.02071652       0.02001891       0.00486372
H        8.74928047      12.82541575       7.54290827       0.01493318       0.00486811       0.00374895
H        7.57200924      11.68734727       8.21757565       0.00060141       0.01983064       0.00474561
H       13.12973887       9.47656895      10.28564981      -0.00942543      -0.02238891      -0.00152101
H       12.24230124       7.94851741      10.36947184      -0.02575088      -0.01394653       0.02092691
H       12.10937939       9.13454926      11.70638162      -0.00746869       0.00204041       0.00741470
O        4.76199225       1.90834847      12.33987101      -0.01278797      -0.00026276       0.02085114
O        2.84445362       0.91738144      12.27073645      -0.00843889      -0.01217668       0.01271936
O        2.92924936       3.14596038      11.84442824      -0.01478183      -0.01864386      -0.01070189
C        5.63531395       3.06446797      12.16215668      -0.01709056       0.00336105       0.01375821
C        7.02361577       2.51774599      11.94722599      -0.01572111       0.00811094       0.00934017
C        3.47559429       2.11128864      12.13139319      -0.01363584      -0.00832856       0.00517696
C        1.50237206       0.90038535      11.83027587      -0.00913942      -0.01658493       0.01248455
H        5.28632500       3.63440630      11.30218634      -0.02108371       0.00139490       0.01420963
H        5.55578636       3.68833125      13.05291773      -0.01590410       0.00481412       0.01267791
H        7.72091162       3.34845215      11.83432653      -0.01922209       0.01027159       0.00153558
H        7.34206714       1.90196384      12.78764176      -0.00879055       0.01339908       0.01052585
H        7.06692760       1.90834677      11.04573911      -0.01710110       0.00415814       0.01172756
H        0.88980994       1.67269281      12.29288122      -0.00644490      -0.00668833      -0.00066602
H        1.07895142      -0.10896673      12.03878375      -0.00980718      -0.00844398       0.02799444
H        1.43719635       1.07678144      10.69040541      -0.00447471      -0.02238041       0.00752419
O        9.49038653       3.58022360       7.16337719       0.00047955      -0.00726311      -0.00080857
O       10.18255298       3.20085138       9.17399310       0.00053708      -0.00332105       0.00003451
O       11.36573815       4.63274797       7.87837431       0.00185168      -0.00827682      -0.00369188
C        9.57236033       4.29128714       5.90021743       0.00491968      -0.01351446      -0.00446889
C        8.56907079       3.67412640       4.96735811      -0.00073385      -0.00964886      -0.00112584
C       10.43540295       3.88135680       8.03825176       0.00158262      -0.00595599      -0.00174507
C       11.08233165       3.50112665      10.24206153       0.00208901      -0.00220372      -0.00126782
H        9.36237958       5.34457754       6.10088494       0.01440504      -0.01075447      -0.00861475
H       10.59419015       4.21034960       5.52924092       0.00366956      -0.02389321      -0.00496052
H        8.60730894       4.20125662       4.01269035       0.00174532      -0.01386014      -0.00313060
H        8.78242387       2.61557534       4.80508461      -0.00794847      -0.01165366       0.00153091
H        7.56420334       3.77785703       5.37242858       0.00008258       0.00018842      -0.00118896
H       12.11830391       3.39470903       9.92559434       0.00166535      -0.00302406      -0.00240456
H       10.84456345       2.78985849      11.02838419       0.00278743      -0.00117721       0.00000435
H       10.92581547       4.52101701      10.59453228       0.00233037      -0.00192150      -0.00213788
O        8.81102226       7.96306414       0.86628520       0.00563014      -0.00693011      -0.00867567
O        7.40892917       9.59917778       0.97887387       0.00807455      -0.00218225      -0.00338532
O        6.61034149       7.48329575       1.06603923       0.01403093       0.00447392       0.00979643
C        9.04896109       6.55846148       0.76136259       0.00178289      -0.00928873      -0.00657233
C       10.52512006       6.34093848       0.97665054       0.00284135      -0.00913510      -0.01189417
C        7.50806483       8.28326493       0.95888474      -0.00437599      -0.01713401       0.00203130
C        6.07763643      10.08730442       1.17072141       0.00896928      -0.00302321       0.00113599
H        8.44829864       6.03415437       1.50733591       0.00474063      -0.00619274      -0.00338417
H        8.70865761       6.22751302      -0.22483543      -0.00075710      -0.00932124      -0.00510323
H       10.75559248       5.27446819       0.93661815       0.00201928      -0.00972180      -0.01453904
H       11.10980195       6.85208312       0.21055480       0.00065000      -0.00832419      -0.01289283
H       10.83658936       6.73585920       1.94292093       0.00649424      -0.01095934      -0.01235273
H        5.40296781       9.67995275       0.41717964       0.00605825      -0.00391147       0.00492859
H        6.15990382      11.16440893       1.07214460       0.01055801      -0.00316483      -0.00219249
H        5.72091185       9.81009407       2.16163005       0.01337788       0.00095569       0.00340211
O        4.79384875       7.32776913       3.29091917      -0.00418788      -0.00406843       0.01170105
O        3.45995301       7.17825191       1.60447379      -0.00313976       0.00136179       0.01023406
O        4.65225684       5.34691218       2.19827915       0.00541389       0.00464749      -0.00284457
C        5.91206272       6.82594970       4.06099446      -0.00196782      -0.00367004       0.01005548
C        6.48953570       7.99033906       4.82025457       0.00078802      -0.00245702       0.00676909
C        4.34771814       6.50760730       2.34732934       0.00176442      -0.00308275       0.00549819
C        2.92941774       6.43970168       0.50161802       0.01396263       0.01021595      -0.00446311
H        5.55854193       6.03456240       4.72436621      -0.00152668      -0.00189036       0.01229173
H        6.62407668       6.39475153       3.35604787      -0.00407416      -0.00462022       0.00928563
H        7.36866306       7.67537969       5.38245441       0.00338340      -0.00121540       0.00408211
H        6.80209820       8.78978585       4.14950237      -0.00098014      -0.00287315       0.00525160
H        5.77965260       8.40444374       5.53561958       0.00382586      -0.00174642       0.00904360
H        3.69168281       6.29665868      -0.26157143       0.02626562       0.01691320       0.00663468
H        2.12499348       7.05608983       0.10751063       0.02032939       0.01352581      -0.01178759
H        2.55013177       5.47275340       0.82957179       0.00926477       0.00728437      -0.01899593
