140
Lattice="12.404971415438093 0.0 0.0 0.0 12.404971415438093 0.0 0.0 0.0 12.404971415438093" Properties=species:S:1:pos:R:3:forces:R:3 energy=-228126.53125 stress="-0.0014433383475989103 0.00017012344324029982 -0.000935462536290288 0.00017012344324029982 -0.002098778495565057 -8.390383663936518e-05 -0.000935462536290288 -8.390383663936518e-05 -0.0008393303141929209" pbc="T T T"
Ru      12.22597758      13.31492398       0.27625862       0.01619613       0.00829565       0.00704384
S        5.40354296      10.35758943       8.02923774      -0.03557616      -0.01642835       0.02365094
N        4.07561111      12.65200017       8.96103433       0.00291121      -0.01830721      -0.00844407
C        4.61569319      11.68448971       8.55809297      -0.03786804       0.01712537       0.01922090
S        6.65464465      11.77706675      11.05506917       0.01170266      -0.01958377      -0.01371704
N        9.31008068      11.14559680      11.50560535       0.01523697       0.00841987       0.00566927
C        8.14167624      11.46824386      11.35666727       0.01273072      -0.00658479      -0.00742143
S       12.05088846      11.20807212      -0.58469394       0.01484364       0.01213233      -0.00217992
N       10.41708007      13.02321116       0.05950480       0.01343846       0.00210464       0.01682478
C       10.41499326      11.81252989      -0.47418765       0.01375735       0.00740954       0.00803733
O       10.44628589       5.06065240       2.16929039       0.01347138       0.00949201       0.00426904
C       11.38274464       3.14998289       1.21459989       0.00775340       0.00806177       0.00208271
C       11.03132626       2.81497461       2.66392197      -0.00140548       0.00387627      -0.00152412
C       11.51832092       4.66727055       1.31554726       0.01441342       0.00679082       0.00759271
C       10.05100392       3.94036400       2.98138045       0.00748053       0.01042968       0.00222491
H       12.34639311       2.74097818       0.79659309       0.00888780       0.00666535       0.00663849
H       10.54742220       2.91475986       0.55773260       0.01149052       0.01292158      -0.00403468
H       10.58765578       1.83072289       2.79527241      -0.01076062       0.00733462      -0.00979866
H       11.92143221       2.88033921       3.29597804      -0.00349525      -0.00857449       0.00209987
H       12.48211576       4.95114410       1.76039382       0.01428142       0.00067200       0.01147637
H       11.41215887       5.18700850       0.36249718       0.02024837       0.01008810       0.00888485
H        9.03334509       3.64989735       2.69587085       0.00488585       0.01922649       0.00373539
H       10.04442271       4.23745330       4.03228684       0.01201481       0.00780950       0.00290287
O        7.53085188       1.68065234       5.57366353      -0.00735205      -0.01618887       0.00903556
C        5.30093692       1.02328847       5.81059747      -0.01235449      -0.00222141       0.00341555
C        5.33811468       2.54884574       5.75628392      -0.00223529      -0.00274065       0.00164881
C        6.70778365       0.74771019       6.29516354      -0.01550198      -0.01109166       0.00652625
C        6.73497250       2.80510266       5.19179530       0.00036538      -0.01221613       0.00454765
H        4.54381108       0.62846847       6.48034820      -0.01582439       0.00347701       0.00275087
H        5.15501418       0.60552118       4.80966055      -0.01306735      -0.00245203       0.00364888
H        4.54539343       2.98738776       5.15029888       0.00212599       0.00170888      -0.00043568
H        5.25042922       2.95497665       6.76740983      -0.00166208      -0.00101992       0.00088933
H        6.78595713       0.92902064       7.37531515      -0.01667192      -0.01202478       0.00660455
H        7.07648208      -0.25421210       6.09581608      -0.02221332      -0.01346093       0.00665860
H        6.71623005       2.84592314       4.09645893       0.00323389      -0.01381012       0.00438845
H        7.19681667       3.72330721       5.56792127       0.00457448      -0.01434070       0.00392872
O        8.50640480       9.40289975       3.63956325       0.00716653       0.00211495      -0.01527668
C        9.58968834      11.49083166       3.45442949       0.01397905       0.00022250      -0.00577739
C        8.08893785      11.69893033       3.26750553       0.01481274       0.00405395      -0.00657469
C        9.71352658      10.00265925       3.16651435       0.01186368       0.00002766      -0.00634549
C        7.52743777      10.42792887       3.88554210       0.01218066       0.00453556      -0.00884783
H       10.20535808      12.09014163       2.78562868       0.01555906      -0.00089507      -0.00506309
H        9.87068737      11.71226325       4.48756799       0.01375196      -0.00050170      -0.00574294
H        7.71701593      12.60155866       3.75091215       0.01642255       0.00355008      -0.00436175
H        7.84735899      11.74051274       2.20129181       0.01553630       0.00656085      -0.00642869
H        9.80702784       9.83070825       2.08547214       0.01809867       0.00006161      -0.00547045
H       10.56116315       9.52521959       3.66334508       0.00761610      -0.00176400      -0.00124806
H        7.38668738      10.52018862       4.96813648       0.01702278       0.00320080      -0.00819981
H        6.57245764      10.11986397       3.46428154       0.00993329       0.00828227      -0.00593743
O        1.33441910       3.47427798      10.74281894       0.00272107       0.00240821       0.01215440
C        3.57760111       2.87433457      10.50571702       0.00234115       0.00464158       0.00489238
C        3.40401400       4.23759157       9.83791068      -0.00163025       0.00346966       0.00436065
C        2.16579618       2.34745826      10.42079628       0.00291431       0.00295231       0.01063949
C        2.03384966       4.67208231      10.36086121       0.00094765       0.00278892       0.01072297
H        4.27249169       2.20562649      10.00701843       0.00119101       0.00499111       0.00322282
H        3.87402961       3.00929244      11.54820042       0.00624573       0.00647173       0.00352105
H        4.19178301       4.94575108      10.09021527      -0.00109336       0.00432670      -0.00029485
H        3.38299770       4.11503645       8.75191468      -0.00672848       0.00231223       0.00477043
H        1.96519179       1.98008736       9.40806667      -0.00052775       0.00087959       0.01250643
H        1.90696392       1.53309850      11.11451775       0.00701369       0.00340521       0.01274577
H        2.12648021       5.30379412      11.24849514       0.00509875       0.00155094       0.01096123
H        1.44300451       5.21548616       9.61617036      -0.00243774       0.00340304       0.01422763
O        3.83604243       0.35778979       2.48812680      -0.01285145      -0.00723413      -0.01450421
C        2.72185533       2.35894785       1.91708060       0.00057185       0.00399449      -0.00144872
C        4.22691663       2.61403897       1.92080290       0.00208944      -0.00640231       0.00205869
C        2.63151945       1.08475475       2.74610185      -0.01127225      -0.00415254      -0.01702961
C        4.76829286       1.19802296       1.79443136      -0.00855251      -0.00875252      -0.01103222
H        2.13197372       3.17691024       2.33071807       0.00585098       0.00324547       0.00667310
H        2.37478201       2.17923019       0.89326550       0.00088976       0.01824938      -0.00356376
H        4.57402145       3.27622463       1.12826285       0.00648475      -0.00129214       0.00825056
H        4.52489300       3.04981659       2.87597355       0.00522274      -0.01757038       0.00591478
H        2.57286484       1.31460332       3.81905269      -0.01792490      -0.01773226      -0.01545185
H        1.77023914       0.46006654       2.47552631      -0.01404580       0.00594905      -0.03278787
H        4.82085714       0.88717016       0.74387034      -0.01354358      -0.00021377      -0.01364130
H        5.75541103       1.06587734       2.24317393      -0.00826272      -0.01926993      -0.01531243
O        6.07297881       7.84774238       3.90276127      -0.01504812       0.00738466      -0.01274991
C        6.01708373       5.49178335       3.61805843      -0.00266403       0.00568974      -0.00440351
C        5.57353936       6.20968122       2.34873677      -0.00366908      -0.00089455      -0.00806630
C        6.08146290       6.62963620       4.64540932      -0.00849664       0.01003033      -0.00877909
C        6.28810062       7.53453867       2.53294545      -0.01269355       0.00420764      -0.01149219
H        5.33863755       4.70219906       3.92838414      -0.00017434       0.00431933      -0.00258612
H        7.00343889       5.04957639       3.47217630      -0.00096706       0.00848325      -0.00092557
H        5.82711421       5.68214284       1.43036330       0.00231309      -0.00205985      -0.00552240
H        4.49675546       6.37647846       2.37666719      -0.00483251      -0.00785798      -0.01224583
H        5.20837569       6.64488910       5.30364505      -0.00808495       0.00777517      -0.00849354
H        6.98036331       6.56583578       5.26482694      -0.00792235       0.01710456      -0.00913855
H        7.36333242       7.43960837       2.32597114      -0.01218712       0.01125745      -0.01077953
H        5.89029591       8.35677611       1.93637725      -0.01820064      -0.00053418      -0.01406483
O       10.37733693       3.40113804       8.02180712       0.00076728       0.00368685       0.01204443
C       11.65610611       1.51029834       8.64104454      -0.00440335      -0.00296503       0.00300537
C       10.19359993       1.09354782       8.50612635      -0.00534599       0.00246233      -0.00150698
C       11.52786460       3.02035376       8.78400695       0.00072074      -0.00313425       0.00864542
C        9.62650006       2.23291400       7.66900019       0.00059529       0.00737554       0.00168490
H       12.15601719       1.05175793       9.49209922      -0.00696862      -0.00766978       0.00176984
H       12.20969949       1.25552952       7.73351222      -0.00378375      -0.00147919       0.00306100
H       10.05664616       0.11944300       8.03839950      -0.00789967       0.00488465      -0.00542150
H        9.72414212       1.05547565       9.49192582      -0.00781505       0.00069986      -0.00289902
H       11.38050220       3.30221911       9.83153532       0.00284262      -0.00658831       0.00973696
H       12.39283133       3.57040265       8.40809571       0.00210375      -0.00497881       0.01005162
H        9.74559003       2.03246061       6.60040154       0.00608112       0.01205227       0.00147951
H        8.57005028       2.43840167       7.84450808       0.00022495       0.00840786      -0.00284429
O        6.41026833       4.74171352      11.39521655       0.00599590      -0.00347269       0.01117766
C        8.72098551       4.91173882      10.89956352       0.00496739      -0.00865237       0.00666928
C        8.34807620       3.44550017      11.09282073       0.00256765      -0.00781929       0.00734323
C        7.54520003       5.61143111      11.56636027       0.00833976      -0.00679994       0.00998925
C        6.85583774       3.49511129      10.83472789       0.00193536      -0.00522187       0.01217302
H        9.67247900       5.19098496      11.34927389       0.00664420      -0.01114882       0.00420207
H        8.76397739       5.12902736       9.83122833       0.00261928      -0.00800510       0.00674051
H        8.87086901       2.77561573      10.41550897      -0.00113352      -0.00844750       0.00531062
H        8.53995838       3.11757227      12.11677514       0.00567243      -0.00875596       0.00625783
H        7.73175915       5.74200605      12.63813132       0.01111767      -0.00874124       0.00970966
H        7.30690880       6.58782554      11.13638460       0.00984094      -0.00578544       0.01195160
H        6.64525167       3.48322039       9.75694458      -0.00187920      -0.00678921       0.01336378
H        6.29832409       2.68344799      11.30147649       0.00224507      -0.00340417       0.01547077
O        7.88468123       5.51541307       7.47409304      -0.00629595      -0.00402743      -0.00619622
C        8.62646605       7.60196333       8.31357894       0.00285271      -0.00637293      -0.00988239
C        7.11607221       7.66132374       8.10428835       0.00260606      -0.00133967      -0.00450645
C        9.00261660       6.42209298       7.42674140      -0.00374135      -0.00786293      -0.01030076
C        6.75177482       6.19107342       8.04365903      -0.00158607      -0.00002015      -0.00235436
H        9.13130667       8.52357961       8.02591517       0.00553563      -0.00863412      -0.01228110
H        8.86843426       7.40143722       9.35991765       0.00407545      -0.00729689      -0.01039115
H        6.57208810       8.20308215       8.87619087       0.00690114      -0.00151064      -0.00147817
H        6.89322634       8.15073878       7.15331776      -0.00014334      -0.00122096      -0.00341821
H        9.14878802       6.75659619       6.39164306      -0.00669811      -0.00997442      -0.01111507
H        9.88729140       5.87051113       7.74461258      -0.00405493      -0.01006457      -0.01337372
H        6.55863497       5.78173658       9.04134530       0.00186481       0.00168908      -0.00109887
H        5.87366246       5.99195236       7.42474244      -0.00514486       0.00386976       0.00165859
O        2.38401751       8.30938159       3.25726741       0.00192168      -0.00586885      -0.00247425
C        2.12649416       7.26527204       1.16600080      -0.01535003       0.00723431      -0.00604713
C        1.96334477       8.77048321       0.96674422      -0.00594077       0.00904170       0.00230694
C        1.84168243       7.13867638       2.65536604      -0.00994911       0.00183129      -0.00570184
C        2.55061076       9.33122380       2.26001920       0.00194518      -0.00105493       0.00273836
H        1.44853758       6.66837438       0.55792060      -0.02227445       0.01552981      -0.00606689
H        3.14965318       6.95691261       0.93974192      -0.01867756       0.00086933      -0.01178199
H        2.47106685       9.15033087       0.08090093      -0.00714636       0.01057947       0.00244418
H        0.90582818       9.02507264       0.87908173      -0.00450313       0.01578465       0.00745053
H        0.75865028       7.08721818       2.83628463      -0.00936407       0.00919811      -0.00123874
H        2.30635387       6.26732564       3.12617709      -0.01464559      -0.00390771      -0.01237375
H        3.61882460       9.55004500       2.16569556       0.00225776      -0.00496270      -0.00039366
H        2.05186808      10.24369113       2.59342847       0.00741968      -0.00098902       0.00983259
