142
Lattice="12.823549412907214 0.0 0.0 0.0 12.823549412907214 0.0 0.0 0.0 12.823549412907214" Properties=species:S:1:pos:R:3:forces:R:3 energy=-240501.46875 stress="-0.0013549530413001776 0.0002960469137178734 -0.00026368485123384744 0.0002960469137178734 0.0002841216919478029 0.00047266097681131214 -0.00026368485123384744 0.00047266097681131214 -0.002131705405190587" pbc="T T T"
Ru      11.48724524      12.05524171       1.14114993      -0.00755143      -0.00308810       0.01997648
P        5.27313718       5.36245256       9.02355765       0.00067771       0.00594902      -0.00305003
O        6.29157764       4.07620577       8.94477244      -0.00536740       0.00089943      -0.00165260
O        4.34144000       4.98593338       7.79790769       0.00276852       0.01186275      -0.00509477
O        4.52810942       5.32127219      10.32433209      -0.00282407       0.00658306      -0.00375533
O        6.15102047       6.54952415       8.75572807       0.00585425       0.00140440       0.00099790
H        5.82731035       3.28753475       9.23904833      -0.00896473       0.00262445      -0.00339071
H        3.51341291       5.52344814       7.55730235      -0.00079247       0.01104362       0.00251134
P        5.76233789      10.14471653       4.46057757      -0.01625687      -0.00278422       0.02302110
O        6.45474522       8.97306315       3.57599480       0.00235164      -0.00303352       0.00720292
O        7.13260711      10.98300879       4.81900999      -0.00161242       0.01278996      -0.00993437
O        4.90336600      11.00624703       3.60618287       0.00310838       0.00296211      -0.02921236
O        5.24167531       9.49467835       5.69723028      -0.00282401       0.03899491      -0.02802587
H        6.65298112       9.31088977       2.69576236      -0.00029922      -0.01417765       0.00029147
H        6.91310271      11.68343177       5.43996498       0.00180877      -0.00894642       0.01592521
P        2.12346794       7.09794847       5.82109803       0.00823483      -0.00576821      -0.00540504
O        3.58391408       7.44478755       5.28212873       0.01091826      -0.00725296       0.01074684
O        1.59890626       6.17158049       4.57093093       0.03281182      -0.02809107       0.00028312
O        2.22283038       6.13700894       6.98557402      -0.00915813       0.01557362       0.00986028
O        1.23819201       8.28127187       5.93654578       0.00022674      -0.00414658      -0.03742075
H        4.04799539       8.27701773       5.55544798      -0.00034410       0.00713313       0.00144352
H        1.74941438       5.25787484       4.83025975       0.01008774      -0.02231294       0.03094237
C        6.44403609      10.31324865       9.31351617       0.00078715       0.00331292      -0.00462379
C        7.00452030       9.52702058       8.31369644      -0.00047055       0.00297886      -0.00422139
C        6.86556092      11.62297225       9.50427492       0.00318240       0.00204881      -0.00280450
C        8.02258980      10.05663166       7.52967863       0.00088447       0.00195503      -0.00435334
C        7.87757717      12.15294041       8.71054193       0.00436006       0.00103050      -0.00192626
C        8.46498872      11.35923572       7.73149888       0.00233513       0.00091450      -0.00279699
H        5.66119642       9.90447647       9.93581487      -0.00071608       0.00456265      -0.00571440
H        6.64503005       8.51198019       8.16700524      -0.00080381       0.00353110      -0.00432317
H        6.40122853      12.22991762      10.27089083       0.00435138       0.00217999      -0.00218360
H        8.45077925       9.46341996       6.73479661      -0.00046026       0.00174414      -0.00424458
H        8.19665469      13.17854147       8.85188166       0.00664822      -0.00015521      -0.00038458
H        9.25295521      11.76314298       7.10736987       0.00361522       0.00029734      -0.00229408
C       10.78774202       8.70793393      11.10991299       0.01720052       0.02001274      -0.01311837
C        9.79020238       9.65024893      10.88859209       0.01695250       0.01979899      -0.01168082
C       11.83549197       8.98402100      11.98672144       0.00732282       0.01077156       0.00145682
C        9.79284448      10.87381022      11.55971649       0.00814013       0.01114693       0.00335522
C       11.84754614      10.19603163      12.65725428      -0.00113511       0.00264855       0.01557043
C       10.80668117      11.10783476      12.46523440      -0.00088584       0.00243539       0.01449065
H       10.75469490       7.76442367      10.58009095       0.02316875       0.02657436      -0.02445536
H        8.98125017       9.42550989      10.20306549       0.02425534       0.02632095      -0.02220938
H       12.64007354       8.27690310      12.12721060       0.00563881       0.00950056       0.00363906
H        8.97806077      11.56480963      11.40874331       0.01001745       0.01306403       0.00377304
H       12.69243979      10.41440352      13.34845895      -0.00919248      -0.00268208       0.02693238
H       12.36631200      12.99451832      13.13301151      -0.00316389      -0.00651315       0.02089942
C       10.42061657       4.60598460       8.49002202       0.00900107      -0.00391488      -0.00721094
C       11.61804808       5.06805749       7.94913155       0.00819971       0.00654158       0.00062240
C        9.33159424       5.45990089       8.62404980       0.00281149      -0.01191141      -0.00797807
C       11.73467867       6.39063300       7.53475775       0.00126904       0.00900482       0.00686868
C        9.45389532       6.78526707       8.22310109      -0.00433439      -0.00923523      -0.00056702
C       10.64847463       7.24655074       7.68045279      -0.00503758       0.00081015       0.00647924
H       10.32307924       3.56946432       8.79285317       0.01462455      -0.00587381      -0.01274329
H       12.47135820       4.40954257       7.84285099       0.01327109       0.01311278       0.00158371
H        8.37647876       5.10755841       8.99366891       0.00364521      -0.01950626      -0.01352889
H       12.66251159       6.75795000       7.11227824       0.00062776       0.01543400       0.01130348
H        8.58726512       7.42534271       8.31797673      -0.00914431      -0.01602556      -0.00051169
H       10.74488072       8.27546585       7.35297058      -0.01102635       0.00296050       0.01180440
C        2.76755633       8.93062509       2.45571103      -0.01428160      -0.00176509       0.01033081
C        3.48188250       8.07438688       1.62622053      -0.01319599       0.00610599       0.00150789
C        1.38392940       8.81684827       2.52686208      -0.01368228      -0.01602529       0.02169749
C        2.83160714       7.13053703       0.83967733      -0.01118028       0.00230603       0.00569738
C        0.73056084       7.85396451       1.76894031      -0.01032045      -0.02075822       0.02529733
C        1.44840503       7.02278189       0.91523982      -0.00895803      -0.01099683       0.01737497
H        3.29924703       9.66588380       3.05111688      -0.01634338      -0.00010270       0.00656530
H        4.56111383       8.12901332       1.61840083      -0.01428747       0.01705093      -0.00727060
H        0.82947039       9.43709409       3.21936887      -0.01222674      -0.02500126       0.02962965
H        3.39325104       6.47805140       0.18072995      -0.01013601       0.00877170       0.00043978
H       -0.34229688       7.74367745       1.85333084      -0.00800857      -0.03475577       0.03455682
H        0.93505632       6.28273886       0.31127203      -0.00682462      -0.01474676       0.02013990
C       10.35222878       1.11993344       1.33414132      -0.00802141      -0.00305899       0.01285008
C       10.28851137       0.28793593       2.49791956      -0.00632522       0.00157858       0.01591928
C       11.15731776       2.29260030       1.39023855      -0.00130545      -0.00756726       0.00331613
C       11.14401869       0.56820640       3.59843495       0.00664794      -0.00249418       0.00674075
C       11.94234400       2.56177740       2.48562836       0.01148593      -0.01099966      -0.00498742
C       11.96169187       1.67782155       3.58130599       0.01602107      -0.00981131      -0.00450975
H        9.56017071       1.08791249       0.59820982      -0.01149648      -0.00264565       0.01659557
H        9.45010163      -0.38587639       2.65634803      -0.00848140       0.00591689       0.02235153
H       11.13945762       2.98494113       0.55773536      -0.00427259      -0.00981436       0.00189380
H       11.11738323      -0.08803934       4.45962624       0.01090182      -0.00048393       0.00827643
H       12.53164690       3.46907930       2.52241890       0.01901490      -0.01601113      -0.01268882
H       12.58142115       1.90293255       4.43949690       0.02856370      -0.01465220      -0.01245390
C        5.66616883      11.42528735       0.62984421      -0.00964747      -0.00499292      -0.00021117
C        5.39854187      10.24366983      -0.04423089      -0.00956938       0.00328149      -0.01412092
C        6.89443963      11.60913735       1.25776550      -0.01243466      -0.01388666       0.00606209
C        6.35125059       9.22782751      -0.08488159      -0.01072770       0.00228991      -0.02136809
C        7.84275215      10.59834649       1.21724128      -0.01289225      -0.01400413      -0.00198733
C        7.57156364       9.40492519       0.55116009      -0.01316272      -0.00644270      -0.01612766
H        4.90540418      12.18909168       0.71063676      -0.00915030      -0.00522844       0.00732851
H        4.43515877      10.08640943      -0.51047655      -0.00801952       0.00971688      -0.01858068
H        7.08235973      12.51796572       1.81392221      -0.01444495      -0.02198425       0.02007788
H        6.13097184       8.29958654      -0.59749631      -0.01062677       0.00826713      -0.03249755
H        8.79093719      10.71299636       1.72311876      -0.01507398      -0.02016488       0.00357477
H        8.31647356       8.62053843       0.53116011      -0.01479687      -0.00780812      -0.02264273
C        6.78795811       4.57080665       2.33068038      -0.00622764      -0.00402835       0.00329553
C        6.36529458       3.24723844       2.32449263      -0.00017248      -0.00576052       0.00645106
C        5.93460149       5.57196881       2.77036889      -0.01117402      -0.00675857      -0.00080845
C        5.08551579       2.92407687       2.75488117       0.00063632      -0.01001802       0.00532839
C        4.65014244       5.25668915       3.20355859      -0.01046090      -0.01095182      -0.00246511
C        4.23231984       3.93340821       3.19143506      -0.00442052      -0.01293716       0.00073209
H        7.79040582       4.81369096       2.00304853      -0.00678615      -0.00052023       0.00447926
H        7.03466230       2.47061655       1.97555446       0.00387533      -0.00378301       0.01004005
H        6.27005185       6.60062543       2.82089338      -0.01580926      -0.00544184      -0.00308373
H        4.75908547       1.89083405       2.76214601       0.00524843      -0.01165861       0.00743098
H        4.00467823       6.03509767       3.58930707      -0.01565945      -0.01343551      -0.00684585
H        3.23853866       3.68409777       3.54178881      -0.00418411      -0.01535710      -0.00071900
C        6.45149597       1.90115484      11.72215925      -0.00354990       0.00748882       0.00576454
C        7.81261852       1.67669298      11.53330248      -0.00505376       0.00489080       0.00098818
C        5.97625247       3.19434479      11.87879190      -0.00085697       0.00843897       0.00451664
C        8.69646458       2.74757192      11.51815384      -0.00306624       0.00320853      -0.00469235
C        6.86303174       4.26459121      11.86529506       0.00087743       0.00687596      -0.00174965
C        8.22097786       4.04218213      11.69869205      -0.00048338       0.00433213      -0.00617036
H        5.76572376       1.06257945      11.73327412      -0.00477046       0.00851816       0.01082190
H        8.17923804       0.66883693      11.38872140      -0.00745858       0.00410084       0.00155677
H        4.91854409       3.39981530      11.96022543      -0.00000063       0.00981872       0.00931709
H        9.75277069       2.57400813      11.34882314      -0.00427999       0.00108753      -0.00840065
H        6.46142584       5.26529448      11.92389831       0.00298192       0.00771743      -0.00308921
H        8.90716039       4.87884114      11.66020771       0.00077009       0.00295252      -0.01119090
C        6.70885356       5.40893454       5.85233005       0.01089025       0.00968814      -0.00487567
C        6.73836748       4.01948955       5.85168114       0.01077905       0.01018234       0.00434437
C        7.82493047       6.12295966       5.43749500       0.01080210       0.00675735      -0.01209463
C        7.87652840       3.34892848       5.42479102       0.00965637       0.00649199       0.00715448
C        8.97130956       5.45446512       5.02536096       0.00960967       0.00280434      -0.00932279
C        8.99710330       4.06430478       5.01546669       0.00926688       0.00334863       0.00013036
H        5.81804911       5.92195322       6.18349921       0.01184833       0.01245220      -0.00705817
H        5.86562651       3.47981975       6.19144285       0.01139838       0.01294234       0.00972067
H        7.78667953       7.20455417       5.43586262       0.01136845       0.00614217      -0.02023101
H        7.89253684       2.26497508       5.40289841       0.00931100       0.00651990       0.01488996
H        9.85192102       6.01250646       4.73259374       0.00893612       0.00101769      -0.01486227
H        9.89006355       3.54219906       4.69300873       0.00823072       0.00061343       0.00224613
C        1.77756377      10.17259274       8.62215542       0.00170126      -0.00298718      -0.02123091
C        3.10520968       9.76170664       8.63075993       0.00162175      -0.00305003      -0.02036091
C        0.78245213       9.30687630       9.05532655       0.00271517       0.00293735      -0.00817812
C        3.43822768       8.49414570       9.09211720       0.00179544       0.00237429      -0.00597145
C        1.11660880       8.03892315       9.51057348       0.00298399       0.00788410       0.00450800
C        2.44294975       7.62925100       9.53574374       0.00280574       0.00758919       0.00549746
H        1.51372629      11.14989511       8.23816070       0.00108830      -0.00716144      -0.03163277
H        3.87388954      10.40814673       8.22946908       0.00035000      -0.00890107      -0.03113582
H       -0.25638914       9.60757905       9.00976036       0.00295854       0.00355668      -0.00709764
H        4.46062457       8.13490578       9.05717752       0.00141075       0.00172727      -0.00432708
H        0.33442924       7.34703371       9.79591413       0.00386481       0.01119059       0.01393482
H        2.72521065       6.63564423       9.86409529       0.00309944       0.01092094       0.01450270
