143
Lattice="12.67892167222309 0.0 0.0 0.0 12.67892167222309 0.0 0.0 0.0 12.67892167222309" Properties=species:S:1:pos:R:3:forces:R:3 energy=-343866.34375 stress="-0.001389417564496398 0.00029905748669989407 -0.00023541257542092353 0.00029905748669989407 -0.0018060212023556232 -0.00039286649553105235 -0.00023541257542092353 -0.00039286649553105235 -0.001307375729084015" pbc="T T T"
Ru      12.49768646      11.69825674      -0.38679112       0.00679880      -0.00435408      -0.00977373
O        3.34359892      11.29361003      11.47064134      -0.00785804      -0.00952959      -0.00238667
O        1.21914643      11.04282987      11.02921758      -0.00776184      -0.00634414      -0.00059432
O        2.33092638       9.45602252      12.02224923      -0.00507045      -0.01133251      -0.01348454
N        2.36061763      10.58356347      11.53867707      -0.00800291      -0.00870404      -0.00883380
O       11.28423718      11.25718681      10.75167298      -0.00384879      -0.00031593       0.00001842
O        9.39473148      11.94332488      11.67424190      -0.00039947       0.00414109      -0.00493169
O        9.37518134      10.49993501      10.06120340      -0.00167859      -0.00376153       0.00421405
N        9.95892579      11.24078099      10.84314574      -0.00400525      -0.00037899      -0.00159000
O        9.80700655      12.35460981       2.03981668      -0.01547152       0.01749656       0.01251078
O       11.15671927      11.00205149       0.93179887       0.00205213      -0.01040971      -0.00298721
O       11.30907277      13.07726847       0.58141085       0.01749754       0.03375754      -0.02158999
N       10.68634901      12.17306829       1.23711114      -0.00724478      -0.01098071       0.00550927
S       10.94688717       2.89913448       2.44696861       0.00001075       0.00050426       0.00846028
O       10.54176745       3.30946960       3.82562266       0.00854978       0.00079232       0.01034057
C       12.54738938       2.09915917       2.65019356       0.00472194       0.00625312      -0.00176375
C       11.53789996       4.38904585       1.62387205      -0.00960922       0.00019103       0.00102724
H       12.35028105       1.15859336       3.16218794       0.01278014       0.00604169       0.00003158
H       13.15782273       2.74655129       3.27840569       0.00802884       0.00857902      -0.00814728
H       13.01531603       1.89059208       1.69047694      -0.00205308       0.00747834      -0.00616616
H       12.02213687       4.12803536       0.68337112      -0.01615588      -0.00433843      -0.00209649
H       12.22314288       4.91268426       2.28976731      -0.00565413       0.00248722      -0.00759397
H       10.66184248       5.00620198       1.43353104      -0.01180245      -0.00245858       0.00412928
S        7.75743838       5.17731589       5.80457903      -0.01231562       0.00281206       0.01770926
O        7.35600889       5.64318334       4.43545952      -0.03305051       0.01566535       0.02959633
C        9.50387103       5.52135051       6.01147137      -0.01102912       0.00574449       0.00118501
C        7.90649308       3.38917246       5.72557235      -0.00664923       0.00449687      -0.00060403
H        9.61474406       6.60256485       6.02734081      -0.01269561       0.00559674       0.00966343
H       10.04985993       5.04865418       5.19537008      -0.01590139       0.01307282      -0.00647041
H        9.80355773       5.12682158       6.98512898      -0.00103935      -0.00131872      -0.00478691
H        8.29652088       3.03396872       6.67877281       0.00298460      -0.00140065      -0.00674732
H        8.60424436       3.14342326       4.92438146      -0.01189072       0.01210601      -0.00763145
H        6.92258277       2.96207803       5.54352419      -0.00651015       0.00220481       0.00436113
S        7.54569011       8.07726823       1.80701090       0.01106298      -0.00795823      -0.00035548
O        6.30035835       7.84505211       1.00316466       0.00680888      -0.01891667       0.00689042
C        7.12840103       9.29534455       3.06378008       0.00641710      -0.01457238       0.00272596
C        8.59762267       9.15110167       0.82074179      -0.00691780       0.00246900      -0.00758982
H        6.38024947       8.85834266       3.71905964       0.02060333      -0.02562521       0.01147019
H        6.73658324      10.19182257       2.58269033      -0.01347258      -0.02122872       0.00571008
H        8.01356791       9.53040055       3.65278115       0.00959887       0.00092900      -0.00770355
H        9.47455909       9.41842877       1.40570871      -0.00439480       0.00914435      -0.01466434
H        8.05804712      10.04709394       0.51509924      -0.01734729      -0.00171755      -0.00146340
H        8.90534459       8.58631016      -0.05722480      -0.01037803       0.00652571      -0.01075749
S        2.61659358       2.83742067      10.96947848       0.00549150       0.00824916       0.01354384
O        1.76127142       1.86271563      10.24416525      -0.01084518       0.01719499       0.01751721
C        2.95026718       4.17574750       9.79854901       0.01152402       0.00529906       0.01497430
C        4.27929091       2.15393447      11.02640819       0.00085133      -0.01097524      -0.00366306
H        1.98359730       4.61539633       9.55949773       0.01528741       0.01837463       0.02347209
H        3.40192679       3.75127245       8.90172255       0.00041744       0.00546341       0.01029322
H        3.59853363       4.92731807      10.24745357       0.02268697      -0.00552315       0.01738177
H        4.96497080       2.84414724      11.52234150       0.00759312      -0.01889001      -0.00355784
H        4.60989768       1.93041165      10.01221445      -0.01066172      -0.00970110      -0.00708178
H        4.20179158       1.22772407      11.59328704      -0.00594749      -0.00961143      -0.00456285
S        4.34499672       0.67513696       4.35682879       0.00194967      -0.00105047      -0.00367093
O        5.63513424       1.25454104       4.81484291       0.00145268       0.00434172      -0.01566881
C        4.22442009       1.08041229       2.59520770      -0.02304481       0.01161790       0.00179625
C        3.04262385       1.81379405       4.88739621       0.00076538      -0.01098698       0.02389951
H        4.96834500       0.47194575       2.08448798      -0.02926047       0.01868741      -0.01211373
H        4.47221215       2.13389198       2.47732779      -0.02756675       0.01371567       0.00713047
H        3.23530195       0.86090867       2.19475669      -0.02783854       0.01222453       0.01363245
H        2.12466903       1.58786660       4.34666825      -0.00670552      -0.02196901       0.04182208
H        3.38251839       2.82952480       4.68544876      -0.01478280      -0.00870986       0.01306510
H        2.88904185       1.67214157       5.95500209       0.02933021      -0.01057707       0.02625701
S        7.52195850       3.76541987       1.04734549      -0.00172496       0.00262839      -0.00002384
O        7.06085403       3.54846305      -0.36821272      -0.00546730       0.00548199      -0.00177133
C        7.54156830       2.13007875       1.78889296      -0.00635042       0.00444800      -0.00086096
C        6.10210244       4.45541468       1.89122115       0.00345916       0.00748053       0.00236377
H        8.45121591       1.63620027       1.45742638      -0.00926092      -0.00120036      -0.00315157
H        6.67349887       1.60013395       1.40457617      -0.01063393       0.00650707       0.00428294
H        7.51730938       2.18972835       2.87634858      -0.00236306       0.00510605      -0.00062086
H        6.28763865       4.48625976       2.96498374       0.00842497       0.01191009       0.00195754
H        5.23174348       3.86051977       1.61081378       0.00155815       0.00554954       0.01114151
H        6.00147350       5.47459863       1.51699066       0.00135433       0.00487670      -0.00134582
S       10.28417346       1.64621884       8.14345903       0.00013572      -0.00923848      -0.01230878
O        9.51961452       0.41568742       8.48764139      -0.00796461      -0.00635314      -0.02186316
C       11.40740442       1.21859803       6.79157848       0.00325847      -0.00855854      -0.00924259
C       11.54457617       1.86980021       9.40079558      -0.00438946      -0.02310746      -0.00541818
H       10.78121428       0.97047470       5.93712355       0.00609504       0.00262787      -0.01428962
H       12.02046473       0.36923031       7.09379999      -0.00518028      -0.01591846      -0.01191944
H       12.01789799       2.08821960       6.55009267       0.01194010      -0.01202419       0.00026356
H       12.16086949       2.72774340       9.14515318       0.00298180      -0.02631488       0.00211438
H       12.14633090       0.96818224       9.48910069      -0.01139779      -0.02799731      -0.00730091
H       11.02583607       2.06704441      10.33676291      -0.00722359      -0.02469306      -0.00718061
S        9.09846533       4.32441274      10.35857685       0.01114750       0.00134850       0.00183630
O       10.16644208       4.69044818       9.37038165       0.01521993      -0.00563139       0.00323927
C        7.65143202       3.78629182       9.41618992       0.01084429       0.00910951      -0.00063065
C        8.41546921       5.90094470      10.90208407       0.01800895       0.00485927      -0.00093685
H        7.85763329       2.78494831       9.04188550       0.00861803       0.01062019      -0.00524808
H        7.48778620       4.48469985       8.59468845       0.01304340       0.01343675       0.00283507
H        6.80695155       3.75241060      10.09708634       0.01026388       0.00823519      -0.00121698
H        7.43146072       5.76066628      11.33869588       0.01828426       0.00845607       0.00112572
H        8.39889894       6.54362294      10.02343743       0.01833245       0.00326504      -0.00220054
H        9.09487140       6.30952489      11.64772576       0.02068941       0.00369172      -0.00305507
S       10.99896303       8.59688460       8.30003264       0.01111603      -0.00482774       0.00384414
O        9.66475083       8.12818538       7.82817097       0.00960636      -0.00962144       0.01523012
C       12.21302425       7.48084790       7.55002842       0.00798008      -0.00551152       0.00046882
C       11.20931169       7.94726759       9.96813233       0.02334727       0.00304207       0.00494069
H       12.23564408       7.68122654       6.48019905       0.00124907      -0.00906625      -0.00011127
H       11.89352360       6.45533464       7.73603585       0.00989945      -0.00510041       0.00567394
H       13.19340835       7.67461027       7.98552129       0.01032113      -0.00325829      -0.00611337
H       12.19766884       8.21468224      10.33866935       0.02478211       0.00651261      -0.00163198
H       11.05386720       6.86813784       9.93099325       0.02504970       0.00279024       0.00923231
H       10.44978412       8.43936289      10.56852891       0.02603696       0.00390296       0.00745338
S        1.94861930       6.52387850       2.47549897       0.00050092      -0.00857228      -0.00548291
O        2.04884391       7.36561786       3.71197420      -0.00104621      -0.00413430      -0.00809717
C        2.46069718       4.87746534       2.99606735       0.01201046      -0.00365227      -0.00238612
C        3.38144939       6.88970727       1.45968048      -0.00619155      -0.00298493      -0.01243713
H        1.75028123       4.57408982       3.76254868       0.01542948      -0.00551905      -0.00025088
H        3.46744885       4.93502343       3.41127093       0.01267101       0.00247478      -0.00495131
H        2.41690535       4.19218389       2.14884241       0.01344215      -0.00553916      -0.00083560
H        3.49102166       6.10946509       0.70705890      -0.00424296      -0.00606278      -0.00894011
H        4.26441217       6.94426057       2.09361511      -0.00351422       0.00637917      -0.01691684
H        3.22061688       7.84057215       0.95902640      -0.01522568      -0.00791183      -0.01838203
S        5.55782213       9.55404610       8.88813196       0.01552153       0.01526174      -0.00019336
O        4.12456631       9.26172065       9.22632952       0.01079822       0.01338032      -0.02044797
C        6.54635206       8.46742581       9.91582067       0.00378481       0.01470023       0.01166528
C        6.01145825      11.09709056       9.68212903      -0.00154845       0.01272279       0.01165724
H        6.27797962       7.45733256       9.61146058       0.01059493       0.01448669       0.00715398
H        6.32208836       8.61162842      10.97324104      -0.00969877       0.01282784       0.00894155
H        7.59499620       8.65603059       9.68587939       0.00647116       0.01732139       0.02646044
H        7.08090694      11.25810916       9.54352895      -0.00026305       0.01538260       0.02486499
H        5.74478349      11.05196651      10.73595946      -0.01724780       0.00800042       0.00759676
H        5.44123285      11.87722867       9.18312561       0.00351712       0.01336618       0.00664750
S        1.58242752      11.25986140       2.43031356      -0.00161695      -0.00526188      -0.00335574
O        1.25473098      12.04430390       1.15108680      -0.00517178      -0.00082332      -0.00272965
C        3.17593191      10.47219935       2.16893721      -0.00444728      -0.00405252      -0.01125877
C        0.57506478       9.78829982       2.48563822      -0.00325456      -0.00335354      -0.00618600
H        3.94931651      11.18630859       2.43061876      -0.00319926       0.00110875      -0.02783705
H        3.25436307      10.15641342       1.13245239      -0.01303200      -0.01651307      -0.00797227
H        3.23064937       9.62442656       2.85100132       0.00403993       0.00390664      -0.00108917
H        1.01426448       9.13063173       3.23677688      -0.00177233      -0.00538842      -0.00705740
H        0.59422985       9.32014860       1.50018067      -0.00525686      -0.00221885      -0.00588843
H       -0.43339617      10.08361856       2.75300485      -0.00192192      -0.00320099      -0.00325481
S        3.93425194       9.30336846       5.37117563      -0.00610566       0.00061631      -0.00386059
O        5.15359620      10.10733360       5.67253972      -0.00822866      -0.00090754       0.00047916
C        2.59373544       9.96250516       6.38990420      -0.00771362      -0.00357461      -0.00311077
C        4.07230468       7.70284072       6.19952935      -0.00454395       0.00030351      -0.00637507
H        2.44021971      10.99084854       6.06599885      -0.01168042      -0.00417186      -0.00277514
H        2.88913561       9.92377604       7.44075314      -0.00346321      -0.00230724      -0.00428599
H        1.69215505       9.37856333       6.20720048      -0.00638710      -0.00578450      -0.00050833
H        3.22471383       7.10243771       5.87342188      -0.00943761       0.00125766       0.00452634
H        4.08520382       7.84151804       7.28043619       0.00742640       0.00411454      -0.00699353
H        4.99954983       7.25372613       5.84520712      -0.00949031      -0.00315726      -0.01499935
