148
Lattice="12.40078048932697 0.0 0.0 0.0 12.40078048932697 0.0 0.0 0.0 12.40078048932697" Properties=species:S:1:pos:R:3:forces:R:3 energy=-421630.21875 stress="0.0001736381382215768 -0.0008290723781101406 -0.00023799908376531675 -0.0008290723781101406 0.0008080251864157617 -0.00020448557188501582 -0.00023799908376531675 -0.00020448557188501582 0.0007176914950832725" pbc="T T T"
Ru      12.99191308      12.05332288       1.28082950       0.01069522       0.00763696      -0.00995891
Br       3.24857473      10.37814125       0.24200417      -0.00078494      -0.00268197      -0.01613045
O        4.22060143       9.54941845       1.25356795      -0.01517648       0.00300956       0.00348580
O        1.69113076      10.38289667       1.13484720      -0.01257277      -0.00021371      -0.04118133
O        3.72695893      11.93126617       0.22716000      -0.00845024      -0.00167429      -0.00641412
O        0.07591340      12.14057575      -0.31310907       0.01529105       0.02958951      -0.03601074
Br       0.58567401      11.98642812       5.97074698      -0.00154138       0.00728238      -0.01660180
O        0.28090982      10.36793147       6.36303507      -0.00067779       0.01248837       0.00564128
O        0.63260143      12.80385064       7.39994926      -0.01652595       0.02789843      -0.02496147
O        2.09113729      12.01371167       5.31502804      -0.00013423       0.00061037      -0.00422931
O        0.10125752      11.98513737       2.89958865      -0.00190458      -0.01229262      -0.04119253
Br       6.16078383       9.56266454       9.35406211      -0.00737274       0.00229802       0.03426461
O        6.54386689      10.90385431       8.52425863      -0.00080305       0.00808656       0.04413593
O        7.45506881       9.04670913      10.19107776      -0.00902319       0.00182396       0.03954375
O        4.96279959       9.91668949      10.40997513      -0.01773417      -0.00145939       0.02359867
O        5.66342024       8.41019417       8.32901209       0.00661439       0.00461590       0.02977288
O       10.66941556      10.66538257       8.07698408      -0.00553358       0.00437357      -0.00302255
C       11.13902255      10.88589544       9.39980638      -0.00496761       0.00659517      -0.00451005
C       10.01513319      11.57113241      10.15183992      -0.00720447       0.00059995      -0.00261855
C       11.55320801       9.57026015      10.05273746       0.00225303       0.00930548      -0.00411665
H       12.01322452      11.54800594       9.35539071      -0.00797880       0.01135457      -0.00545937
H       10.27742792      11.70738077      11.20038528      -0.00761074      -0.00005743      -0.00193760
H        9.83159929      12.55120249       9.70941318      -0.01378833       0.00000744      -0.00055933
H        9.10147784      10.97714678      10.07886396      -0.00430369      -0.00382888      -0.00193958
H       12.00509983       9.74379997      11.03144804       0.00030482       0.01057609      -0.00324853
H       12.28414506       9.04675268       9.43305165       0.00542849       0.01369626      -0.00395514
H       10.68172645       8.92381650      10.18102823       0.00596868       0.00417788      -0.00509438
H       11.45469537      10.56533785       7.49233742      -0.00333709       0.00906499      -0.00380036
O       11.36741502       7.64659195       6.67201800      -0.00274181       0.00264582      -0.01450670
C       10.16382629       7.28293485       7.34464720       0.00244057       0.00914210      -0.00648405
C        8.98631039       8.13363065       6.89981853      -0.00002694       0.00826287      -0.00109228
C        9.97036611       5.80282424       7.06614299       0.00071467       0.00765413      -0.00257766
H       10.28765585       7.41858793       8.42798158       0.00911130       0.01027168      -0.00769544
H        8.06750677       7.82506593       7.40031190       0.00271870       0.00969525       0.00490052
H        9.16526711       9.17741779       7.15825536       0.00268921       0.00844005      -0.00393912
H        8.84940356       8.04703037       5.81874752      -0.00647779       0.00629053      -0.00030220
H        9.06396887       5.42707591       7.54269080       0.00295570       0.00885468       0.00424968
H       10.82534167       5.22904677       7.42749687       0.00222255       0.00813420      -0.00630669
H        9.88554988       5.64205351       5.98878399      -0.00671016       0.00521867      -0.00121732
H       11.51487738       8.59818840       6.76004614       0.00123452       0.00949219      -0.01511032
O        3.87980659       7.55336775       3.43189036       0.00646925       0.00444485       0.00600445
C        2.99930741       7.75170255       4.54656707       0.00514138       0.00286853       0.00553679
C        3.41260887       8.93898593       5.39728923       0.00406459       0.00312603       0.00639504
C        1.56220576       7.86739686       4.06568011       0.00564623       0.00340177       0.00405759
H        3.11145747       6.83543851       5.13836602       0.00475152       0.00223684       0.00455946
H        2.75250097       9.03199903       6.25975968       0.00463039       0.00462678       0.00731578
H        4.43543267       8.83336787       5.75891522       0.00503249       0.00336381       0.00423224
H        3.32195681       9.87091602       4.83679487       0.00303046       0.00293580       0.00622849
H        0.86383691       7.92454762       4.90084050       0.00527534       0.00394252       0.00372130
H        1.30598061       7.00873745       3.44041764       0.00516285       0.00286917       0.00496545
H        1.44799380       8.77753081       3.47228304       0.00635297       0.00297944       0.00330679
H        3.77037049       8.29181106       2.81760384       0.00013464       0.00007874       0.00252467
O        6.36613873       4.00194899       9.36921159      -0.00207412       0.00066543      -0.00211581
C        7.44835483       3.08333632       9.51246492      -0.00497681      -0.00314373      -0.00081322
C        8.53416500       3.67217786      10.40355353      -0.00288683      -0.00399971      -0.00250334
C        6.97461929       1.72484509      10.00085337      -0.00992391       0.00005603       0.00293148
H        7.83816827       2.97756419       8.49833785      -0.00478551      -0.00788223      -0.00073588
H        9.41279178       3.02404200      10.42233664      -0.00377044      -0.00575103      -0.00136621
H        8.82984913       4.65857796      10.04631346      -0.00124140      -0.00529650      -0.00444879
H        8.17269041       3.77523067      11.42983463      -0.00248358      -0.00135400      -0.00248969
H        7.79047644       1.00214347      10.01499586      -0.01120599      -0.00166382       0.00939774
H        6.19606481       1.32190324       9.35519594      -0.00822909      -0.00106451       0.00217149
H        6.58493565       1.79201678      11.02024983      -0.01291775       0.00539457       0.00166163
H        5.88030625       4.06546397      10.20232044      -0.00606193      -0.00322327      -0.00744292
O       11.56898033       7.18938037       0.11367841      -0.00388187      -0.00199348      -0.00309500
C       10.53831776       7.94610133       0.76907551      -0.00024557      -0.00268436      -0.00286001
C        9.20465786       7.24002035       0.60902622      -0.00136852       0.00139207      -0.01112355
C       10.91685278       8.20273879       2.21517696      -0.00749953      -0.00377049      -0.00201190
H       10.49102882       8.89925932       0.23487500       0.00201950      -0.00037903      -0.00266409
H        8.39806888       7.83528573       1.03977418      -0.00270551       0.00405605      -0.01590797
H        8.97718061       7.08634265      -0.44559140       0.00364978       0.00181726      -0.01146275
H        9.22575824       6.27175001       1.11429408      -0.00614757       0.00130299      -0.01118409
H       10.13325040       8.74732278       2.74099582      -0.00857067      -0.00214262      -0.00604714
H       11.83626030       8.78477221       2.27616347      -0.00692901      -0.00555471       0.00308948
H       11.06761570       7.26059637       2.75191890      -0.01250448      -0.00471304      -0.00180919
H       12.06567551       6.73153359       0.79559332       0.01780461       0.01639621       0.00637094
O       12.16469641       1.83591659       1.37354463      -0.00718600      -0.01008499      -0.00824504
C       11.10853223       2.37930990       2.23124370       0.02257514      -0.00224969      -0.00425723
C       11.69887576       3.41001112       3.17020408       0.00678891      -0.01175857       0.00480628
C       10.01702925       2.94198234       1.34619968       0.00924778      -0.01496047       0.00307137
H       10.73256055       1.52834245       2.79904577       0.02198520      -0.01942158      -0.00396293
H       10.91278018       3.87293905       3.76531077       0.00907825      -0.01849936       0.00583141
H       12.42496170       2.96036963       3.84885779       0.01411510      -0.01001751      -0.00007710
H       12.18884158       4.20636192       2.60216896       0.00570600      -0.00454308       0.00635943
H        9.18463546       3.29490055       1.95880126       0.00716753      -0.02078706       0.00989981
H        9.64140927       2.18328944       0.66237238       0.01259103      -0.00846983       0.00116877
H       10.39377711       3.78063949       0.75716056       0.00236106      -0.00526907       0.01070569
H       12.95527157       2.36759180       1.51079951       0.03309137       0.01765844       0.00399974
O        7.02294601       2.33407143       6.12023199      -0.02484369      -0.02848801      -0.02420720
C        8.03988198       1.45799516       5.58480938      -0.01611853      -0.01814505      -0.00597726
C        9.36686172       2.13431012       5.85709079      -0.00566220      -0.00271374       0.00851482
C        7.94324578       0.08012350       6.20270179       0.00282265      -0.01174396       0.00745076
H        7.88164415       1.39389655       4.49998755       0.01176840      -0.02576715      -0.00231487
H       10.17689529       1.59088155       5.36934064       0.00733867      -0.01750158       0.00758557
H        9.35259110       3.15982564       5.48699090      -0.00165854      -0.01894751      -0.00574198
H        9.57903900       2.15056936       6.92656264      -0.00875550      -0.00539758      -0.00027725
H        8.70025456      -0.58027984       5.77713200      -0.00003096      -0.01593299       0.01632070
H        6.96433681      -0.37174986       6.03513324      -0.00109085      -0.01120311       0.00845219
H        8.10574914       0.11743836       7.27882202      -0.00368354      -0.00206959       0.00732228
H        6.17326241       1.89504516       5.99739060      -0.01491033       0.02273987      -0.03878685
O        6.84197067      12.04955458       1.28284837      -0.01080638      -0.00071156      -0.00953165
C        7.73709548      11.00100004       1.64211798      -0.01199371       0.00056699      -0.00757635
C        9.06944570      11.66328254       1.92759343      -0.01212376       0.00215307      -0.01015441
C        7.22585668      10.22906880       2.85105557      -0.01120663       0.00175685      -0.00636309
H        7.84987291      10.31365278       0.79212058      -0.01078887      -0.00124693      -0.00619954
H        9.83374144      10.93197571       2.18944998      -0.01150230       0.00457624      -0.00574023
H        9.41234657      12.22286989       1.05760304      -0.01193964      -0.00344558      -0.01371381
H        8.95917400      12.35230744       2.76866813      -0.01388934       0.00812244      -0.01483683
H        7.91494675       9.42707229       3.12487958      -0.01044232       0.00304819      -0.00449037
H        6.25280514       9.78332704       2.64650065      -0.01039827       0.00031643      -0.00740390
H        7.12414447      10.89962120       3.70543449      -0.01408425       0.00358146      -0.00797842
H        5.99788696      11.66353571       1.02110473      -0.00857094      -0.00396103      -0.02690940
O        3.98444080       4.89839505      10.58291974      -0.00263035      -0.01005584       0.00425944
C        2.85734940       4.05248740      10.83594649      -0.00733012      -0.00475168      -0.00283194
C        1.59914656       4.61300987      10.19557599      -0.00282854       0.00470215      -0.00303614
C        3.12993517       2.61889347      10.41692354      -0.01552579      -0.00636685      -0.01532832
H        2.74899621       4.09251765      11.92247447      -0.00898840      -0.00345281      -0.00082582
H        0.73015643       4.01915628      10.48340622      -0.00641306       0.00732632      -0.00839697
H        1.43058929       5.64667738      10.49499519       0.00121527       0.00459155      -0.00090139
H        1.67772076       4.57264786       9.10665914       0.00271751       0.00652328      -0.00254634
H        2.29853820       1.96668637      10.68768679      -0.01962656       0.00092757       0.00048379
H        4.03161685       2.23543336      10.89328275      -0.02029055      -0.01029822      -0.00834277
H        3.25693642       2.55562386       9.33569102       0.00761683      -0.01198490      -0.02956775
H        4.07315952       5.01950113       9.63074456      -0.00660857       0.00192517       0.00330413
O        5.10958933       2.31009728       3.51016022       0.00348538       0.01366767       0.03395414
C        4.12784303       2.32593934       2.48802976       0.01378334      -0.00045841       0.02496165
C        3.12616287       1.25665424       2.85117577       0.01453337      -0.00294656       0.01986992
C        3.46491200       3.69640560       2.36747131       0.00749967      -0.00567019       0.00799976
H        4.58514244       2.06644053       1.52106608       0.02454567      -0.00627777       0.03243804
H        2.39015397       1.15424792       2.04167420       0.02126070      -0.00545239       0.02012784
H        3.61275478       0.29104430       2.96775500       0.01494570      -0.00358313       0.02502886
H        2.61588741       1.48257644       3.78720162       0.00872084      -0.00107751       0.01811737
H        2.64245468       3.66115356       1.64648713       0.01685599      -0.01410987      -0.00004146
H        4.15543385       4.46902794       2.02732852       0.00694506      -0.00292024       0.01336803
H        3.06291470       4.00299867       3.33474848      -0.00486455      -0.00306879       0.00204590
H        5.79559533       2.98107287       3.34796438       0.00902072       0.00024222       0.02406823
O        7.02358411       4.15977473       4.05332334       0.02459472       0.00590032       0.00421947
C        6.26523321       5.37998390       4.15216712       0.01494253      -0.00010312       0.00437465
C        6.41253400       5.99290027       5.52828922       0.00399581      -0.00188306       0.00590158
C        6.75633109       6.27361802       3.03809852       0.01168963       0.00553185       0.00754207
H        5.20500953       5.16062491       3.98050202       0.01794195      -0.00809318       0.00041775
H        5.86810926       6.93479879       5.59564369      -0.00564763      -0.00727850       0.00409422
H        6.02918292       5.32763798       6.30467274       0.00741522      -0.00702268       0.00263290
H        7.46206762       6.18744091       5.73936920       0.00076048       0.00899039       0.01013493
H        6.17081988       7.18966518       3.01115775       0.00220872      -0.00128728       0.00583562
H        6.65405798       5.77075276       2.07459657       0.01993465       0.00565590       0.00727919
H        7.81104464       6.50755050       3.18966393       0.00826983       0.01723826       0.01161961
H        6.94261322       3.65810655       4.89032933       0.02488915       0.00341196       0.00318887
