139
Lattice="12.144315326872047 0.0 0.0 0.0 12.144315326872047 0.0 0.0 0.0 12.144315326872047" Properties=species:S:1:pos:R:3:forces:R:3 energy=-258532.5 stress="-0.0035094935446977615 0.00011579076817724854 -0.00010784665209939703 0.00011579076817724854 -0.002737614093348384 -5.598903044301551e-05 -0.00010784665209939703 -5.598903044301551e-05 -0.004336390644311905" pbc="T T T"
Ru      10.94941896      11.95854579      -0.51178736       0.00101918      -0.02284920      -0.01559158
P        8.57066328      10.24612111      10.85489070      -0.00898200      -0.01090038      -0.00363092
F        9.84861531      10.28079952      12.00764151      -0.01598251      -0.00660783       0.00453377
F        7.75572971      11.16644455      11.85524017      -0.00850531      -0.00586691      -0.00832650
F        9.36554860      11.69790879      10.32667258      -0.00320649      -0.00967665      -0.00397521
F        8.03380943       8.90848414      11.48098512      -0.00868389      -0.01224840      -0.00191240
F        7.48064095      10.37550694       9.75199703      -0.00453669      -0.01517098      -0.00040653
F        9.57307298       9.46175690       9.90439591      -0.00314254      -0.00872995       0.00513163
P       10.77576934       9.96464258       3.27954255       0.01377162       0.02120374      -0.00102330
F       11.09675755       9.31819756       1.91146499       0.00196223       0.02392915       0.02306604
F       11.53097704       8.74689302       3.98843440       0.01910120       0.02882842      -0.00409614
F       11.76280787      10.94832537       3.92519025      -0.03448796       0.00341898      -0.02482975
F       10.05051455      11.16776980       2.55583015      -0.01378813      -0.00580039      -0.00272468
F        9.48929130       9.59752736       4.02999706       0.02607659      -0.00369124      -0.01458848
F       12.40018069      12.38867546       0.54422211       0.01309067      -0.03092128      -0.03038126
P        5.40067883      11.90743224       7.33655754       0.00758824       0.02564894       0.00041111
F        5.54180414      10.28519841       7.33167414       0.02292903       0.02947962      -0.01804471
F        5.28271832      13.52483266       7.32516531      -0.01056647       0.02315950       0.02078380
F        5.77510111      11.91874557       5.74916513      -0.00330403       0.04818970       0.00051236
F        5.02459003      11.85461648       8.90605343       0.01830530       0.00543407       0.00164425
F        6.96496251      12.04973112       7.70200113       0.00774038       0.03762623      -0.00612798
F        3.84329273      11.79263713       6.97233343       0.00645244       0.01240912       0.00728595
O        2.25518742       6.17263924       8.23517475       0.00758290      -0.00467674       0.01113632
C        4.51832439       6.39177306       7.58477837       0.00677657       0.00083603       0.01174770
C        4.41501063       6.61682911       9.09272077       0.00467843       0.00624943       0.01026404
C        3.08185440       6.64851849       7.16315360       0.00629914      -0.00987782       0.00855741
C        3.06863646       5.96975025       9.39435809       0.00739384       0.00245890       0.01167992
H        5.22011481       7.06830755       7.09763225       0.00296731       0.00249939       0.00938430
H        4.80704076       5.36163128       7.36163198       0.01326350       0.00226045       0.01660182
H        5.23632014       6.18311375       9.65909656       0.00555971       0.01043110       0.01200612
H        4.37901285       7.68886803       9.29782902       0.00123698       0.00618654       0.00687239
H        2.91652786       7.72014668       7.04478246      -0.00004174      -0.01253444      -0.00166809
H        2.79067537       6.12926464       6.25051830       0.01080491      -0.01927027       0.01267707
H        3.17778972       4.89083407       9.56194993       0.01152924       0.00412947       0.01600587
H        2.55969812       6.40225632      10.26037234       0.00490835       0.00368491       0.00936812
O        2.42914902       4.75557221       4.43832915      -0.00030217       0.00682461      -0.01108551
C        0.73672313       5.90241558       3.25278088      -0.01062971      -0.00089666       0.00062627
C        2.02565111       6.72052582       3.19100903      -0.01681194       0.00650287      -0.00437368
C        1.01327462       5.00871797       4.45379755      -0.00037625      -0.00054687      -0.00169587
C        3.07485051       5.67930196       3.56533797      -0.00914982       0.01204222      -0.01085547
H       -0.15012598       6.51562824       3.38707736      -0.01320323      -0.00520991       0.00672038
H        0.61231117       5.31239225       2.34254384      -0.01271727       0.00014105       0.00181878
H        2.21846989       7.17886239       2.22169912      -0.02370511       0.00603386      -0.00590399
H        1.98770379       7.51367668       3.93842513      -0.01635064       0.00587332      -0.00519976
H        0.74800147       5.51337211       5.38918811       0.00249158      -0.00285283      -0.00057662
H        0.49272762       4.05189585       4.43326687       0.00413311      -0.00208205      -0.00129367
H        3.43377559       5.14079162       2.67752275      -0.00912514       0.01632595      -0.01188287
H        3.94699460       6.09947799       4.07804765      -0.01108673       0.01593241      -0.01332629
O        2.32864505       1.63965713       2.53641293      -0.00052571      -0.00667980      -0.01292020
C        2.42271620       2.85142007       0.51008875      -0.00359196      -0.01041670      -0.01438910
C        3.83690450       2.45692490       0.93294883      -0.00326997      -0.00913197      -0.01640555
C        1.66623072       2.68313709       1.82110197      -0.00087921      -0.00786561      -0.01307309
C        3.55036807       1.30457062       1.87968329      -0.00097418      -0.00631183      -0.01310837
H        2.34993877       3.86492914       0.11400131      -0.00453254      -0.01188508      -0.01672426
H        2.04290528       2.15700023      -0.24080365      -0.00399412      -0.01233840      -0.01211487
H        4.48741083       2.16956791       0.11251464      -0.00573170      -0.01199627      -0.01660573
H        4.31698214       3.27408617       1.47506558      -0.00232174      -0.00738233      -0.02013914
H        1.73018235       3.58806142       2.42493964       0.00083151      -0.00624579      -0.01500055
H        0.61786621       2.40997493       1.68757894      -0.00108409      -0.00684470      -0.01018211
H        3.41955754       0.36979532       1.31764177      -0.00055718      -0.00760728      -0.01062593
H        4.32430042       1.15036825       2.63563433       0.00004289      -0.00320232      -0.01432770
O        1.70694296      10.94830283       5.56985366      -0.00590855       0.00101584       0.00899693
C        3.08516718      10.38929975       3.76725296      -0.00820172       0.01464438       0.00535268
C        3.51852477       9.54111751       4.96280835      -0.00313044       0.01040289      -0.00055119
C        2.39131769      11.54317935       4.46756018      -0.00960732       0.00938499       0.01184916
C        2.33603357       9.71848837       5.91201334       0.00251943       0.00628477       0.00641480
H        3.91353379      10.72941820       3.15226392      -0.01172605       0.01775849       0.00397259
H        2.38212680       9.84259687       3.13050479      -0.01063657       0.01609786       0.00543714
H        3.68534099       8.48997598       4.72875099      -0.00301631       0.01254909      -0.00488894
H        4.42785351       9.94122749       5.40375176      -0.00138801       0.01103908      -0.00340828
H        3.12436805      12.26585791       4.83598056      -0.00819242       0.00709462       0.01619890
H        1.67052846      12.06955811       3.85093292      -0.00867152       0.01149783       0.01733488
H        1.60416657       8.91051298       5.77686794       0.00593281       0.00221848       0.01273976
H        2.63135653       9.74670528       6.96214484       0.01026365       0.00829327       0.00401288
O       10.08316369       9.24808158       6.81551606      -0.01058954       0.00451344       0.00110164
C       11.08434258      11.24812204       7.63972964       0.00807810      -0.00363457      -0.00596333
C        9.79250576      11.58920992       6.89628611       0.01266414       0.00614548      -0.00839710
C       11.34756540       9.81807893       7.18587773      -0.00593337      -0.00635630      -0.00318968
C        9.06164808      10.25372604       6.90951740      -0.00030824       0.01440871      -0.00396133
H       11.92068366      11.90287778       7.40256141       0.01421273      -0.01338208      -0.01040684
H       10.92260625      11.28537301       8.71467114       0.01060774       0.00268881      -0.00670731
H        9.20009255      12.36620036       7.37184489       0.01960778       0.01212357      -0.00912847
H       10.00921881      11.90467940       5.87214331       0.01511124       0.00117450      -0.00641838
H       11.99469469       9.81623073       6.31109759      -0.00803900      -0.01411459      -0.00285870
H       11.80804781       9.19875716       7.96209200      -0.01060310      -0.00840262      -0.00112432
H        8.49985024      10.12086160       7.82989206      -0.00220320       0.02390210      -0.00373662
H        8.36535385      10.12382551       6.08052895      -0.00060239       0.01900732      -0.00311875
O        6.88122261       4.47454124      10.32589886       0.01213643       0.00306517       0.00618130
C        7.78751626       2.37231648       9.76675167       0.01274905       0.00484520       0.00646800
C        6.34730808       2.17460989      10.22812303       0.01836416       0.00155401       0.01918501
C        8.09847769       3.71192360      10.40754516       0.01377365       0.00669914       0.00003448
C        5.79835580       3.57017487      10.02710389       0.01272391      -0.00118685       0.01946967
H        8.45477426       1.58241700      10.09441866       0.01846075       0.00765623       0.00024033
H        7.81903254       2.42418441       8.67598693       0.00187146       0.00340179       0.00669190
H        5.80413686       1.42776823       9.66207936       0.01668379      -0.00140440       0.02490810
H        6.34216882       1.90460417      11.28540358       0.02704168       0.00409794       0.01916280
H        8.36131293       3.56667291      11.46094352       0.02227791       0.01104549      -0.00180507
H        8.88897805       4.28683017       9.92235897       0.00852743       0.00641534      -0.00755176
H        5.49065810       3.70927701       8.98321255       0.00294547      -0.00650120       0.02230644
H        4.95250941       3.81986653      10.67271528       0.01886141      -0.00105081       0.02629629
O       10.32633641       4.73717163       6.03141859      -0.01084840       0.00709628      -0.01635692
C        8.74438876       6.35410819       6.79548035      -0.00043327       0.00891995      -0.00042361
C        8.25769699       4.93869992       7.10868660      -0.00245881       0.00934616      -0.00419959
C        9.92485088       6.10909361       5.85227723      -0.00255197       0.01026928      -0.00307733
C        9.57329710       4.17797789       7.10686927      -0.00568247       0.00551662      -0.01429968
H        7.98481835       6.99054375       6.34427084       0.00056273       0.01157926       0.00359686
H        9.08413788       6.85691621       7.70044341       0.00224310       0.00532526       0.00034228
H        7.71630262       4.87283403       8.05130575       0.00196610       0.00610534      -0.00231609
H        7.61207486       4.55695816       6.31494494      -0.00714391       0.01455836      -0.00252378
H        9.64887709       6.23113349       4.80040656      -0.00205366       0.02117601      -0.00158376
H       10.76195867       6.77694772       6.06323581       0.00149459       0.00245860       0.00166830
H       10.10856348       4.32282788       8.05652420       0.00034571       0.00107919      -0.01733983
H        9.48141701       3.10538882       6.92813499      -0.01003140       0.00729758      -0.01700315
O        7.65198876       9.60707899       2.08054956      -0.00672770      -0.01510704      -0.00455074
C        6.31974035       7.77661808       1.51640564      -0.01327261      -0.00996578       0.00084895
C        5.40509789       8.82955335       2.13268662      -0.00964653      -0.00460352      -0.00270523
C        7.65929250       8.19148091       2.10213356      -0.01434821      -0.01346362       0.00444469
C        6.30395017      10.07234695       2.21717990      -0.00391883      -0.00939542       0.00070738
H        6.02964813       6.76383746       1.78286426      -0.01758467      -0.00840360       0.00431935
H        6.34232940       7.86096255       0.43200416      -0.01110535      -0.01394102       0.00253332
H        4.50180613       9.00872622       1.55279835      -0.00589216       0.00048582      -0.00833561
H        5.10269239       8.51695917       3.13109725      -0.01727115      -0.00077235      -0.00544533
H        7.76044348       7.82763810       3.13743939      -0.01689054      -0.00970660       0.00345254
H        8.52346959       7.85391144       1.52692425      -0.01271993      -0.02002421       0.00642067
H        6.11707581      10.77428283       1.40146969      -0.00071975      -0.00468606       0.00466931
H        6.19567325      10.60188499       3.17006550      -0.00098234      -0.01394275       0.00296158
O        7.17750975       3.00599830       1.44566335       0.00099719      -0.01729369       0.00509736
C        7.89848210       3.49581331       3.63890812       0.00455622      -0.02231222       0.00396407
C        7.94573263       4.77504768       2.80527355       0.00078923      -0.02055043       0.00793567
C        7.89229574       2.43227617       2.55267983       0.00365856      -0.01937231       0.00214225
C        7.02211821       4.41094813       1.65096900      -0.00150722      -0.01896805       0.01025891
H        8.73416142       3.40017184       4.33011606       0.00565112      -0.02152938       0.00121848
H        6.96826635       3.45478269       4.21109524       0.00687695      -0.02446422       0.00674006
H        7.61208812       5.65959273       3.34528089       0.00197089      -0.02328500       0.01202591
H        8.96127898       4.96212649       2.44523411      -0.00016254      -0.01900513       0.00630172
H        8.91098199       2.19029776       2.22772426       0.00325722      -0.01480940      -0.00000928
H        7.39501681       1.50791226       2.84824302       0.00713491      -0.02130836      -0.00014260
H        5.97741322       4.61801488       1.92205119      -0.00066715      -0.02360182       0.01598117
H        7.23228566       4.92948043       0.71312444      -0.00592826      -0.01511529       0.01184309
