148
Lattice="12.850447879850838 0.0 0.0 0.0 12.850447879850838 0.0 0.0 0.0 12.850447879850838" Properties=species:S:1:pos:R:3:forces:R:3 energy=-826739.375 stress="-0.0014310047263279557 -0.00035100690729450434 -3.5144639696227387e-05 -0.00035100690729450434 -0.0017150043277069926 0.0001514494651928544 -3.5144639696227387e-05 0.0001514494651928544 -0.0016156870406121016" pbc="T T T"
Ru      13.33778578      11.71957000      -0.05775573      -0.00904638      -0.00622320      -0.00208122
I        1.79539788      13.25300160      11.19531489      -0.00598647       0.00192197       0.00940102
I        0.49185147      13.28494503       1.94504793      -0.02271723      -0.01420072       0.00469631
I        5.51693984      11.89031083       4.18376524      -0.00257539       0.00019191       0.00667232
O       10.23705826       4.18495783       5.07044513      -0.01364049       0.00033939       0.00263476
O       11.45001626       3.10835934       6.62492374      -0.00845492      -0.00488353      -0.00543809
C       10.70990707       5.35225115       7.06435014      -0.00223254      -0.00502235       0.00267392
C       10.84804117       4.09171109       6.27299142      -0.00841856      -0.00344121      -0.00067537
H       11.24106300       6.16719442       6.57204130       0.00309984      -0.00715028       0.00500628
H        9.65860415       5.63105633       7.13031822      -0.00007465       0.00168167       0.00307572
H       11.11662316       5.21226612       8.05891396      -0.00345779      -0.01007279       0.00226340
H       10.27056546       3.30757448       4.65986563      -0.01724710       0.00139269       0.00001323
O        2.56403621       6.58285027       2.52846567       0.00891536      -0.00514825      -0.00329973
O        4.11036718       6.13055484       4.09059853       0.01646531      -0.01780111      -0.01552892
C        4.80328390       7.05915051       1.97846560       0.00610960       0.00078255      -0.00932902
C        3.82378239       6.55590295       2.99382596       0.01095143      -0.00896442      -0.00935787
H        5.18261095       6.19208338       1.43442782       0.03194474       0.00301012       0.00687100
H        4.32976204       7.72837161       1.26431942      -0.00473435      -0.02089974      -0.02152488
H        5.64591221       7.55120794       2.45312197      -0.00971977       0.02750709      -0.01014702
H        1.95561834       6.14527824       3.17159864       0.01130696      -0.00703275      -0.00257999
O        4.86453917      11.60064034      11.28735000      -0.01025969       0.00113896      -0.00270045
O        6.72001989      11.94305989      10.07878471       0.00495911       0.00515991      -0.00583553
C        6.94634017      10.99329523      12.27371061      -0.01837206      -0.00746325       0.00373125
C        6.22342746      11.55109082      11.09486447      -0.01452634      -0.00868478       0.02121621
H        6.96046139      11.74272287      13.06704683      -0.02255592      -0.01389585       0.01201411
H        6.44638463      10.11638226      12.68250638      -0.02119547      -0.01123597      -0.00193863
H        7.96577862      10.76082375      11.98057495      -0.01543644      -0.00834547       0.01244897
H        4.47331832      12.02636607      10.50887438      -0.00525773       0.00289395      -0.00444585
O        3.80652554      10.80912545       0.78532970      -0.00694948       0.03994642       0.01033741
O        1.61764456      10.28186504       0.84410569       0.00212722       0.00347608      -0.00692341
C        2.97500435       9.77368489       2.71751651       0.00045404       0.00252530      -0.00699246
C        2.75643218      10.30312248       1.35965966      -0.00021797       0.01664154      -0.00140680
H        4.00483170       9.46675067       2.86902773       0.00154397       0.00515424      -0.00918091
H        2.82024819      10.62020930       3.39789237      -0.00332736      -0.00734633       0.00386077
H        2.25537860       8.99756158       2.95291670       0.00425845      -0.00396106      -0.01745472
H        3.65464271      11.17892418      -0.11028046      -0.00630048       0.03992088       0.00968969
O        4.35800383      10.64409734       7.05427119       0.00840002       0.00413638       0.01497531
O        6.54529082      10.38827355       7.52710759       0.01100993      -0.01384056       0.00546327
C        4.92239403       9.08967878       8.71841796       0.00199693      -0.00045818       0.01236498
C        5.38864087      10.11476695       7.72717592       0.00146806      -0.00581104       0.01139337
H        3.91349043       9.29502648       9.06981950      -0.00082511      -0.00162443       0.00547498
H        4.92055012       8.12926087       8.20080101       0.00930816      -0.00339822       0.01836248
H        5.62772708       9.00565240       9.53986244      -0.00352819       0.00579886       0.01779357
H        4.71927009      11.17615707       6.29349158       0.00858478       0.00040030       0.01326078
O       10.73401620       7.48691825      11.02170639       0.00324184      -0.00055119      -0.00988419
O        9.98390283       9.57845392      11.29761662       0.00565368      -0.00225604       0.00475864
C        8.40235112       7.78767235      10.95135605       0.00323719       0.00142324       0.00250716
C        9.75131250       8.40849504      11.10853928       0.00466079       0.00077945      -0.00044350
H        8.40451440       7.03938528      10.16138784       0.00141370      -0.00448309       0.00853577
H        8.14488343       7.27982381      11.88315880       0.00041123       0.01047815       0.00657073
H        7.66678032       8.55709782      10.74404809       0.00489777       0.00097437      -0.00341468
H       11.56689613       7.96399003      11.13593279       0.00462213      -0.00293562      -0.01276192
O       11.97844084      10.27509269       0.91527964       0.00719833      -0.01751781      -0.01411508
O       10.52427214       8.66343965       1.37675888      -0.00275767      -0.00243860       0.01052979
C        9.73944193      10.94485651       1.49835908       0.01538378       0.00728202      -0.01800217
C       10.69300621       9.84225333       1.24787627       0.00552252      -0.00070357      -0.00474850
H       10.00442629      11.39526157       2.46026602       0.02179337       0.02104950      -0.02681175
H        9.80784043      11.72629929       0.74325566       0.01947111      -0.00545691      -0.03070964
H        8.73924127      10.53161728       1.57948813       0.01188970       0.01772268      -0.00888898
H       12.58414696       9.53921797       1.10044516       0.00418326      -0.01758450      -0.00753757
O        6.84982475       1.77915847       8.92547636       0.00153762       0.00652885       0.00514603
O        8.17844489       3.39923410       9.68310044      -0.00438392       0.00658619       0.01312018
C        6.00678692       3.09823137      10.67441274      -0.00259310      -0.00178258       0.00886738
C        7.12221546       2.80249356       9.73011981       0.00041038       0.00580204       0.00913918
H        5.04258089       2.95680212      10.18905648      -0.00173357      -0.01236734       0.01111382
H        6.08517267       2.39247799      11.50238542       0.00609402       0.00231099       0.01127970
H        6.09895566       4.10580498      11.06252086      -0.01078173      -0.00000414       0.00560755
H        7.64233286       1.56345937       8.40429579       0.00183338       0.01088322       0.00427584
O        3.67238777       5.13203128       7.87160627      -0.00609112       0.00460309      -0.00452369
O        5.16997586       5.87589644       9.36717362      -0.00412059      -0.00699103      -0.00039914
C        2.82056160       6.06294353       9.85390264      -0.00416130       0.00391644      -0.00378036
C        4.02180806       5.69614155       9.03486373      -0.00624335      -0.00046916      -0.00324035
H        2.10090922       6.61507050       9.25047797      -0.00409240       0.00243799      -0.00491019
H        2.32259522       5.15168066      10.18819257      -0.00467177       0.00547978      -0.00056497
H        3.12550341       6.65155375      10.71343531      -0.00295496       0.00588421      -0.00568193
H        4.49107087       4.92700119       7.36456489      -0.00577071       0.00207830      -0.00331116
O        0.12916373       3.04874043       3.88448044      -0.00910813       0.00492038      -0.00027823
O        0.66277975       5.20830049       3.78764996       0.00521012       0.00213158      -0.00559789
C        1.58797466       3.84101470       5.54681975      -0.00224823       0.00006880      -0.00364780
C        0.76869537       4.12553674       4.33598175      -0.00135814       0.00191456      -0.00355890
H        0.98619661       3.29407843       6.27171810      -0.00823091       0.01269320       0.00063463
H        2.42760525       3.20481817       5.26219288      -0.01074886      -0.01184548      -0.00125075
H        1.97195589       4.76198528       5.97039883       0.00685132      -0.00226951      -0.00824153
H       -0.34000210       3.28447519       3.06828516      -0.01092741       0.00862038       0.00187159
O       12.10705600      11.33320784       8.02391585      -0.01408279       0.00727475       0.01849321
O       10.40527723      12.78440399       7.94404860      -0.02236834       0.00709867       0.03349277
C        9.91249399      10.42407240       7.91639945      -0.00990206       0.00099307      -0.00186047
C       10.76638040      11.64114881       7.97011684      -0.01360281      -0.00495744       0.01913526
H        9.83692595      10.13477638       6.86562378      -0.00760598       0.01842862      -0.00652984
H       10.37179676       9.60057009       8.45856615      -0.00783698      -0.00730567      -0.01579072
H        8.91547155      10.65181706       8.28047873      -0.01077983      -0.00885724       0.00106472
H       12.57414711      12.18182936       7.99312329      -0.01752818       0.00898147       0.03818309
O        6.88597964       8.78538134       5.08374885       0.02349943       0.00916779      -0.01025301
O        7.62951081       8.74597008       2.96077194       0.01579106      -0.00856495      -0.01136875
C        7.91939708       6.81088077       4.34823011      -0.00490725      -0.00604773      -0.00469105
C        7.48548001       8.21595515       4.04124501       0.01314192      -0.00125039      -0.01129705
H        8.38361691       6.75244992       5.33186446      -0.00755328      -0.00886941      -0.00384328
H        7.03114512       6.17385766       4.35202642      -0.01349191       0.00624730      -0.00367759
H        8.60992204       6.45504408       3.59093044      -0.00839096      -0.01864835      -0.00146595
H        6.59194954       9.70070817       4.84100237       0.02701291       0.00938420      -0.01314999
O        3.03299542       3.33104779       2.44078053       0.01336914      -0.02143967      -0.00652754
O        4.80140486       3.94295312       1.20862886       0.00336051      -0.00561193      -0.01371017
C        2.60020459       4.30255325       0.33507573      -0.00503838      -0.02088195      -0.00045478
C        3.60499293       3.86188860       1.34152692       0.00407785      -0.01466879      -0.00759931
H        2.32398655       3.43771556      -0.27402903      -0.01927990      -0.02668902       0.01530841
H        1.70958281       4.68936599       0.81926310       0.00383528      -0.01049982       0.00724825
H        3.04765387       5.06186328      -0.29816078      -0.01029593      -0.03151591      -0.01604982
H        3.75561817       3.03329818       3.01243023       0.01713401      -0.01814376      -0.01067379
O       12.82765380       9.81045553       3.65997451      -0.00747514       0.01142132       0.00916135
O       11.03061284      10.57884417       4.75357655      -0.01794326       0.00107789      -0.00211072
C       11.31226389       8.20140239       4.50527357      -0.00246331       0.00310284       0.00253062
C       11.67486623       9.64052091       4.36013550      -0.00998729       0.00524658       0.00280932
H       10.78810022       7.90189550       3.59489141      -0.00408185       0.00268267       0.00382850
H       12.18844184       7.56682309       4.61154778       0.00030279       0.00709614      -0.00057348
H       10.64968591       8.08374855       5.35593836       0.00034954      -0.00104275       0.00404574
H       12.94827034      10.77061981       3.53314335      -0.01247829       0.01213288       0.00847865
O       10.52600149       4.37565914      10.31101274       0.00925165      -0.01136882      -0.00321656
O       10.27418330       3.52390760      12.37192935       0.03139573      -0.03060359      -0.00857759
C       12.36195095       4.48513859      11.77688311       0.01325935       0.00237283      -0.01020843
C       10.94510423       4.08446828      11.52742755       0.01817834      -0.01460749      -0.00747719
H       13.01128117       3.88484684      11.13763934       0.01945733      -0.00584991       0.00400822
H       12.51469982       5.53402834      11.53071330       0.00703837      -0.00194211      -0.02943529
H       12.60013912       4.29240797      12.81569132       0.01184537       0.02261985      -0.00666821
H        9.60762470       4.03275656      10.17694483       0.01103827      -0.01588991      -0.00132702
O        5.95644972       4.54078807       6.47989456      -0.00013232       0.00497502       0.00741053
O        7.72260065       3.17140646       6.35490898       0.00932145       0.00136313       0.01537671
C        5.50652722       2.24368962       6.13433692       0.00032377       0.00645518       0.00111917
C        6.53165397       3.30440177       6.33179264      -0.01380819       0.00429721       0.00844632
H        4.69738289       2.34521130       6.85745459      -0.00628194       0.00577729      -0.00495742
H        5.08092600       2.34640161       5.13406704       0.00626022       0.00732702      -0.00193669
H        5.95495831       1.25750280       6.19583760      -0.00262189       0.00506136       0.00339723
H        6.67081042       5.18175147       6.60788570      -0.00158876       0.00359967       0.01377853
O        1.36279105       9.48331034       8.13342653      -0.01011020       0.01594138      -0.01390767
O       -0.22506034       8.09870007       7.37342691      -0.00135612       0.00528613      -0.01237160
C        1.96171036       8.03007431       6.37170851       0.00570595       0.00273582       0.00289077
C        0.91117275       8.51035964       7.32385758      -0.00141644       0.00875221      -0.00853242
H        2.26825420       8.86149951       5.73630347       0.01463661      -0.00129279       0.00232092
H        2.85520286       7.70495051       6.90182145      -0.00063698       0.00320367       0.01338924
H        1.57548444       7.21486002       5.76745906       0.01025896       0.00082400       0.00258103
H        0.57960411       9.91338036       8.52341613      -0.01344860       0.01812764      -0.02217932
O        8.27063430       1.84249639      -0.11812051      -0.00375044       0.01657423      -0.00385284
O        9.08898773       1.86015414       1.97719568       0.00028336       0.02702463       0.00091612
C        6.75481719       1.42381765       1.62626286       0.00811875      -0.00572243       0.00757524
C        8.15909243       1.71353959       1.21735705       0.00124717       0.01472360      -0.00064680
H        6.24891466       2.38715254       1.72872924       0.00690205      -0.00961998       0.02750583
H        6.21367860       0.87000218       0.86028249       0.00935203       0.00051582       0.00865107
H        6.71683025       0.89319520       2.57238099       0.02892485      -0.01560624       0.00279684
H        9.11163591       2.31887780      -0.31007925      -0.00081426       0.01557565      -0.00552900
