149
Lattice="12.650351324046778 0.0 0.0 0.0 12.650351324046778 0.0 0.0 0.0 12.650351324046778" Properties=species:S:1:pos:R:3:forces:R:3 energy=-246137.296875 stress="0.0006091329851187766 -5.663338743033819e-05 0.00020420664077391848 -5.663338743033819e-05 0.0003859336138702929 -0.0008128233894240111 0.00020420664077391848 -0.0008128233894240111 0.0005060452967882156" pbc="T T T"
Ru      12.35356150      10.70116290       2.60295844       0.00685829      -0.00752789       0.00959143
O        9.33923787      11.94277624       2.78334219       0.00487614      -0.01446176       0.02515292
O       11.38317995      11.95095957       3.77401501       0.01317739      -0.00146091       0.00823236
C       10.09636021      12.26472590       3.66328142       0.01353675       0.00271732       0.01140678
H        9.79289615      12.89493851       4.51507229       0.02462146       0.02651900      -0.00201106
O        7.72559595      10.30468455       9.27981952       0.00621510      -0.01460361       0.01027238
O        7.82490863      12.51686790       9.51960577      -0.02557623      -0.01159072       0.00023293
C        7.31047559      11.48974443       9.07471353      -0.00823951      -0.02026160       0.00143474
H        6.40377639      11.58490162       8.43178879      -0.00396824      -0.03767838      -0.00596941
O        6.39608752      13.09068902       5.17506446       0.00363618       0.00475025      -0.01569955
O        6.19280256      11.04738968       4.34388151       0.01306474       0.00159800      -0.01065183
C        6.64869699      11.91108627       5.23546413       0.01020151       0.00649959      -0.01382989
H        7.27186661      11.46628383       6.02710511       0.01436758       0.01175824      -0.01370102
O        4.15622249       4.60322521      11.37370804      -0.01048348       0.00338840      -0.00511771
O        4.87300175       6.63083530      11.98602215      -0.00450557       0.00122613      -0.00333226
C        4.26916559       6.26832036       9.70012074       0.00650632       0.00105160      -0.00614703
C        4.48441545       5.88062771      11.11443065      -0.00309163       0.00133991      -0.00440609
H        4.35879377       5.42564063       9.02083491       0.00680712      -0.00007525      -0.00472252
H        3.23708967       6.61783940       9.62766892       0.00836611       0.00542346      -0.01195850
H        4.93906387       7.07886622       9.42476613       0.01149535      -0.00207233      -0.00371446
H        4.16940984       4.46556431      12.33754159      -0.01875911       0.00430974      -0.00475645
O       11.85961788      11.03946563       6.37250745       0.00723779       0.00947353       0.00461107
O        9.62992873      10.85175284       6.27050059       0.00853324      -0.00228389      -0.00480235
C       10.74875828      10.43010126       8.36101348       0.00253139       0.00476718       0.00007594
C       10.65323855      10.78174246       6.91450979       0.00645381       0.00375202      -0.00061297
H       11.46349214       9.61844928       8.49524575       0.00511995       0.00736003       0.00239129
H       11.12095897      11.29575823       8.91249803      -0.00196563       0.00616768       0.00117420
H        9.77073154      10.14617752       8.73816815       0.00245190       0.00076980      -0.00313798
H       11.71568996      11.30711299       5.43796522       0.01049310       0.01086162       0.00409051
O        6.88440178       8.55846140       4.78922586       0.00036299      -0.00232410       0.00102121
O        4.92248415       8.64801250       5.73489028      -0.00000572       0.01529390       0.00146404
C        5.98143501       6.47259126       5.47077545      -0.02201446       0.00796163       0.01044837
C        5.95585409       7.96117184       5.32772785      -0.00394386       0.00709188       0.00351657
H        5.85287219       6.05290854       4.47145386      -0.04717711       0.00409995       0.01504326
H        6.96004245       6.17223916       5.83847624      -0.02198581      -0.00713636      -0.00236391
H        5.19369243       6.08432851       6.11241231      -0.01972465       0.02809055       0.02539416
H        6.49347283      10.11614040       4.56198770       0.01324696       0.00295533      -0.00644756
O        5.76064643       2.83889823       1.08267260       0.00048351      -0.01221794       0.00314134
O        4.13032971       1.29885902       1.11423570      -0.01787513       0.00626063      -0.00389916
C        4.43588255       2.73710049       3.02393810       0.00119078      -0.00602785       0.00267470
C        4.72214277       2.20357622       1.65857883      -0.00603056      -0.00271463       0.00041676
H        5.07998559       2.21714987       3.73863147       0.00718646      -0.00537091      -0.00216156
H        4.63437440       3.80502730       3.07741618       0.00064376      -0.00570312       0.00193481
H        3.40339591       2.53310599       3.29182150       0.00306463      -0.00753432       0.00844459
H        5.98276665       2.39964171       0.23809066      -0.00623318      -0.00809273      -0.00072990
O        2.71946804      10.64892540       5.64906009      -0.00343420      -0.00341159       0.01571962
O        1.22133543      10.60803153       4.01495264       0.00135791      -0.02245730       0.01323944
C        2.85965142      12.38644880       4.09317089      -0.02303648      -0.00076789       0.01533160
C        2.18745417      11.15206377       4.56883498      -0.00680314      -0.00935271       0.01621369
H        2.88250908      13.13247520       4.88862204      -0.02326107      -0.00216548       0.01671275
H        3.89865203      12.14602070       3.85812351      -0.02277806       0.00958135       0.00521621
H        2.36805488      12.77257332       3.20550441      -0.03590705      -0.00475939       0.02052817
H        2.37075215       9.75044241       5.93337893       0.00537789      -0.00978476       0.01548527
O        9.69450853       8.64089250       2.55173341       0.00102276       0.00488582      -0.00058806
O       11.53761440       9.04361345       3.75458611      -0.00509840       0.00365105       0.00963227
C        9.91818809       7.54555321       4.63629990      -0.00341660      -0.00547224      -0.00492734
C       10.44864431       8.46926052       3.60092554      -0.00325844       0.00208235       0.00185409
H        9.09829167       8.05559754       5.14660803       0.00348914      -0.00552525       0.00638926
H        9.50256562       6.64963486       4.17864742      -0.01224557       0.00260593      -0.01245037
H       10.68479968       7.30190500       5.36329643      -0.00054026      -0.01821863      -0.01205640
H       10.12270826       9.33590744       1.93866463       0.00135490       0.00845347       0.00407197
O       10.40264449       5.56776357       9.97578485       0.00042802      -0.00346696       0.01357061
O       12.28421198       6.56923443      10.67875746      -0.00052404       0.00303814       0.00666539
C       10.15976563       7.46744248      11.33904972      -0.00135654       0.00678962      -0.00045371
C       11.07053802       6.50641637      10.63865264      -0.00042140       0.00185150       0.00753251
H        9.54886866       7.98478444      10.59769033       0.01327056       0.01363446      -0.00818647
H        9.48230071       6.93025743      12.00430166      -0.01563346       0.01140273      -0.01134779
H       10.74367888       8.18568606      11.90524951      -0.00251622       0.00097873       0.00809896
H       11.04630601       5.04807917       9.40718880       0.00023811      -0.00108096       0.01168312
O        0.40762175       3.29492519       1.66035285       0.00733483      -0.00986814      -0.01057140
O        2.31313080       4.23219753       0.94768461       0.00407743       0.00153248      -0.00264019
C        0.37176776       5.61731224       1.29754067      -0.00237429      -0.00776964      -0.00363998
C        1.15563784       4.34472068       1.27645063       0.00232655      -0.00480378      -0.00488430
H       -0.44973002       5.54271095       0.58561866      -0.00373608      -0.00982370      -0.00161810
H       -0.06211036       5.77452513       2.28504150      -0.00041220      -0.00657668      -0.00305530
H        1.00727525       6.45065388       1.02046745      -0.00565583      -0.00624849      -0.00597356
H        0.94471619       2.49276009       1.57582427       0.01217291      -0.00652587      -0.01404050
O        6.65834418       3.23485852       6.38022871       0.00551546       0.00884997      -0.00164187
O        8.88796879       3.06453318       6.59444526       0.00319648      -0.02692789      -0.00393319
C        7.92613765       3.17035371       4.40015170       0.00410520       0.00502216      -0.00292337
C        7.89923532       3.15312887       5.90001041       0.00391781      -0.00629038      -0.00331438
H        7.63999256       2.17244421       4.06155994      -0.00008703       0.00846481      -0.00986618
H        7.19912211       3.87137567       3.99483812       0.00764067       0.01150847       0.00180933
H        8.92648485       3.39921383       4.04567923       0.00553373       0.00225260      -0.00095894
H        6.67694929       3.03064477       7.34494016       0.00407378       0.00578934      -0.00235299
O        2.61353415       8.19992097       6.53780289      -0.00300264       0.00842679      -0.00033635
O        2.45392192       6.07077727       7.12863795      -0.00773716       0.00895882      -0.00282834
C        0.51627846       7.45135937       7.37737404      -0.00670815       0.01117392      -0.00442076
C        1.95133867       7.20803914       6.98453390      -0.00623989       0.00956440      -0.00223380
H        0.49303739       7.70953002       8.43966955      -0.00948549       0.00398438      -0.00257282
H        0.09421237       8.27972373       6.81273543      -0.00465187       0.01506242      -0.00043995
H       -0.07729473       6.54706152       7.26596457      -0.00769223       0.01266517      -0.01121309
H        4.11141792       8.17779084       6.13712369       0.00145847       0.01448508       0.00067688
O       11.12671963      12.23931766      12.61794684       0.00839567       0.01722431       0.02178407
O       11.00658575      10.34907121      13.81909921       0.00688589       0.00676063       0.00428927
C        9.21103738      10.83982257      12.32335884       0.00996697       0.01695485       0.00409323
C       10.53485382      11.22721974      12.91408010       0.00854182       0.01370764       0.01097664
H        8.46356751      11.51469368      12.74297422       0.00745358       0.01303962       0.00620070
H        9.19501482      10.98645163      11.24447385       0.01195387       0.02255027       0.00468236
H        8.92599266       9.81851190      12.56689445       0.01090552       0.01504629      -0.00304700
H       13.00335438      11.84167976      14.40421540       0.02963772      -0.01774934       0.01095247
O        3.26757465       7.45360234       1.27011588      -0.00492255      -0.00207603      -0.00288379
O        4.43190694       6.10461954       2.62566950       0.00146234       0.00021839      -0.00606705
C        2.57518653       7.32643153       3.51799162      -0.00152040      -0.00654867      -0.00207901
C        3.51544417       6.87654849       2.44660541      -0.00135672      -0.00273412      -0.00390804
H        1.65541479       7.74629075       3.12146541      -0.00939411      -0.02244575      -0.00101893
H        2.37657162       6.51269471       4.21138749       0.01334935      -0.00326034       0.00595784
H        3.07567000       8.10797327       4.09071710      -0.00989348       0.00666760      -0.01251295
H        3.93801167       7.12831860       0.61905802      -0.00465655       0.00050427      -0.00418370
O        6.32042552       1.86578715      11.09412137      -0.01937544       0.00514346      -0.00462016
O        6.40468704       2.57696068       8.99142046      -0.00668615       0.00982171      -0.00227106
C        8.44808860       2.55015387      10.26223090      -0.01119089      -0.00977795       0.00393713
C        7.00062041       2.31101990      10.01244438      -0.01295584       0.00320446      -0.00093907
H        8.55804807       3.52005208      10.75608930      -0.00466819      -0.01193503       0.00689708
H        8.86490666       1.77042673      10.89330287      -0.01853190      -0.01450720       0.00295888
H        8.96186081       2.58679521       9.30528776      -0.00840154      -0.01130356       0.00528672
H        5.39397049       1.72792166      10.81287413      -0.02055010       0.01493038      -0.00740978
O        3.67434326      10.92938576       1.41746425       0.01559687       0.01649594       0.01343286
O        4.82592175      10.67495885      -0.48934001      -0.01189511       0.00737125      -0.00243020
C        5.65759022       9.65126517       1.52394639       0.00349766      -0.00356221      -0.01368558
C        4.70586026      10.44329201       0.68607516       0.00079858       0.00697970      -0.00027311
H        5.17456906       9.24810085       2.40896339       0.00756980      -0.00880768      -0.01367968
H        6.10867978       8.86287999       0.92942234      -0.00335319      -0.00039405      -0.02310976
H        6.44382095      10.32680040       1.86680768       0.00770043      -0.00897619      -0.01227988
H        3.20632173      11.55822409       0.84816763       0.01625893       0.02538045       0.02246225
O        1.80317466       4.45220871       8.96208335       0.00134301       0.00433280      -0.00233154
O       -0.38912241       4.45241161       8.52820639       0.00019324       0.00772738       0.00351846
C        0.40922626       3.37082042      10.51306318       0.00503705      -0.00385165      -0.00434005
C        0.56188531       4.15569339       9.24163781       0.00150552       0.00301462      -0.00037372
H        0.56530501       2.31287650      10.29413107       0.00369427      -0.00274813      -0.01089830
H        1.15834193       3.67369001      11.23997314       0.00807340      -0.00836212      -0.00543876
H       -0.59555617       3.48414495      10.91122295       0.00669023      -0.00539907       0.00029264
H        1.91362602       5.04619035       8.12322734      -0.00281067       0.00693400      -0.00035100
O        6.86244564       8.12708541       8.63458108       0.00845575      -0.00553244      -0.00696500
O        8.97355357       7.71276015       7.98566100       0.01239181      -0.00415504       0.00544834
C        7.54402450       5.87516024       8.54478537       0.01088542      -0.00541556      -0.00327832
C        7.87019227       7.33596924       8.34388416       0.00961483      -0.00463963      -0.00152671
H        7.49256787       5.69035350       9.61999548       0.01578704      -0.00654129      -0.00312321
H        6.57050582       5.62849297       8.12958170       0.00947699      -0.00593414       0.00049776
H        8.31360962       5.23874327       8.11928950       0.00991426      -0.00483419      -0.00619038
H        7.19548182       9.15606363       8.79936303       0.01214464      -0.00186751       0.00514930
O        3.62641710       2.06937243       9.98161033      -0.01035829       0.00372308      -0.01535952
O        3.49628114       2.35449838       7.74973531      -0.01964366      -0.02093053      -0.01737082
C        3.32868466       0.13678938       8.66189175       0.01640612      -0.01409912       0.00388206
C        3.49856255       1.62140515       8.69738129      -0.00540625      -0.01038635      -0.01326823
H        4.12785771      -0.35847867       9.21334895       0.01308984       0.00176878       0.02344623
H        2.38885442      -0.12746248       9.15024584       0.01149939      -0.01721113      -0.00628104
H        3.31468759      -0.20382714       7.63276870       0.03456631      -0.02804478       0.00804724
H        3.65743575       3.04189962       9.96743876      -0.02420340       0.00278229      -0.02765402
