147
Lattice="16.105508855629473 0.0 0.0 0.0 16.105508855629473 0.0 0.0 0.0 16.105508855629473" Properties=species:S:1:pos:R:3:forces:R:3 energy=-1009646.0 stress="1.6533858797629364e-05 0.00027779428637586534 -0.0003090708778472617 0.00027779428637586534 -0.0001401159242959693 6.814764856244437e-05 -0.0003090708778472617 6.814764856244437e-05 -6.122253398643807e-05" pbc="T T T"
Sc      16.66338030      15.56484411      -0.43674152      -0.01967753      -0.00475100      -0.00030354
O       14.11373141      16.32532342      12.81927804      -0.01349711       0.00119567      -0.01444462
O       15.98312677      16.42460783      14.03803221      -0.01983994       0.00288111       0.00214314
C       16.12656142      15.47324632      11.85499703       0.00105852       0.00132829       0.00430256
C       15.30542281      16.11562340      12.95137848      -0.00361288      -0.00026065      -0.00510287
H       17.19382456      15.63579812      11.99391472      -0.00071976       0.00679449       0.01261278
H       15.80337459      15.84175302      10.88521506       0.00741002      -0.00371890       0.00059025
H       15.93674340      14.39790485      11.87653939       0.00593785       0.00082532       0.00746571
O        4.08508630      16.20002525      16.31637714      -0.00952929       0.00294650       0.04219580
O        2.43972154      15.09758375      15.28904315      -0.02459121       0.00828415       0.00659055
C        4.62853921      14.99116500      14.33720381      -0.04089081       0.00795096       0.02143967
C        3.68923710      15.47097833      15.42358994      -0.02620780      -0.01366222       0.01979995
H        5.64225080      14.92359996      14.72583239      -0.02574499       0.00036607       0.00069574
H        4.62560235      15.74272062      13.54301263      -0.02825669      -0.01163130      -0.01002655
H        4.31554645      14.04373257      13.90228057      -0.02614786      -0.00367674       0.02058224
O        5.06676333      12.10298760       4.12995166      -0.00978017      -0.00368524       0.00127664
O        4.32905318      14.21070562       4.24922231      -0.02041173       0.00810814      -0.03029656
C        6.56123237      13.78625524       4.92979674      -0.01962972      -0.01071316      -0.00519162
C        5.21095620      13.32417170       4.39812507       0.03104973       0.01524657      -0.00268203
H        7.02897203      14.44380997       4.19454489      -0.00727111      -0.01303662      -0.00393942
H        7.21199168      12.93985281       5.12150077       0.00433500      -0.00331254      -0.00205781
H        6.42339570      14.37054661       5.84017246       0.00674985       0.00117118       0.00026290
Cl       5.85687657       5.62142731      12.59706830      -0.00221521       0.00312873      -0.00458041
Cl       4.44729409       5.07497840      10.09822299      -0.00342646       0.00429158      -0.00436075
Cl       5.15798333       7.81182570      10.81004627       0.00202592       0.00340286      -0.00596688
C        5.63306892       6.10565885      10.91476220      -0.00135178       0.00268704      -0.00513269
H        6.58034956       5.99157714      10.40025763      -0.00156832       0.00046257      -0.00511956
Cl       2.33944975       4.05839368       7.12642496       0.00899884      -0.00546929      -0.00480653
Cl       1.02914321       3.88492256       4.52296112      -0.00231335       0.00448088       0.00004196
Cl      -0.53971698       3.60467386       6.97526760       0.00833395      -0.00397335       0.00564294
C        0.85907656       4.38556669       6.21249150       0.00524563      -0.00143934       0.00288724
H        0.68979998       5.45551642       6.23000284       0.00582302      -0.00137815       0.00725551
Cl      13.13198539      14.72713453      10.15227281       0.00775867      -0.00363114      -0.00345784
Cl      13.30819217      11.83301512       9.85007470      -0.00079672      -0.00481826       0.00425173
Cl      11.14184488      13.30589321       8.54632354      -0.00193679      -0.00268144       0.00836590
C       12.82710731      13.36315262       9.08199741      -0.00037362      -0.00605655       0.00162566
H       13.44574520      13.48574189       8.20174642      -0.00332771      -0.01132246      -0.00081041
Cl       9.63326470      11.60944243       5.01806173       0.00761531       0.00471970       0.00632742
Cl       7.77872305      11.09755677       7.21870586       0.01517129       0.01013158       0.01379630
Cl       8.12557571       9.12254034       5.10369614      -0.00541383       0.01219857       0.00758439
C        8.90694460      10.36879001       6.06650398       0.00568878       0.00628857       0.00695041
H        9.71038857       9.91371943       6.63454541       0.00568059       0.00055154       0.00228129
Cl       6.02701841       7.06388136       3.52737168       0.00603460       0.00256249      -0.00083570
Cl       8.07864430       5.35042924       4.67315695      -0.00079474       0.00165458       0.01010144
Cl       5.25694001       4.78955668       5.18234496      -0.00336605       0.00171932      -0.00606036
C        6.43510695       5.42288067       4.01773639       0.00321329       0.00207091       0.00097897
H        6.39609433       4.78471405       3.14028128       0.00767178       0.00254624       0.00020030
Cl       0.99495070      14.55097869       8.42615244       0.00051400      -0.00937474      -0.01267774
Cl       3.64216760      13.60660525       7.63182531       0.00803533      -0.00744271       0.00794041
Cl       2.83576535      16.35716318       7.05649894       0.00420658      -0.01038280      -0.00772014
C        2.70260178      14.99182670       8.17188289      -0.00084300      -0.00471380      -0.00388430
H        3.08802220      15.31394308       9.13140644      -0.00655163      -0.00186193      -0.00301200
Cl      12.12538568       7.52605653       7.10368127       0.00356993       0.00575826      -0.00526350
Cl      14.82775797       8.58387444       6.74605194       0.00645854      -0.00226203      -0.00666571
Cl      12.51950203      10.31650931       6.36022517       0.01157528       0.00750768       0.00666913
C       13.17903592       8.93891425       7.26308385       0.00870364       0.00121552      -0.00132722
H       13.20524903       9.22002797       8.30955637       0.01235004      -0.00375737      -0.00001132
Cl      13.18871952       8.65538655      11.85124405       0.01396506      -0.00326527       0.00292793
Cl      13.08210641       7.27992273      14.41369123       0.01006660       0.00398481       0.00668006
Cl      13.96443337      10.07234916      14.28455656       0.00132984       0.00636253       0.00122248
C       12.90554318       8.84811598      13.59499272       0.00754567       0.00057361       0.00138076
H       11.87918630       9.16938621      13.72769120       0.00615087      -0.00207496      -0.00298739
Cl      10.43730222       4.22840452       7.43862572      -0.00562711       0.00055986      -0.00076044
Cl       7.67894672       3.85868695       8.33259647      -0.00255463       0.00060342       0.00933066
Cl       9.78873220       2.10216923       9.32578557       0.00128125       0.00134206       0.00249609
C        9.38959816       3.73537912       8.77977633      -0.00072440       0.00102145       0.00320842
H        9.56706228       4.41659986       9.60412266       0.00212634       0.00155826       0.00221136
Cl       0.72631809       9.99179351      11.63876731      -0.00485209       0.00403341      -0.00320044
Cl       1.06744034      10.70425290       8.83126730       0.00188985      -0.00416142      -0.00449672
Cl       3.33973464      10.85395450      10.65619528      -0.00342429       0.00490162       0.00164916
C        1.83492988      10.00273469      10.26094406      -0.00107796       0.00141813       0.00016029
H        2.09101524       8.97632337      10.02890488       0.00095758       0.00104669       0.00397465
Cl       8.41292234       1.85773512       3.23978102       0.00060645       0.00636955       0.00183663
Cl       5.92874311       1.03760052       4.52596860       0.00249290      -0.00032198      -0.00052758
Cl       8.45915130       0.81913605       5.97145685       0.00065577      -0.00034639      -0.00087652
C        7.51831542       1.73302543       4.78247852      -0.00104286       0.00054568       0.00152119
H        7.41096430       2.74073964       5.16576002      -0.00224548      -0.00058377       0.00332323
Cl       9.99143739      15.72623597      12.22615523       0.01648721       0.01279908      -0.00308025
Cl      10.56000186      14.72206927      14.90640311       0.01236811       0.01647311      -0.00135046
Cl      11.00950499      13.01383868      12.59265758       0.00435424       0.00976515       0.00222510
C       11.04203596      14.67467212      13.20729290       0.01399587       0.01097533      -0.00085576
H       12.05465282      15.05391677      13.12323360       0.01900005       0.00232567       0.00329401
Cl      13.64288190      10.71135403       2.19765300       0.00295098       0.00494844      -0.00073558
Cl      12.85264106       8.06021283       3.14589077       0.00180164       0.01019865       0.01341879
Cl      15.29040812       8.38422748       1.56521551      -0.00197020      -0.00039320       0.00597680
C       14.21152656       9.13371545       2.76016986       0.00185702       0.00662524       0.00510533
H       14.78057199       9.28708741       3.66900111       0.00444539       0.01023091       0.00296617
Cl       3.50359519       5.11688115       1.60473367      -0.00209349       0.01520492      -0.00850931
Cl       5.93815653       5.71115918       0.09135773       0.00339758       0.00278798      -0.00350115
Cl       5.51203200       3.04809179       1.20040274      -0.00948671       0.00736824      -0.00055838
C        4.73757839       4.47136012       0.51077752      -0.00173263       0.00755431      -0.00463526
H        4.24030252       4.17318381      -0.40407688      -0.00108460       0.00864588      -0.00506797
Cl      12.01705546       3.10221216       2.39604834       0.01451910      -0.02418977      -0.00468788
Cl      15.81197697       0.79645613       1.41277856      -0.01013288      -0.00066978       0.00159019
Cl      13.94696232       4.96029295       1.31134585       0.02031332      -0.00754315       0.03167439
C       13.53330938       3.44902349       1.82988341       0.01047688      -0.01797213      -0.01004676
H       14.25987863       2.64530672       1.74302746       0.00514758      -0.01877487      -0.03445824
Cl      14.41314559      13.81808258       5.31903287       0.00573228       0.00890660      -0.00471169
Cl      15.32146478      16.54768832       5.52931585       0.01402757       0.00784409      -0.02165774
Cl      15.47408511      13.55163800      -0.49333084      -0.03456837       0.00362527      -0.00730594
C       14.83031812      15.26160363       4.62377270       0.00489368       0.00478940      -0.01260219
H       14.73450148      15.37997202       3.55196524      -0.00337449       0.00158846      -0.01182437
Cl       1.70356434       8.03297359       5.24684869       0.00585595      -0.00647737      -0.00145346
Cl       4.08039325       9.73298766       5.28752113       0.00177535      -0.00094438      -0.00157881
Cl       3.55048622       7.91282043       7.51912310       0.00367458       0.00061794       0.00058794
C        3.41050421       8.19915420       5.77074906       0.00427604      -0.00222738       0.00067187
H        3.94829521       7.39763550       5.28060472       0.00706691      -0.00147927       0.00174546
Cl       9.06691071       3.86924719      12.73527256       0.00076425       0.00705628       0.00737259
Cl      11.62124521       4.67562108      11.58636639       0.00168411      -0.00940278      -0.00163986
Cl      11.53095516       3.51214748      14.26278600       0.00303072       0.00406843       0.00393015
C       10.80307174       3.51864514      12.64855863      -0.00096318      -0.00058913       0.00532956
H       10.92565679       2.52889776      12.22560392      -0.00605216      -0.00333294       0.01040959
Cl       7.58206614      11.56309569       1.74625487       0.00209725      -0.01416266       0.01114927
Cl       5.26408858      12.21984556       0.11154607       0.01063716       0.00083196       0.00626099
Cl       5.58435169       9.51688245       1.14768965      -0.00298642      -0.00429609      -0.00447601
C        5.85506671      11.24825227       1.46186979       0.00150327      -0.00515300       0.00460634
H        5.33307466      11.52670065       2.38491603       0.00127730      -0.00698553       0.00144529
Cl       8.99175626       7.58449499      11.41323025      -0.00128931      -0.00635830      -0.00268659
Cl      10.12742941       9.72559047       9.78768302       0.01028261      -0.00537500       0.00671892
Cl       8.51305200       7.62401831       8.54481570       0.00910620       0.00245211      -0.00422037
C        8.76857948       8.61183666       9.99325942       0.00668593      -0.00193213      -0.00088344
H        7.87370714       9.20244260      10.14487279       0.00766990       0.00005940      -0.00252532
Cl       2.51408270       3.80033607      12.84520408      -0.00415227      -0.01293212      -0.00477013
Cl       2.40718492       2.18790848      15.25555328      -0.02233174       0.01368073       0.00966704
Cl       0.61615559       4.48036258      14.95049226      -0.00719653       0.02199623      -0.02001156
C        1.46338775       3.16645275      14.11625051      -0.01222244       0.00853460      -0.00410098
H        0.72094360       2.51255686      13.67468536      -0.01505205       0.00797671       0.00156829
Cl       1.03453397      14.28478100       2.90581873       0.00161815      -0.01179674       0.00194516
Cl       1.23909184      12.09979902       4.84252336      -0.00067297      -0.00017858      -0.00230530
Cl       2.18238514      11.72753016       2.11073862       0.00125991      -0.00878116       0.00348675
C        2.01102952      12.86763675       3.43507219       0.00623256      -0.00028074      -0.00186056
H        2.99429392      13.30285897       3.74728857      -0.00526971      -0.00699919       0.00501169
Cl       8.94385937       7.49102168      15.11074770       0.00001593      -0.00075737       0.00028144
Cl      10.53078577       9.57970608      16.39254358       0.00244284      -0.00375862       0.00202277
Cl       8.76100637      10.25471399      14.17863178       0.00566157      -0.00055456      -0.00023872
C        9.00484335       9.20280376      15.57786830       0.00256988      -0.00082629       0.00017573
H        8.19790422       9.38538639      16.27706404       0.00222874       0.00113872      -0.00078973
Cl      -1.96504244       6.05316474       9.55693562      -0.00559944      -0.00193718      -0.00222579
Cl      -0.87977559       3.86352422      11.15108877      -0.00160853      -0.00083125      -0.00348237
Cl       0.81612869       6.12601914      10.42764321      -0.00157478      -0.00447253      -0.01495886
C       -0.82476127       5.60421359      10.83845574      -0.00063550      -0.00114464      -0.00691342
H       -1.12427496       6.11804766      11.74440743       0.00450961       0.00074336      -0.00621676
Cl       9.97358398      14.10423191       2.31344726      -0.00099748      -0.00812048      -0.00650696
Cl      12.85536977      14.25865836       1.87833650      -0.00151044      -0.00388509      -0.00783899
Cl      11.60032486      15.81402570       4.01746929      -0.00269455      -0.00916998      -0.00406524
C       11.55139415      14.30808640       3.06431856      -0.00162084      -0.00750186      -0.00689645
H       11.70016681      13.49257779       3.76310485       0.00053150      -0.00865625      -0.00859757
