142
Lattice="12.435489391963905 0.0 0.0 0.0 12.435489391963905 0.0 0.0 0.0 12.435489391963905" Properties=species:S:1:pos:R:3:forces:R:3 energy=-254788.15625 stress="-0.0011796429753303528 -0.0006265336996875703 0.00026356178568676114 -0.0006265336996875703 -6.725185085088015e-05 0.0003031384840141982 0.00026356178568676114 0.0003031384840141982 -0.00012205723760416731" pbc="T T T"
Sc      12.27664244      13.62351339       0.12027716       0.00798407       0.01743197       0.00858851
P        0.39057588      11.39887325       2.65250124      -0.00906898      -0.03718126      -0.00373073
O        1.93297763      11.64632049       2.46628762       0.00611376       0.01728471       0.00171022
O        0.00585640      12.01929263       4.07741376      -0.00357270       0.00473613       0.00146082
O       -0.26731715      12.32275337       1.59019929       0.00124518       0.00883302      -0.00492103
O       -0.00843737       9.98313641       2.62454739       0.02117389       0.03971782      -0.00765640
H        2.52054185      10.97405832       2.96810033       0.00504770       0.01021306      -0.00288516
H        0.43822432      12.86256091       4.24501541      -0.00462529      -0.00194699       0.00345689
P        8.77937404      11.01706431       9.52419657       0.00267810      -0.01145566      -0.00115679
O        7.65779357       9.96525651      10.04268645      -0.01179266      -0.00198221       0.00790811
O        7.99983069      11.82955389       8.37799612      -0.01061434      -0.00497878       0.00228333
O        9.04688485      12.02631987      10.61577967      -0.00824580      -0.00294095       0.00036782
O        9.89957598      10.23738723       8.93796814      -0.02124310      -0.00127780       0.00841969
H        6.91843715      10.45519004      10.41962283      -0.00787532      -0.00072353       0.01018322
H        7.98828945      11.34203532       7.52337870      -0.00771933      -0.00599340       0.00211806
P        6.58019638       2.28880523      11.18229034       0.00182883       0.00907409      -0.00561261
O        7.03786565       0.84742806      11.72410130      -0.00079148       0.00825113      -0.00523007
O        6.65761260       3.10800605      12.59144768       0.00944394       0.00916812      -0.00624394
O        7.57666773       2.85745344      10.22427278      -0.00107086       0.00570655      -0.00938523
O        5.13265758       2.20541236      10.78601098       0.00018501       0.01242059      -0.00029361
H        7.80703825       0.42932908      11.23110906      -0.00250650       0.00466613      -0.00408877
H        6.57006341       4.07527415      12.43089828       0.00335467       0.00922802      -0.00473138
S       11.66038169       8.93198811      10.90138602      -0.00249505      -0.00276799       0.00185347
O       10.36244328       8.68868633      11.58179080       0.00103986      -0.00049940       0.00983250
C       12.87958364       8.38279187      12.12217098       0.00433505      -0.00100943      -0.00446624
C       12.06490595      10.70171815      11.06894296      -0.00192785      -0.00270969      -0.00402123
H       12.76564075       7.30269324      12.20198224       0.00279882      -0.00049102       0.00017131
H       12.63186098       8.85370432      13.07447650       0.01137015       0.00315973      -0.00443730
H       13.89288364       8.62955923      11.80492478       0.00249933      -0.00425908      -0.01222249
H       13.12866298      10.84143303      10.86545808      -0.00378449      -0.00351113      -0.01184476
H       11.80830211      10.96274916      12.09825153       0.00499281      -0.00014779      -0.00353469
H       11.44024978      11.22387946      10.34892179      -0.00703479      -0.00483672      -0.00073975
S        9.91370964       7.34172003       7.56143268      -0.00059184       0.00011003       0.00564027
O       10.15801269       5.89801752       7.20956094       0.00359002       0.00026226       0.00678611
C        8.54969937       7.90671543       6.53579366      -0.00036722      -0.00410594       0.00304723
C       11.18509052       8.30980737       6.73261843      -0.00212318       0.00274533       0.00654995
H        7.66038079       7.37410481       6.86810040      -0.00005332      -0.00551196       0.00173197
H        8.77446948       7.68297647       5.49180559       0.00104627      -0.00323218       0.00317602
H        8.42529690       8.97937277       6.67610856      -0.00250620      -0.00447899       0.00289860
H       10.98297123       9.35942882       6.94079746      -0.00582173       0.00262152       0.00413368
H       11.15510378       8.08424923       5.66612912       0.00049111       0.00015686       0.00722897
H       12.13795313       8.01749088       7.17015594      -0.00236047       0.00616521       0.00910399
S        3.45958431       8.59069327       3.84185207       0.00272599       0.00808907      -0.00195906
O        3.51819446      10.08944774       3.68304073       0.00865814       0.00818574      -0.01700341
C        2.68077408       7.96141152       2.34777243       0.00505483      -0.00292072       0.00250131
C        2.09929633       8.21392675       4.95607587      -0.00083089       0.02586092      -0.00186843
H        3.34036451       8.20886017       1.51828239       0.00864990      -0.01509497       0.00233538
H        1.70717740       8.43994284       2.24182487       0.00735843       0.00054872      -0.00544210
H        2.58472693       6.87879681       2.43185180      -0.00026971      -0.00120974       0.01450138
H        1.96673003       7.13080395       4.96464993      -0.00165452       0.02609019       0.01305216
H        1.19733574       8.71325352       4.60349966       0.00039199       0.02102610      -0.01157913
H        2.39004412       8.55732443       5.94612193      -0.00320220       0.04259381      -0.00712326
S        4.47433350       0.27538752       7.75327274      -0.00473452      -0.00355393      -0.00015426
O        4.90897740      -0.65741946       6.66993114      -0.00329328      -0.00672269       0.00318992
C        2.97536918       1.06264232       7.10213194      -0.00129223      -0.00169700      -0.00601101
C        5.51600541       1.73612584       7.67696196      -0.00216401      -0.00541323       0.00052296
H        2.19809917       0.30080637       7.07623049      -0.00155050      -0.00131859      -0.00949719
H        3.19395814       1.40848057       6.09067050       0.00352295      -0.00172096      -0.00496985
H        2.67570340       1.89368005       7.73547943      -0.00268092      -0.00143226      -0.00690441
H        5.09139019       2.52762880       8.28959435      -0.00243414      -0.00335810      -0.00235499
H        5.61307121       2.02263547       6.62967544       0.00158288      -0.00782774       0.00028236
H        6.48653362       1.46601354       8.08612102      -0.00367279      -0.00593359       0.00361329
S       10.20062715       2.82646189       2.06333372      -0.00507795       0.00421942       0.00664067
O       11.37055756       2.71049039       1.03338284      -0.00032040       0.00981313       0.01048505
C        9.03181849       1.60551250       1.52570625      -0.00000533       0.00206926       0.00035176
C        9.31255077       4.27926614       1.58275151      -0.00584543       0.00342113       0.00720380
H        9.44474686       0.62693814       1.76276775       0.00206356       0.00245535      -0.00179739
H        8.83893283       1.72547917       0.46171141       0.00095248       0.00461257       0.00053436
H        8.10358967       1.78283119       2.06757702      -0.00128555      -0.00182337      -0.00042121
H        8.42498657       4.29616879       2.21949908      -0.00872429      -0.00082956       0.00312777
H        9.01000112       4.17649136       0.54316280      -0.00124019       0.00558062       0.00573689
H        9.92740360       5.15739954       1.77207038      -0.00897507       0.00418489       0.01268816
S        7.52900789       0.07025990       5.46801724      -0.00119352      -0.00513005       0.00147894
O        7.96944002      -1.34753145       5.73514025      -0.00047219      -0.00407779       0.00249686
C        6.55761768       0.06111026       3.96124520      -0.00014907      -0.00647131       0.00095749
C        8.99664685       0.90529988       4.85412979      -0.00200450      -0.00347278       0.00169432
H        5.64818811      -0.48588660       4.20655443       0.00044695      -0.00778267       0.00023507
H        7.10280866      -0.42000712       3.14908571       0.00113487      -0.00582579       0.00139481
H        6.32981420       1.10160341       3.72479172      -0.00131349      -0.00680290       0.00092873
H        8.70637721       1.90353999       4.52739413      -0.00314254      -0.00386745       0.00175537
H        9.45845502       0.31804945       4.06056749      -0.00153250      -0.00278620       0.00151110
H        9.68163195       0.97052413       5.69778268      -0.00216540      -0.00278015       0.00171244
S        8.60246524       8.54673864       1.83002979       0.00322369      -0.01362449       0.00556755
O        9.08959137       7.66178484       2.93919753       0.00126690      -0.00807095       0.01074076
C        9.19392579      10.19855658       2.20279241       0.00669603      -0.01275516      -0.00499049
C        6.85917451       8.90408317       2.16293387       0.00393564      -0.00856215       0.00336742
H       10.27697009      10.16884045       2.10597709       0.00724843      -0.01588906      -0.00332057
H        8.90778075      10.44842825       3.22752697       0.00597783      -0.00561210      -0.00696319
H        8.76230268      10.88076983       1.46818671       0.00994515      -0.01627485      -0.00988933
H        6.54076524       9.70651895       1.49696086       0.00572017      -0.01137142      -0.00072369
H        6.73923251       9.20138994       3.20603300       0.00455998      -0.00318761       0.00180446
H        6.29387877       8.00113268       1.93741437       0.00212769      -0.00826842       0.00785281
S        3.73953840       4.84202420       9.93486878      -0.00325984       0.00123875      -0.01519275
O        4.05454668       5.06815367       8.48972127      -0.00360006      -0.01038575      -0.01700187
C        2.57529381       3.47056015       9.96260623      -0.00499600       0.00315875      -0.00446453
C        2.54949197       6.12469729      10.41062348      -0.00210166       0.00484848      -0.02321140
H        3.18419708       2.56935665       9.92444110      -0.00729841       0.00166880      -0.00206302
H        1.93097167       3.58641090       9.09312331      -0.00812034      -0.00076094      -0.00258367
H        1.99249124       3.46542398      10.88049091      -0.00155763       0.00932617      -0.00235057
H        2.18917666       5.90501120      11.41584677       0.00461645       0.01511745      -0.01894928
H        1.72313602       6.17279989       9.70033197      -0.00723448      -0.00402347      -0.01809546
H        3.08328868       7.07245170      10.42505194      -0.00339620       0.00553817      -0.03708243
S        2.81301789       1.86974348       1.39221499       0.02048006       0.01400246       0.00029606
O        1.76779555       1.63492712       0.25336126       0.00661349       0.01589172       0.01142251
C        3.48629500       3.46695270       0.98928304       0.02974060       0.00250101      -0.01273948
C        4.18636020       0.85274391       0.93453029       0.00447097      -0.00333980      -0.00293688
H        2.65447386       4.17040558       1.01056237       0.03864026       0.01128467      -0.00792642
H        3.99408288       3.41752675       0.02404823       0.01678124      -0.01095737      -0.01766518
H        4.20680934       3.70547709       1.77309442       0.04315334      -0.00235963      -0.02355760
H        5.01951314       1.15933421       1.56836819       0.01041211      -0.01119967      -0.00746097
H        4.43577087       1.07124029      -0.11140204       0.00112415      -0.00696714      -0.00354844
H        3.90646147      -0.17719769       1.13724831      -0.00471134      -0.00001302      -0.00008888
S        6.56052718       4.50753320       4.87701687      -0.00432371      -0.00838566       0.00149238
O        6.85946564       3.36084234       3.94833106      -0.00989340      -0.00425732      -0.00574017
C        4.77302239       4.54616723       5.12043660      -0.00322306      -0.00819008       0.00636334
C        6.64719614       5.98613651       3.87166545      -0.00626833      -0.00430644       0.00747120
H        4.48141878       3.61234787       5.59267510      -0.00267442      -0.00810809       0.00676543
H        4.27826380       4.66896473       4.15595652      -0.00666292      -0.00804620       0.00786279
H        4.53803768       5.36389458       5.80228710      -0.00169042      -0.00885743       0.00750640
H        6.18716959       6.81424971       4.40959849      -0.00506617      -0.00640322       0.01161112
H        6.12421388       5.78648452       2.93349186      -0.00866926      -0.00059420       0.00799790
H        7.69043151       6.23244775       3.67457672      -0.00677368      -0.00396400       0.00590624
S       10.62145690       2.75592046      10.15398313      -0.00633392      -0.00433779       0.00907160
O       11.69594693       1.74844263      10.70634879       0.00075537       0.00173190       0.00917301
C        9.94350560       1.98668149       8.71115555       0.00164403      -0.00705691       0.00708663
C       11.60119261       3.99482467       9.32644896      -0.01285014       0.00304154       0.01349744
H        9.25946504       1.21551275       9.04745823       0.00747088      -0.01267710       0.00520279
H       10.76395194       1.59446331       8.10996987       0.00506228       0.00072291       0.00701170
H        9.38921770       2.77015038       8.19423362      -0.00417398      -0.01037519       0.00856726
H       10.92158245       4.67222174       8.79694457      -0.01547915       0.00073731       0.01430717
H       12.25526488       3.50725373       8.60429130      -0.00996403       0.00882336       0.01255681
H       12.17628877       4.53645697      10.07408242      -0.01626087       0.00419368       0.01536191
S        7.20670460       6.85957029      11.54394371      -0.00750089       0.00520241      -0.00189197
O        6.46337126       5.84400874      12.38918313      -0.00720543       0.00563788      -0.00104350
C        6.40134659       6.94875373       9.93901355      -0.00067925      -0.00486928      -0.00582069
C        8.69274468       6.05054612      10.94353843      -0.00224435       0.00827402       0.00792283
H        5.39714479       7.33610040      10.09469210      -0.00220483      -0.00645377      -0.01295219
H        6.36658122       5.96833059       9.46656763       0.00430507      -0.00755203      -0.00043589
H        6.97137801       7.67362802       9.35849587       0.00042851      -0.00676897      -0.00703244
H        9.11040988       6.67237479      10.15340336       0.00026939       0.00790992       0.00904275
H        8.41447545       5.04948167      10.59643034       0.00220488       0.00708160       0.00792208
H        9.40443080       6.02599881      11.76434860      -0.00679880       0.01208754       0.01167715
