145
Lattice="12.253008641323301 0.0 0.0 0.0 12.253008641323301 0.0 0.0 0.0 12.253008641323301" Properties=species:S:1:pos:R:3:forces:R:3 energy=-193148.265625 stress="-0.0022151023149490356 -0.0010637090890668333 0.00035768403904512525 -0.0010637090890668333 -0.003806640859693289 -0.0001792691691662185 0.00035768403904512525 -0.0001792691691662185 -0.000752949679736048" pbc="T T T"
Sc      10.27554004      11.67450560       0.75838088      -0.04583149       0.02189581      -0.05640468
S        4.53969588       8.36843469       4.48045448       0.01153779       0.00250500       0.01941007
F        6.94633749       7.50790356       4.20956680       0.02444056       0.04494661      -0.01368304
F        6.35473401       8.82352389       2.58941592      -0.03578600       0.00118874      -0.01652766
F        5.61588979       6.80111666       2.65141082       0.01566937      -0.01637933       0.03258395
O        3.51989387       8.73452529       3.36589101      -0.00855672      -0.01981646       0.03168532
O        4.95153951       9.48919479       5.24982328       0.00713669      -0.00963706       0.00921845
O        4.11285029       7.16998691       5.15098201       0.03174603      -0.01614738       0.02380267
C        5.95191351       7.85077869       3.39660622       0.00125092       0.00841257       0.00474858
S        6.55331312      10.43631414      10.26695050       0.00831496       0.01198773      -0.00124422
F        8.57890899       9.13920422       8.95735606      -0.04036525      -0.01748514      -0.04004610
F        9.77991770      10.81396669      11.46978313      -0.05810079      -0.00971836      -0.03922662
F        8.81168599      11.24486777       9.09590941      -0.01232332      -0.02653891      -0.04418597
O        6.74482919      11.55827439      11.15457829       0.05695534      -0.01708871       0.01185431
O        6.15301070       9.20320540      10.86923990       0.00654970       0.00437063      -0.00531954
O        6.00250794      10.75707797       8.96024629      -0.03181407       0.04782595       0.02996825
C        8.15792703      10.21784600       9.46980307      -0.02478728      -0.01224476      -0.03845021
S        7.08264773      11.83102951       3.90061584       0.00002354       0.00748125       0.02003753
F        8.61181886      10.33947042       2.11429953      -0.02936140      -0.00575733       0.01726461
F        9.62576261      12.02586057       2.98802167      -0.00398400      -0.01721184      -0.00076571
F        8.17829779      12.32960457       1.42821865      -0.02418509      -0.00046599       0.02049559
O        7.30040948      13.23470025       4.15708336       0.00111131       0.00576258       0.00800015
O        7.59411923      10.90732115       4.88245375      -0.00078186       0.00708628       0.01514018
O        5.87242616      11.49599435       3.20574786      -0.00642407       0.01000053       0.02514005
C        8.36425155      11.59085931       2.59338474      -0.00546211      -0.00176354       0.01911552
O       10.97775323       1.41719611       0.83169857      -0.05726570       0.04264998      -0.01918390
O       12.31980023       3.22681190       1.00372710      -0.03384778      -0.02677891      -0.02538902
C       12.20464717       1.75616406       2.92469562      -0.01767822       0.01865038      -0.08096850
C       11.93911040       2.26166420       1.56323531       0.00374049       0.00176036       0.02992702
H       11.27358223       1.78166936       3.50189390       0.00995353       0.02308108      -0.00417310
H       12.57077090       0.72909239       2.92784067      -0.03764601      -0.02482638      -0.03498456
H       12.92158037       2.40970232       3.41291470       0.03365442      -0.02811402      -0.04654555
H       10.52905397       1.96255219       0.14037873      -0.08156365       0.00906616       0.05441785
O        8.64440945       2.97898620       2.20886330      -0.01262909       0.00484115       0.00940189
O        9.54628600       2.97942556       4.26173961      -0.01559389       0.02834243      -0.00737673
C        8.03896524       4.75060448       3.61738050      -0.01939112       0.00632119       0.00475292
C        8.82055889       3.49989566       3.44773051       0.00505745      -0.00249165       0.02228492
H        8.40896471       5.49720817       2.91293596      -0.02056552       0.00619885       0.00638822
H        6.99385900       4.56769508       3.36809920      -0.01626265      -0.00096007       0.00396132
H        8.12293255       5.10965252       4.63657772      -0.02161286       0.00577011       0.00479811
H        9.04544281       2.10322896       2.22028341       0.00408398       0.00620943       0.01753399
O        4.90230949       4.76412594       6.03543991       0.00748851      -0.02625656       0.00585264
O        4.66197178       4.17999644       3.88090680      -0.01892060      -0.02164531       0.00533783
C        4.80560819       2.46559571       5.55820827      -0.01757027      -0.02501392       0.00452203
C        4.78747137       3.86895480       5.04451207      -0.00991369      -0.02719527       0.01154786
H        5.52400384       2.36344587       6.36979777      -0.01499356      -0.03283700       0.00108458
H        3.81385491       2.24221745       5.95807035      -0.01711433      -0.02124688       0.00732815
H        5.04162767       1.77626714       4.75599273      -0.02607001      -0.02470824       0.00212103
H        4.76545632       5.66102436       5.66069078       0.01323592      -0.02584207       0.00918730
O        6.89209788       1.78926268      10.40692446       0.04026324      -0.02058184       0.04540758
O        8.82734677       1.76774608      11.54085286       0.02058488      -0.00443995       0.04093382
C        7.37265143       3.70219736      11.63581111       0.04312257       0.00194013       0.00788036
C        7.79345299       2.34182398      11.19826254       0.04687417      -0.01474068       0.03510161
H        7.08220900       4.30292429      10.77227841       0.04151300      -0.01702721      -0.00168037
H        6.47388052       3.58190825      12.24590164       0.04500505       0.00952774       0.01045312
H        8.13283373       4.19226117      12.22813995       0.04132390       0.01273166      -0.00030608
H        6.97115087       0.80538003      10.44187439       0.05044042      -0.02596945       0.05805102
O       10.35676902       5.51723056       6.26901836      -0.00019602       0.00552714      -0.00702429
O        8.74147895       7.03923577       6.60341638      -0.00734925      -0.00265175      -0.00915861
C       10.29783692       7.32760857       4.78016488      -0.00177962       0.00945562      -0.00155282
C        9.69913662       6.65274105       5.97681234      -0.00215119       0.00223684      -0.00589234
H       11.28844328       7.69960898       5.04506533       0.00116296       0.00100625      -0.00213321
H       10.41756096       6.61059496       3.96760545      -0.00948014       0.01509082      -0.00753038
H        9.65979938       8.14599341       4.45728936       0.00085427       0.01401767       0.00702344
H        9.93922336       5.11367366       7.04556198      -0.00247678       0.00119743      -0.01045123
O        1.51721561       6.10363888       2.53814679       0.00755697       0.02711761      -0.02233469
O        1.05256223       5.73547045       0.37368914       0.00360131      -0.01034695      -0.02264524
C        3.32936490       5.61592916       1.13232667       0.00917494      -0.01288878      -0.00125514
C        1.86061637       5.79953246       1.27650004       0.02408481       0.00374809       0.00145751
H        3.76040380       6.61829387       1.11678804       0.02648598      -0.02072498      -0.00511022
H        3.75535119       5.09025674       1.98361245      -0.00223583      -0.01272913       0.00543019
H        3.55687438       5.12711017       0.19111853       0.00894366      -0.02475215       0.00551248
H        0.60063608       6.41649859       2.54230108      -0.00058293       0.00200810      -0.02740738
O        3.53807347       6.46617637       9.31578350       0.01766144      -0.00786412      -0.00218207
O        1.70693777       7.62987913       8.75438315       0.00925326      -0.00097131       0.05210523
C        3.86264691       8.56017634       8.27221230      -0.00632310      -0.00173175      -0.00055978
C        2.91285561       7.52830142       8.77828438       0.00601673      -0.00122967       0.01986325
H        3.99051967       9.30332805       9.06083630      -0.01080180       0.01284242      -0.01486729
H        4.84016617       8.14716780       8.04301567      -0.00505506       0.00409712      -0.00280649
H        3.44634077       9.05763785       7.40166407      -0.01745464      -0.02135325      -0.00577635
H        2.85994145       5.86252717       9.67997579       0.02650627      -0.00881627       0.00529504
O        4.29487452      10.38263135       0.45672330       0.00964487       0.00613511      -0.01548180
O        2.13422001       9.89640125       0.12446640       0.00406849       0.00084376      -0.00553405
C        2.74228734      12.06392154       0.98258018       0.00185080      -0.01131517       0.00837821
C        2.99016219      10.67295262       0.49028646       0.00791889       0.00197053      -0.00410137
H        3.45188981      12.33468066       1.76209912       0.00129896      -0.01263346       0.00856583
H        2.86454340      12.75422833       0.14407418      -0.00717685      -0.00015529       0.01606171
H        1.71857577      12.13605032       1.33728149       0.00291264      -0.01803608       0.01422757
H        4.40709060       9.50455389       0.06259646       0.01334970       0.01000962      -0.01605889
O        1.81866507       9.38751846       5.17121180       0.01846829      -0.01735109       0.00474660
O        0.71844739      10.98922328       4.08853336      -0.03749533      -0.02836789       0.03166872
C        1.37001931      11.44347716       6.32056037       0.01298069       0.00058037      -0.01193047
C        1.33129374      10.51147726       5.16107792      -0.00983125      -0.00851679       0.00427854
H        0.37056515      11.82690571       6.52544599       0.01814649       0.01447520      -0.01624663
H        1.77827356      10.92888322       7.18483760       0.02354141       0.02930766      -0.00279155
H        2.00353031      12.29894136       6.07788952       0.01045533      -0.00851625      -0.04557047
H        2.65429346       8.93135402       3.85842684      -0.00910652      -0.01427207       0.03880027
O        8.46088656       7.82989612      11.50098030      -0.01018858      -0.02009708      -0.02173597
O        9.04329381       6.15879060      12.86902772       0.02943435       0.01020357      -0.00110459
C        9.73179028       6.08998875      10.55088376       0.02546993       0.00177556      -0.00156826
C        9.06292807       6.64887991      11.76491737       0.01504797       0.00326747      -0.01090676
H        9.19102409       6.36136548       9.64511279       0.02318382      -0.01287767      -0.00395000
H       10.73956010       6.50465410      10.46836545       0.01891837       0.01419501      -0.00438135
H        9.82127576       5.01095433      10.64144240       0.04080147       0.00434050       0.00746568
H        7.95799351       8.09611200      12.28542459      -0.01341754      -0.01316855      -0.02467817
O       11.64980686      10.56158914       1.43508174      -0.03282273       0.03638905      -0.05197693
O       12.57213598       8.87308918       2.52350773      -0.00789647       0.06302862      -0.04114565
C       11.65603230       8.44210385       0.34503713       0.00731772       0.02141035      -0.01343453
C       12.01119777       9.27772920       1.51848870      -0.01576835       0.05887587      -0.04322013
H       10.61091329       8.60525141       0.08708901       0.01084797       0.00668170      -0.02702322
H       12.26060870       8.79130153      -0.49337306       0.02448796      -0.02035247      -0.01273337
H       11.85743514       7.38880126       0.51078075       0.00515889       0.03514460       0.03828311
H       12.87242577      10.22451158       3.44680182      -0.02916779       0.00655696      -0.01391724
O       10.05723408       2.96305422       8.02440141       0.00308262       0.00523543       0.00231457
O       11.04298651       1.34849696       6.83351778      -0.00244457       0.01147920      -0.00354874
C        8.66144185       1.32169951       7.05228978       0.00455475       0.00160307       0.00275443
C       10.02656077       1.85814681       7.29360413       0.00952405       0.00086343      -0.00534394
H        8.01132369       1.48506360       7.90956548       0.00399230       0.00404371       0.00031263
H        8.25147423       1.86188403       6.19646540       0.00383514      -0.00467701      -0.00119883
H        8.70255474       0.27502804       6.76931050       0.00709088       0.00049905       0.00652742
H       11.01259866       3.29287967       8.07828043       0.00162372       0.00638141      -0.00221015
O        2.19440055       4.35675006      10.45579804      -0.00865096       0.01428190      -0.00302237
O        2.20860982       2.12715948      10.71384520      -0.01772529       0.01772153       0.03854060
C        3.67653895       3.15123212       9.09241827      -0.01736659      -0.01868478       0.01627934
C        2.62831781       3.11433787      10.16168906      -0.01066992       0.00949913       0.01490235
H        3.22699323       3.48150787       8.15519001      -0.01264372      -0.01896916       0.01405783
H        4.44298566       3.88887483       9.33156161      -0.00484608      -0.02931894       0.00880960
H        4.12375014       2.17202587       8.96163915      -0.03352160      -0.02634065       0.02395983
H        1.54633769       4.37563321      11.18647667       0.00589183       0.03756678       0.00099906
O        0.66183968       2.99347898       6.07009350      -0.00277691       0.02244681      -0.00628982
O        0.11931634       4.08000414       7.94708633      -0.00696105       0.00787262       0.00451529
C        1.44636169       5.21188275       6.30710666       0.00654298       0.01279986       0.01182365
C        0.67930491       4.05996129       6.85527867       0.00278085       0.00812408      -0.01001406
H        2.50226337       5.09087285       6.56199681       0.00444053       0.00765311       0.01638331
H        1.38085733       5.23624878       5.22122407       0.01203192       0.01940807       0.01157147
H        1.09285834       6.13553863       6.75703066       0.00658304       0.00998639       0.01520646
H        0.03144816       2.31085944       6.45883806      -0.00328998       0.01617958      -0.01304471
O       10.53423906      10.32147346       7.09893029       0.01660883      -0.01604396      -0.02424175
O       11.24319825       8.25197675       7.61527006      -0.00340508      -0.01798308       0.01054689
C       11.90301854      10.07936838       9.02171860      -0.00260103       0.00290695      -0.01106560
C       11.22930336       9.42933594       7.85527267       0.00231320      -0.00200009      -0.00626141
H       12.04266164      11.14753165       8.87329102      -0.00925006       0.00267060      -0.01800274
H       11.26685298       9.93880801       9.89851441      -0.00184187       0.00269710      -0.01097043
H       12.84115515       9.56070120       9.20767014       0.00032674       0.01041515      -0.00628186
H       10.03442946       9.82293611       6.43421154       0.01424603      -0.01975763      -0.01927215
