146
Lattice="12.360708319849941 0.0 0.0 0.0 12.360708319849941 0.0 0.0 0.0 12.360708319849941" Properties=species:S:1:pos:R:3:forces:R:3 energy=-118852.0 stress="0.0008554448140785098 -8.292330676340498e-05 0.0007351153763011098 -8.292330676340498e-05 0.0005113029619678855 0.00011575339885894209 0.0007351153763011098 0.00011575339885894209 0.0014660943998023868" pbc="T T T"
Sc      10.40543547       9.86646859       0.30104168      -0.02121624       0.01112884      -0.00706302
B        7.08246880      12.17245152      11.23248980       0.01281838       0.01070886       0.01229176
F        6.35877671      13.11550634      10.53378995       0.03399235       0.01669645       0.00107437
F        6.83266609      12.25576413      12.59736718      -0.01384172       0.01683787       0.00464606
F        6.78202382      10.87798868      10.76998402      -0.00108184       0.01296258       0.01887384
F        8.49329107      12.36908629      11.03631283       0.01647180      -0.00769141       0.03474236
B        7.82378446      10.82104463       5.05338678       0.01229911      -0.01038816      -0.00061617
F        7.89585646      12.03605388       4.35463562       0.00411327      -0.02442694      -0.02471501
F        7.27920639       9.83704184       4.19171020       0.03204638      -0.03217632       0.01575494
F        9.11350402      10.42363949       5.44257935       0.01253152       0.01349783       0.01721668
F        7.01437368      10.95375545       6.18219422      -0.00033402       0.00123063      -0.01175261
B        0.36725414      10.06367794       1.81629750      -0.01683381       0.01031105      -0.01320270
F       -0.45681022       8.88581410       1.45785038      -0.01341398       0.01355392      -0.03161177
F        0.14899793      10.43098113       3.08081801      -0.00964428      -0.02292419      -0.00115231
F        1.62550138       9.89635486       1.40375009      -0.01971582       0.02255274      -0.01878664
F       -0.34530867      11.04143169       0.89466614      -0.03610946       0.02498478       0.00866341
O        4.38222842       1.08174640       1.71339057      -0.00979000      -0.00517166       0.00575134
C        3.08947825       3.06031883       2.03864088      -0.00062892       0.00114053       0.00879523
C        3.90490564       2.72496478       3.29024446       0.00764170       0.00167036       0.00407171
C        3.24861324       1.78428592       1.19742402      -0.00742257       0.00000125       0.00765517
C        5.02871315       1.90645933       2.68018867       0.00026627      -0.00527617      -0.00106347
H        2.04666689       3.30059877       2.24565871       0.00167376       0.00225102       0.01478930
H        3.53409430       3.91522803       1.52267498      -0.00227229       0.00062367       0.00585091
H        4.26087009       3.59581852       3.83661790       0.01322552      -0.00017619      -0.00013921
H        3.31605875       2.10566031       3.97299515       0.00946406       0.00324550       0.00924005
H        2.37889028       1.12435966       1.29023058      -0.00914508       0.00424695       0.00784083
H        3.39971735       1.99818245       0.13322035      -0.00713030       0.00136556       0.00715560
H        5.76221408       2.56929861       2.19601120      -0.00141388      -0.00775349      -0.00949612
H        5.56956461       1.26263278       3.37364812       0.00311218      -0.00385830      -0.00440654
O        2.66573959       9.59994609       5.22371453       0.00241788       0.00015688      -0.00015214
C        3.92835046      11.58498362       5.38108165       0.00503999      -0.00278515       0.00786304
C        2.48410995      11.89960482       5.76222204      -0.00213461       0.00238180      -0.01281752
C        3.75078783      10.30435732       4.58701304       0.00090331       0.00146043      -0.00184363
C        1.93135059      10.50886731       6.05060517       0.00194677       0.00207096      -0.00315040
H        4.40933274      12.36530171       4.79533202       0.00625672      -0.00013161       0.00171615
H        4.54108157      11.40122644       6.26506992      -0.00414716       0.00017408       0.00055587
H        2.38932065      12.57204511       6.61483942      -0.00229206       0.00354551      -0.00373915
H        1.95394498      12.34244628       4.91519428       0.00716601       0.00149892      -0.00476748
H        3.47727888      10.52585009       3.54776804       0.00745827      -0.00207394       0.00220972
H        4.63669385       9.66810089       4.59472360       0.00469899      -0.00255921       0.00415984
H        2.08633025      10.22939122       7.10168838      -0.01146890       0.00453299      -0.00790960
H        0.86905020      10.41802802       5.82228404      -0.00369871       0.00326130      -0.01599635
O        4.22880310       7.91715674      10.64415934       0.00928530       0.00640929       0.00838985
C        2.46885475       9.49463391      10.58265479       0.00532830       0.00384560      -0.00002022
C        3.68134115      10.06909976       9.85076773       0.00536852       0.00116497      -0.00312897
C        3.12121603       8.39442919      11.41362156       0.00473183       0.00487515       0.00310577
C        4.45522689       8.80110747       9.52999270       0.00695617       0.00040334       0.00317196
H        1.95186572      10.22301173      11.20643105       0.00572283       0.00436632      -0.00349148
H        1.75968713       9.06793030       9.86512235       0.00496475       0.00157037       0.00011340
H        3.42883536      10.64185827       8.95932364       0.00700156      -0.00120015      -0.00247155
H        4.26554790      10.70786505      10.51483673       0.00599277       0.00250873      -0.00150710
H        3.48821838       8.79958620      12.36308771       0.00045744       0.00644627       0.00399750
H        2.45418834       7.55610333      11.63387717       0.00552410       0.00394866       0.00121937
H        4.07644723       8.32742902       8.61502000       0.00346634      -0.00475898       0.00601768
H        5.52797256       8.96390291       9.42687920       0.00537574      -0.00083882      -0.00086959
O        5.61425862       4.78520426       9.34561476       0.00562000      -0.00047334      -0.00278169
C        5.96774462       3.79302286      11.49405905      -0.00251319       0.00442877       0.00072908
C        7.23589380       4.48223875      10.98609097       0.00100499      -0.00204709       0.00149336
C        5.06354728       3.81538339      10.25374763       0.00213277       0.00110286      -0.00283390
C        6.64055756       5.50132691      10.02786542       0.00633723      -0.00189593      -0.00184709
H        6.13529250       2.77919639      11.85281313      -0.00534304       0.00422123       0.00463980
H        5.52640957       4.38234034      12.30144772      -0.00346474       0.00746748      -0.00330020
H        7.83031296       4.93226579      11.78204669       0.00040025      -0.00037252       0.00282355
H        7.86380937       3.77185039      10.44250600       0.00021866      -0.00438127       0.00616457
H        5.05787911       2.84817610       9.74807467       0.00359219       0.00033063      -0.00063103
H        4.03221985       4.09090395      10.49894857       0.00115430       0.00219183      -0.00684790
H        6.20865497       6.35002808      10.57630798       0.00787938       0.00061500      -0.00549114
H        7.33708193       5.88578973       9.27980179       0.00988218      -0.00617558      -0.00105348
O        9.19940080       8.84467980       9.84516148       0.00356784       0.00766634       0.02680627
C       10.19247589      10.82744145       8.93451407       0.00075212      -0.00858545      -0.00912535
C       10.78298179      10.47518709      10.31719673       0.01545501      -0.00033748      -0.01478737
C        9.02023762       9.85040989       8.78682522      -0.00193241      -0.00596258       0.01392165
C       10.50928685       8.96253130      10.30250313       0.01601209       0.00138641      -0.00083292
H        9.87472139      11.86586548       8.89401235      -0.00367205      -0.00307405      -0.00808129
H       10.95433827      10.65366279       8.17562219      -0.01628813      -0.00613987      -0.02085355
H       11.82807335      10.76713775      10.45242467       0.01852819       0.00162500      -0.02166828
H       10.12008724      11.07709954      10.99257198       0.02472554       0.00015888      -0.01077023
H        8.05658552      10.31300616       8.97116647      -0.00295213      -0.00077799       0.01712316
H        9.03464734       9.35272075       7.81995735      -0.01369421      -0.02054015       0.02307367
H       11.26061648       8.47161898       9.66826577      -0.00123328      -0.01037246      -0.00825199
H       10.56771259       8.36213836      11.26313074       0.03038144       0.00864959       0.00315543
O       10.87628567       7.58566967       7.18711929      -0.00391689       0.00251529       0.00519517
C       10.71664112       7.72924371       4.81577496      -0.01404835       0.01206172      -0.00163281
C       10.21073751       6.36623798       5.28732294       0.01494451      -0.01138645       0.00637364
C       11.45423309       8.25079071       6.04541680       0.01218720      -0.00713602       0.00578946
C        9.86811067       6.67201576       6.73576117      -0.01055800       0.01138103       0.00112695
H       11.36799322       7.67476305       3.94379906       0.00137338      -0.00195014       0.00471644
H        9.88233987       8.39610735       4.59497190       0.01034346      -0.00714982       0.00677451
H        9.34549457       6.00616939       4.73000338      -0.00320581      -0.00044139       0.00137849
H       11.00470145       5.61822759       5.22112225      -0.00785369       0.00549917       0.00646291
H       12.52332479       8.01647258       6.01781272      -0.00512731      -0.00627384       0.00650286
H       11.32545360       9.32924294       6.15734921       0.00643943       0.00027764       0.00249214
H        8.87794570       7.14432321       6.80204397       0.00164855      -0.00224659       0.00219577
H        9.88543547       5.80084407       7.39337636      -0.00199618      -0.00285238       0.00755954
O        9.13784176       9.19967222       1.75517305      -0.01277792       0.00496840       0.00425547
C        7.48005267       7.74086117       1.03624578      -0.01063573       0.00721884      -0.00157851
C        6.85762597       9.14582694       1.02113737      -0.01865739       0.00485629       0.00813313
C        8.57493459       7.87554035       2.06708239      -0.00908166      -0.00135505       0.00087494
C        8.02149488      10.07666371       1.33808840      -0.01461372       0.00220743       0.00901303
H        6.76525455       6.96634660       1.30762108      -0.01121433      -0.00058155      -0.00438946
H        7.89655141       7.48862608       0.05512676      -0.01889949       0.01418661      -0.00030914
H        6.40107651       9.39513460       0.06746135      -0.02259889       0.00581562       0.02258143
H        6.11998704       9.24868971       1.81492927      -0.01444624      -0.00416935       0.01983550
H        8.18857652       7.94775272       3.08326874      -0.00705421      -0.01170199       0.00007012
H        9.39724980       7.16368342       2.01045533      -0.01107879       0.00450850      -0.01013514
H        8.35614041      10.63806127       0.43186346      -0.02093810      -0.00289424       0.00444395
H        7.85443128      10.80234622       2.12753673      -0.01226840       0.00682974       0.00798571
O        6.19417180       6.28447416       4.83773812       0.00431436       0.00758719      -0.00100747
C        3.82682045       6.38519629       4.51797321       0.00275409       0.00127177       0.00512202
C        4.15902068       5.78919305       5.88786905       0.00989980      -0.00138885       0.00296587
C        5.19452406       6.41681402       3.82314298       0.00145447       0.00220450       0.00112221
C        5.55611663       6.33317520       6.12104342       0.00647384       0.00878797       0.00018987
H        3.09457139       5.80296981       3.95802505       0.00398479      -0.00611036       0.00588854
H        3.43007391       7.39386514       4.63700545      -0.00238273      -0.00318137       0.00133497
H        3.45745320       6.08837311       6.66526886       0.00862357      -0.00227486       0.00605777
H        4.19638260       4.69886025       5.85320866       0.01497722       0.00179759       0.00444440
H        5.32266976       5.58361742       3.12196285       0.00361615       0.00495017       0.00097096
H        5.34850981       7.35441780       3.27669799      -0.00388460       0.00498325       0.00085261
H        5.52219658       7.37160898       6.47908091       0.00282189       0.00806642      -0.00207978
H        6.13956263       5.72908554       6.81288475       0.01123965       0.01207948       0.00077173
O        6.58291303       3.09275696       6.14375922      -0.00233293      -0.00082797      -0.00884035
C        8.57133547       2.21756594       7.04485503       0.00114077      -0.00053784      -0.01944041
C        7.39561738       1.54617068       7.75179012       0.00416368       0.00096765      -0.01207840
C        7.90016896       3.48087982       6.52694753      -0.00284725       0.00090370      -0.01008901
C        6.25889751       1.84416559       6.78599423       0.00165379      -0.00373450      -0.01177537
H        9.41178239       2.43094442       7.70669734       0.00441164      -0.00021743      -0.01901539
H        8.91823395       1.59461375       6.21663323      -0.00141899       0.00271417      -0.01857525
H        7.51910332       0.47615918       7.90391120       0.00652141      -0.00341114      -0.01495250
H        7.21543014       2.00910525       8.72166041       0.00756707      -0.00327165      -0.01448643
H        7.84405169       4.23671073       7.32453962      -0.00102453      -0.00269938      -0.00975126
H        8.38766311       3.93173169       5.66037482      -0.00552207       0.00496569      -0.01216602
H        6.19454597       1.06600540       6.02229399       0.00020540      -0.00104392      -0.01068926
H        5.28867032       1.94713286       7.27998331       0.00174099      -0.00526437      -0.00694755
O       11.76763901       3.93195986       2.90852592      -0.00344256      -0.00901243      -0.00083923
C       10.56154525       1.92180997       2.61603260      -0.00597625      -0.00755399       0.00043830
C       10.04689948       2.95106783       1.60956605      -0.00585848      -0.00705750       0.00102720
C       11.21851958       2.82720112       3.64553047      -0.00298344      -0.00874555      -0.00011081
C       11.19030920       3.95836725       1.59840768      -0.00498888      -0.00919139       0.00003093
H        9.78139598       1.29301831       3.04434406      -0.00598776      -0.00754158       0.00164294
H       11.31154129       1.27786718       2.14760938      -0.00754201      -0.00864925      -0.00049494
H        9.83454484       2.53900462       0.62385479      -0.00925884      -0.00613977       0.00149974
H        9.13060707       3.41222556       1.98653393      -0.00494647      -0.00427862       0.00432843
H       10.47632461       3.20367558       4.36073668      -0.00161311      -0.00835523       0.00123930
H       12.02668978       2.35171094       4.20468084      -0.00259969      -0.00961417      -0.00149336
H       11.95758385       3.67784515       0.86535144      -0.00506371      -0.01244241      -0.00067154
H       10.87166700       4.98132511       1.37609058      -0.00238991      -0.00907025      -0.00197595
