142
Lattice="13.054015388090498 0.0 0.0 0.0 13.054015388090498 0.0 0.0 0.0 13.054015388090498" Properties=species:S:1:pos:R:3:forces:R:3 energy=-120916.2265625 stress="-0.00020544974540825933 -6.314951519925671e-06 0.0006301889952737838 -6.314951519925671e-06 -0.00013653875794261694 0.00022510332200909033 0.0006301889952737838 0.00022510332200909033 -1.239605262526311e-05" pbc="T T T"
Sc      11.42491491      13.45004362      -0.34507346      -0.01508108       0.01090680       0.00013152
O        0.15201323      12.79792019      -0.42234527      -0.01448728       0.01205959       0.01348576
H        0.86744341      13.13910047       0.12296852      -0.01666620       0.01624642       0.01356535
O       -1.63376477      14.33535779       1.27425410      -0.02605394       0.03140535      -0.01243341
H       -1.80367625      14.67111170       2.15544458      -0.01751749       0.04115246      -0.01418015
O        6.82885402      12.54277902      11.47430244      -0.01619827       0.01684961       0.00432515
H        6.84728195      13.40763558      11.05101892      -0.01737268       0.00664517      -0.01595645
O        9.72417150      10.33694380      10.01686815       0.00584421      -0.00002432       0.00293770
O       11.34183351       9.72740018      11.25434264       0.00809161       0.00193167       0.00240339
O       10.79629547      11.94850939      11.19159487      -0.00047091       0.00029626       0.00681227
C        8.84150338      11.13385216       9.35334250       0.00554982       0.00320482       0.00870875
C        7.87806149      10.37454869       8.56053005       0.00800538       0.01239040      -0.00216588
C       10.64454331      10.76437693      10.85364948       0.00482625      -0.00032365       0.00519729
C       12.54436798       9.94510062      12.00897061       0.00712091       0.00312531       0.00446451
H        7.33235501      11.98331044      10.86275215      -0.01385346       0.00387118       0.01963605
H        9.11337322      12.17033128       9.21675991      -0.00024998       0.00660610       0.02770288
H        7.31069681      11.02291092       7.89371444       0.01923178       0.01797721      -0.00615287
H        8.35985687       9.58664825       7.96059491       0.00959286       0.01071781       0.00175861
H        7.15813452       9.83550170       9.19574307      -0.00281209       0.01627004      -0.01160789
H       13.19845871      10.64305914      11.49295227       0.00490737       0.00742136       0.00746971
H       12.99136499       8.95992430      12.08998270       0.01032232       0.00446561       0.00080579
H       12.31690407      10.34052517      12.99691890       0.00472055      -0.00189894       0.00574458
O        2.39674647       9.71100022       5.70860795      -0.00154797      -0.00233610       0.00463651
O        2.63136476       7.56330653       5.58249814      -0.00093585      -0.00221580       0.00362355
O        1.04756193       8.39917571       6.97050615      -0.00231922      -0.00339714       0.00270247
C        1.74818093      10.87644823       6.26918088      -0.00225461      -0.00281367       0.00485078
C        2.39145914      12.07970576       5.63193134      -0.00352640      -0.00216141       0.00455432
C        1.93569702       8.54618017       6.16966912      -0.00157505      -0.00267990       0.00354785
C        2.26803821       6.24906771       6.03129533      -0.00149450      -0.00258206       0.00193645
H        0.67979094      10.81966962       6.05465042      -0.00236320      -0.00395617       0.00575635
H        1.87289188      10.86098722       7.35436565      -0.00144186      -0.00246199       0.00473633
H        1.95358188      12.99456551       6.03160707      -0.00349287      -0.00281313       0.00607269
H        3.46379104      12.09621480       5.82678190      -0.00294696      -0.00223846       0.00322651
H        2.23983523      12.06714141       4.55304536      -0.00599450      -0.00114229       0.00479573
H        2.52562439       6.12257844       7.08242089      -0.00063034      -0.00424350       0.00153890
H        2.83489305       5.56154772       5.41103527      -0.00246713      -0.00214715       0.00055405
H        1.19784950       6.08705251       5.90880262      -0.00166947      -0.00174621       0.00265785
O       10.51197743       3.31004403       3.51286162      -0.00620587      -0.00783509      -0.00034506
O        9.25237771       1.55443007       3.54725365      -0.00663400      -0.00699247       0.00377998
O        8.26691856       3.59119856       3.40530472      -0.00717705      -0.00556907       0.01609796
C       10.63983843       4.75676734       3.53788167      -0.00440514      -0.00782931       0.00213627
C       12.10392925       5.08596187       3.49887614      -0.00388232      -0.00942235       0.00191021
C        9.24323910       2.88768359       3.48158374      -0.00620264      -0.00720984       0.00708609
C        7.93698193       0.96822936       3.56255639      -0.00585917      -0.00818659       0.00448093
H       10.09913159       5.16620315       2.68408512      -0.00452363      -0.00573412       0.00322303
H       10.16528004       5.11416619       4.45394827      -0.00362912      -0.00908522       0.00286460
H       12.23639830       6.16585356       3.58265706      -0.00278779      -0.00979191       0.00356141
H       12.63510486       4.61243677       4.32507041      -0.00419384      -0.01095840       0.00124507
H       12.55142453       4.75793998       2.56190492      -0.00433468      -0.00837661       0.00131588
H        7.37377182       1.35249812       4.40881494      -0.00686771      -0.00744700       0.00347924
H        8.09032428      -0.10043641       3.66873026      -0.00465153      -0.00770304       0.00598473
H        7.42326699       1.18629267       2.62875673      -0.00556707      -0.01014929       0.00374755
O        7.16836451      11.35854448       1.32243128       0.00901089      -0.01468940       0.00428800
O        5.02068075      11.15133774       1.40525598       0.00914668      -0.01096003       0.00641014
O        6.19850642       9.66509282       0.16921389       0.00302414       0.00115842      -0.01537913
C        8.45454885      10.87113885       0.90309688       0.00830677      -0.00849515      -0.00506087
C        9.41755560      12.03384497       0.96187990       0.00774526      -0.00831673       0.00957739
C        6.13160432      10.62793870       0.89008363       0.00631398      -0.00611603      -0.00140333
C        3.81676245      10.42919900       1.09532105       0.00499365       0.00030622      -0.00368892
H        8.75307742      10.07356928       1.58936745       0.00896198      -0.01979071      -0.01898441
H        8.36910192      10.44782219      -0.09695812       0.00554802       0.00637691      -0.01096135
H       10.43126466      11.63166526       0.81302150       0.00794320      -0.00412797      -0.00284879
H        9.13281273      12.77041028       0.20083398       0.00170162       0.00228294       0.02175944
H        9.41376594      12.53035544       1.92842167       0.01110534      -0.02575227       0.01847491
H        3.76524967      10.21481485       0.02977308       0.00689673       0.01086052      -0.00566307
H        3.00130319      11.08213820       1.39333150       0.00877324       0.00313438       0.00022456
H        3.79472955       9.50134352       1.66546538      -0.00269645      -0.00440443      -0.01251163
O        3.17487904       3.82116615       2.70245591      -0.00458012      -0.00147998       0.00296114
O        4.17513116       1.98751649       3.25391837      -0.00716359      -0.00319527       0.00257037
O        2.98335526       2.03200332       1.32615959      -0.00143078       0.00096425      -0.00117469
C        2.36100412       4.58569481       1.78404769      -0.00039145       0.00066075       0.00109702
C        2.14389654       5.93406519       2.41708434      -0.00031175       0.00092670       0.00053811
C        3.40213855       2.56163661       2.32928502      -0.00390217      -0.00036174       0.00192338
C        4.50057886       0.61810037       2.96439269      -0.00626519      -0.00249515       0.00045845
H        2.88558482       4.65217860       0.82864723       0.00271362       0.00018536       0.00267541
H        1.42887816       4.04399128       1.61010113      -0.00074235       0.00256474      -0.00196053
H        1.54805498       6.56532682       1.75591382       0.00140991       0.00112004      -0.00074739
H        1.60763145       5.83349105       3.35714763      -0.00220874       0.00156996      -0.00043128
H        3.09110362       6.43086491       2.61909434      -0.00029427       0.00041884       0.00200940
H        3.59438558       0.02391200       2.87094653      -0.00589576      -0.00262955      -0.00173782
H        5.09387628       0.27140398       3.80470505      -0.00736620      -0.00376223       0.00046889
H        5.06544202       0.54053565       2.03971203      -0.00492787      -0.00029008       0.00093520
O        6.84358792       7.70175344       3.15018636      -0.00044766       0.00231977      -0.00209565
O        5.20891422       7.33343473       1.78001637       0.00237230       0.00185825      -0.00508218
O        7.26591779       6.55063162       1.24325714       0.00246614      -0.00381577       0.00205439
C        8.21279224       7.46676198       3.54512409      -0.00325163      -0.00156644       0.00553119
C        8.44792000       8.19192903       4.84422643      -0.00627083       0.00692248       0.00262058
C        6.51755151       7.13735835       1.98211660       0.00122696       0.00019324      -0.00079167
C        4.77013085       6.92527126       0.47665864       0.00379552      -0.00307275      -0.00408769
H        8.35500201       6.39008407       3.64008055      -0.00906867      -0.00268137       0.01194682
H        8.87239319       7.82673071       2.75152326       0.00187665      -0.01019280       0.00581527
H        9.48857990       8.06695299       5.14682308      -0.00845282      -0.00017917       0.00853425
H        8.24465429       9.25773077       4.73794848       0.00207703       0.00724125      -0.00756294
H        7.81239715       7.79614575       5.63559688      -0.01322925       0.01216649       0.00081132
H        5.29002810       7.50841926      -0.27639514       0.00312126      -0.00445607      -0.00553173
H        3.70436338       7.13179409       0.45056759       0.00351998      -0.00544861      -0.00510376
H        4.96043812       5.86269096       0.32730914       0.00617992      -0.00305921      -0.00045809
O       10.17209821       2.19787584      11.77474679       0.00908043       0.00455058      -0.02678475
O        8.23909424       1.96075372      12.77019401       0.01972656      -0.00345004      -0.01813780
O        8.71482165       3.93257458      11.76488805       0.01555620      -0.00776997       0.00859397
C       11.10176036       3.08336911      11.06337211       0.01038818       0.01185197      -0.01834828
C       12.42905789       2.37644763      11.07961804       0.00967807       0.01170261      -0.02192646
C        8.98187075       2.81488945      12.09011570       0.00470433       0.01971591      -0.01500472
C        6.91384792       2.46894845      13.08878604       0.01805091      -0.00936329       0.00234457
H       10.70168284       3.24898686      10.06459550       0.01052777       0.01861481      -0.01684541
H       11.13102225       4.03192342      11.59341006       0.00818888       0.00616857      -0.01039192
H       13.18144218       2.94480535      10.53274954       0.00865814       0.01344655      -0.01983877
H       12.81428043       2.27927951      12.10177529       0.00925602       0.00611824      -0.02136092
H       12.37979696       1.39449877      10.59383828       0.00826985       0.01202783      -0.02334910
H        7.00088464       3.32485340      13.75609125       0.02449466      -0.02541208       0.01941828
H        6.39988369       1.63875112      13.56073945       0.02129108      -0.01943687      -0.01424991
H        6.41352931       2.76103004      12.16718725       0.01464131       0.00981561       0.01207393
O        5.93110598       3.70689399       9.92483654      -0.00361705      -0.00512569       0.01315113
O        6.17282515       1.68867784       9.20867012      -0.00827259      -0.00592647       0.01284613
O        4.13442485       2.67162426       9.00524137       0.00207579       0.00867598      -0.01236776
C        5.13622673       4.89894914      10.15715773       0.00218189       0.00102429       0.00236013
C        6.09619671       6.02784313      10.42174253       0.00681186      -0.00222197      -0.00110616
C        5.28744290       2.69256111       9.35265497      -0.00279939      -0.00008265       0.00314620
C        5.68174803       0.54740687       8.47918619      -0.00645652      -0.00089959       0.00334640
H        4.51059076       5.07248243       9.28130409       0.00659671      -0.00167577      -0.00102526
H        4.47622064       4.70315934      11.00688269      -0.00180882       0.00956763       0.00109655
H        5.53494254       6.94984941      10.57670912       0.01037934       0.00101495      -0.00797025
H        6.70642362       5.83564622      11.30308510       0.00334482       0.00032680       0.00183403
H        6.76113869       6.17207273       9.57015135       0.00995979      -0.01011649       0.00017594
H        5.16539823      -0.12969066       9.15892499      -0.01417978      -0.00213027      -0.00385734
H        6.56702936       0.08367870       8.05538405      -0.00516197      -0.00206274       0.00793870
H        5.00705185       0.86660009       7.68812674       0.00089176       0.00548020       0.00003658
O        8.12639042       3.87905548       6.86291235      -0.00391440      -0.00121421      -0.00541179
O       10.02056288       3.04393227       7.48486726      -0.00195076      -0.00050285      -0.01140716
O        8.41767719       1.63459687       6.72624482      -0.00870858      -0.00312972       0.00735258
C        6.78430144       3.73278224       6.32105735      -0.00711998      -0.00197232       0.00295740
C        6.10670929       5.06949662       6.43103942      -0.00301735       0.00033391      -0.00391269
C        8.80272100       2.74823578       6.99641739      -0.00435242      -0.00095522      -0.00189760
C       10.89201536       1.91306490       7.60448112      -0.00345220      -0.00135261      -0.00654711
H        6.87171395       3.41596304       5.28295734      -0.01335772      -0.01028475       0.00517571
H        6.26746549       2.95898743       6.88749668      -0.00585923       0.00378430       0.01172113
H        5.08354009       4.98063982       6.06751923      -0.00460239       0.00052885       0.00078870
H        6.08013989       5.41036707       7.46538997       0.00186088       0.00808457      -0.00632322
H        6.61636345       5.81836595       5.82573343      -0.00321269      -0.00538714      -0.01112920
H       10.47916907       1.17772312       8.29723834      -0.00140108       0.00586917       0.00215545
H       11.83078199       2.30921328       7.98248934      -0.00079705      -0.00030476      -0.01463433
H       11.04451204       1.44419349       6.63372251      -0.00977436      -0.00988805      -0.00351521
