146
Lattice="12.622612001214474 0.0 0.0 0.0 12.622612001214474 0.0 0.0 0.0 12.622612001214474" Properties=species:S:1:pos:R:3:forces:R:3 energy=-167163.3125 stress="0.00038154629874043167 0.0006676107877865434 0.00023949521710164845 0.0006676107877865434 -0.00044453542795963585 0.00011426122728153132 0.00023949521710164845 0.00011426122728153132 -0.0019790090154856443" pbc="T T T"
Sc      12.55960129      10.78721053      -0.21632242       0.03552091      -0.01830076       0.00783247
S       10.27956106      12.92571896       3.65262884      -0.01556140       0.04386330      -0.01112327
N        8.52272908      10.83915703       4.43679395       0.02947664       0.04055698       0.08256409
C        9.23145340      11.68786464       4.09239134       0.01299337       0.04181916       0.04279107
S        7.01080297      12.32876604       1.57749114       0.03274751      -0.04239792       0.02762234
N        8.52920362      11.06757715      -0.36883788      -0.01663446      -0.01471150      -0.02803536
C        7.88273038      11.67400350       0.46025594       0.00667492      -0.02196771      -0.00377083
S        2.47434805      11.61690996       4.03408512      -0.02764511       0.02081752      -0.02275953
N        5.23426977      12.22375071       4.15425531      -0.00653100      -0.08199167       0.02047859
C        4.09398199      11.95604684       4.10338008      -0.01680827      -0.03222017      -0.00212727
O        7.06261486       3.26826619       2.62238603      -0.06469703      -0.01066148      -0.01194544
O        6.10643291       5.25004205       3.02800470      -0.02182877       0.01110536      -0.01874337
C        8.47044997       5.17975787       2.69332560      -0.02342039      -0.04250649      -0.00887681
C        7.08924441       4.58100100       2.79762799      -0.03635192      -0.01284285      -0.01543096
H        9.09573548       4.80242792       3.50415745      -0.04457839      -0.04257697       0.00719127
H        8.95200664       4.90187456       1.75619757      -0.01470295      -0.06402674       0.00249380
H        8.38323383       6.26238038       2.76283379      -0.00159720      -0.04001483      -0.02566531
H        6.12770359       2.97093917       2.75339377      -0.07197213       0.00610891      -0.00433104
O       11.93691486       0.92546801       7.89282915       0.02091390       0.01379248      -0.01526785
O       12.77506604       2.91950104       8.47028828       0.01522726       0.01621556      -0.01769477
C       10.88523369       2.05152132       9.68732898       0.01305586       0.01549437      -0.02216697
C       11.96069331       2.04598299       8.64768495       0.01629418       0.01475865      -0.01797528
H        9.90531756       1.93577031       9.22266516       0.01526037       0.01996167      -0.02786157
H       10.98923187       1.18500033      10.33881243       0.00762333       0.01361945      -0.02415311
H       10.94018094       2.96453466      10.26857655       0.01205572       0.01402830      -0.01982271
H       12.64376864       1.01706135       7.23531028       0.02358425       0.01392671      -0.01207221
O       11.86782681       5.75547699       6.35420523       0.01714319       0.01924169       0.01345802
O       10.47667458       7.19467260       7.37205684       0.00601153       0.01114929       0.00940412
C        9.62245208       5.07597085       6.65898143       0.02357757       0.00480574       0.00663929
C       10.67045839       6.12898498       6.83262864       0.01503612       0.01255929       0.00974193
H        9.79892602       4.46551644       5.77635241       0.03774992       0.00241421       0.01114567
H        9.64977889       4.41385032       7.52880121       0.02199521       0.00985691       0.01029912
H        8.64255795       5.54406604       6.61396644       0.02023649      -0.00348455      -0.00183996
H       12.52017292       6.46788627       6.50507856       0.01556116       0.02085659       0.01643564
O        2.02624650       6.50624810       2.23504653      -0.03438115      -0.01005730       0.02913806
O        2.90065752       8.54298582       2.52292595      -0.07276388       0.01771259      -0.05228436
C        4.10902775       6.95488653       1.17867835      -0.04957139      -0.00996149       0.00102609
C        2.99089041       7.43559243       2.04221799      -0.05377647       0.00004202      -0.01019901
H        4.52794244       6.02571272       1.56544778      -0.05323020      -0.00832523       0.00755911
H        3.73711456       6.75628894       0.17106969      -0.04882162      -0.01634758       0.00169760
H        4.87736768       7.71796571       1.11630826      -0.04795942      -0.01183595      -0.00452848
H        1.37110788       6.90800143       2.83553239      -0.04131899      -0.00163251       0.01697712
O        4.26727580      10.68423575       9.40176958      -0.00014806      -0.02808553      -0.02725111
O        5.68278862       9.00471323       8.91813307       0.01367708      -0.01259375      -0.03636885
C        6.56831613      11.13117948       9.57476910      -0.00619918      -0.01184970      -0.00629075
C        5.49180127      10.14533939       9.27191964       0.00404499      -0.01728225      -0.02512114
H        6.60180736      11.86460507       8.76729649      -0.00148976      -0.00617257      -0.00088528
H        6.35787129      11.66599653      10.49893917      -0.02389843      -0.02027665      -0.00550535
H        7.52794037      10.63131838       9.62818789      -0.00324489      -0.00531483       0.00288850
H        3.61129538      10.07838484       9.01888959       0.00515744      -0.02964035      -0.03415360
O        4.45992318      10.59321498       0.72295299       0.02142811       0.00459871      -0.01280830
O        3.94957394      12.54025624      -0.31397539       0.01952115       0.02235043       0.02019051
C        2.21121886      11.11985522       0.50677205       0.02268270       0.00764951      -0.00856581
C        3.65227790      11.51563958       0.23890534       0.02174371       0.01160300       0.00134298
H        2.01997703      10.15357399       0.00226039       0.03310300      -0.00019592       0.00256755
H        2.08414929      11.00840841       1.60088719       0.01597164       0.02045034      -0.00696599
H        1.63428787      11.98543025       0.11063542       0.02636989       0.00183731      -0.02621940
H        5.37293982      10.94888780       0.73950787       0.02088740       0.00532594      -0.00162971
O        3.74668590       2.52281655      10.65149026      -0.01141143      -0.00266303       0.01399025
O        4.85000189       3.10669543      12.51846631       0.00757200       0.06843013      -0.02008057
C        6.05226661       2.04697256      10.72153324      -0.00899959       0.00347733       0.00777400
C        4.85508349       2.59827067      11.42715931      -0.00307149       0.02741092      -0.00116539
H        5.76533059       1.25613867      10.03497951      -0.01702798      -0.01092727       0.02804919
H        6.49458569       2.84719120      10.12230366      -0.00498995      -0.01286612      -0.01167059
H        6.77448938       1.69410949      11.45284151      -0.00867708       0.01497787       0.01280808
H        3.02438018       2.90854976      11.16559915      -0.00688577       0.01255137       0.00910515
O        2.21994916       9.60105552       7.56551654      -0.01978487      -0.02572328       0.01297095
O        1.34204523       7.75778468       6.63694599      -0.03138483      -0.02337852       0.02461025
C        3.73780891       8.05893665       6.67474658      -0.03313959      -0.01592672      -0.03066262
C        2.31972814       8.40401639       6.92759930      -0.02726024      -0.02138233       0.00564983
H        4.20925097       8.88350727       6.13867912      -0.05554251      -0.01812732      -0.05352947
H        4.27005425       7.98761519       7.62542514      -0.00483033      -0.00471331      -0.04579091
H        3.82243678       7.13300439       6.11693280      -0.04367526      -0.02037439      -0.02484966
H        1.28406407       9.84082701       7.60274748      -0.02163720      -0.03796142       0.04512959
O        8.50441098       8.07908194      11.45228694       0.00817373       0.02482080       0.04875053
O        6.28899819       8.13144531      11.78546701       0.00204408       0.02306944       0.01011589
C        7.36993134       5.99610809      11.52230088       0.00472295       0.02617157      -0.00470618
C        7.29278528       7.49207262      11.59516527       0.00546902       0.02490735       0.01942039
H        7.79438741       5.67249157      10.57096524      -0.01226471       0.04473790      -0.01880212
H        8.02485327       5.62883481      12.31289171       0.01829039       0.01074882      -0.02348414
H        6.38274619       5.56311745      11.65232776       0.00672957       0.02392333       0.00175896
H        8.37654169       9.02877462      11.64796403       0.00731310       0.02534640       0.05152071
O       11.18734012      10.95814146       1.14088122       0.02571732       0.01291037      -0.00579122
O        9.92681294       9.27090616       1.95009149       0.02389407       0.03923947       0.04437220
C       12.15486945       8.79876913       1.16357128      -0.00118491       0.00019535       0.00084799
C       10.94874688       9.66529714       1.47250508       0.01838201       0.02086541       0.01859877
H       12.43282012       8.74127375       0.08130995      -0.04282367      -0.01707828      -0.00800060
H       13.01373975       9.07625685       1.78986347       0.02465391      -0.01037255      -0.02809855
H       11.96047281       7.74240567       1.31175943      -0.00662161       0.00379452       0.02265122
H       10.64972314      12.28762051       2.50941657      -0.02664261       0.02483944      -0.00340447
O        6.81960785       3.74193684       5.63815490       0.00156215       0.02343845      -0.00486910
O        6.32453233       3.73234490       7.82598300       0.06662393       0.03496087       0.01031101
C        7.49951823       1.85977716       6.88004984      -0.01937675       0.00139278      -0.02536561
C        6.81069146       3.19287994       6.85787425       0.02070159       0.02189153      -0.00572163
H        7.08630579       1.18818644       6.12571477      -0.04912698       0.01653679      -0.02183439
H        8.55657789       2.00135616       6.64423940      -0.01955137      -0.02719218      -0.04241805
H        7.41249638       1.42107954       7.87010901      -0.01451098      -0.00099998      -0.02602422
H        6.46274539       4.65232138       5.68155720       0.02867447       0.03463274       0.00605573
O        2.78630593       4.72850786       8.02284325      -0.00506026      -0.01327121       0.01098669
O        2.07336575       6.26148481       9.49612464      -0.00138414      -0.01674038       0.01612264
C        4.42482435       5.77083561       9.35824961       0.00054491       0.00175181      -0.00725889
C        2.98425158       5.64270728       8.99042219      -0.00191355      -0.01017842       0.00710800
H        4.75463063       4.81830782       9.77200450       0.00570693       0.01164049       0.01162528
H        5.04255147       5.93222783       8.47626374      -0.00430422      -0.01566187      -0.01365954
H        4.55898738       6.57438803      10.07596008       0.00408733       0.01436761      -0.02224195
H        1.83066168       4.61999689       7.89712032      -0.00565231      -0.02606538       0.02502651
O       11.79022812      10.95927848      10.67048662       0.05075382      -0.03806194       0.00098196
O        9.84949812      11.74915128       9.92259956       0.05692463      -0.00285539       0.01976059
C       10.68950124       9.75310794       8.92712297       0.01963548      -0.00764447       0.00084054
C       10.72991704      10.91355859       9.85740110       0.04397148      -0.01592547       0.00891224
H       11.68121649       9.37352737       8.69333660       0.01027705      -0.01765016      -0.02278106
H       10.15393597       8.94105409       9.42935570       0.02324352      -0.00651094       0.00578333
H       10.13733488       9.99747282       8.02361836       0.00417893       0.00381648       0.01377505
H        9.00697143      11.52348033      11.46832512      -0.03697054      -0.00670421      -0.03557345
O        7.05172825       8.76130350       6.27511845      -0.02904159      -0.00259481       0.02689713
O        6.73607759       6.60923428       5.78799069      -0.02089375      -0.00285566       0.02179646
C        6.28850278       8.28099068       4.10012563       0.02304727       0.00016788       0.01259440
C        6.70775998       7.77827868       5.43906161      -0.00915124      -0.00221908       0.02086222
H        5.46232237       8.98723927       4.20384636       0.02784862       0.00749533      -0.00074302
H        7.10690576       8.85237384       3.65858672       0.03549038      -0.00472568       0.03009794
H        6.00117476       7.44317980       3.47460471       0.03007540       0.00325024       0.00579765
H        7.25190639       8.36831152       7.13867213      -0.06835376       0.00170559       0.03857633
O        2.26876337       2.07977198       3.85748140       0.00714135       0.02098531       0.02629092
O        4.34926301       2.48014397       3.09373802       0.01306415      -0.02520144       0.02767408
C        3.20824912       4.13094571       4.43634129       0.03645952       0.01821184      -0.00604051
C        3.36341671       2.82893368       3.70990230       0.01605171       0.00250548       0.01911175
H        2.20509153       4.52838227       4.29007112       0.03824902       0.02284866      -0.00212112
H        3.32296862       3.92601260       5.50339142       0.04962873       0.04160587      -0.00294675
H        3.96400458       4.84015786       4.11541573       0.03855552       0.00432502      -0.03113515
H        2.42715829       1.12342932       3.63517780      -0.00614125       0.01565615       0.03165533
O       10.29690467       7.76399485       4.43722590      -0.00333917      -0.01755494      -0.00044453
O       12.42891500       7.69336197       3.77637576      -0.00657868      -0.02347142      -0.00754160
C       11.72785247       9.40616425       5.32298444      -0.00055909      -0.00996953      -0.02004588
C       11.55632210       8.22240277       4.43467933      -0.00411129      -0.01722944      -0.00845224
H       10.88411267      10.08240941       5.20502560      -0.00086486      -0.01137900      -0.02548635
H       11.70328653       9.03612357       6.34835376      -0.00130103       0.00058977      -0.01634195
H       12.67814959       9.89489268       5.12200506      -0.00079462      -0.01174359      -0.02534869
H       10.25216009       7.05465117       3.78090452      -0.00580986      -0.02132773       0.00395170
O       12.26966067       4.59203306      11.71400494       0.02618581       0.00562626       0.01225340
O       12.44300125       6.81532418      11.80028474       0.04961367       0.00472528      -0.00761998
C       11.68436352       5.80261450       9.76660616      -0.00722483      -0.00452837       0.01726294
C       12.17407591       5.82322790      11.16415629       0.02587014       0.00263858       0.00578588
H       12.19609081       5.03021679       9.19621682      -0.03656412      -0.02157816       0.01410468
H       10.61437586       5.58084065       9.75922165      -0.01208144       0.01806446       0.04549588
H       11.83870986       6.77568583       9.31813453       0.00148052      -0.01391762       0.00041974
H       12.58061974       4.71999433      12.62243146       0.04571244       0.00875747       0.00496626
