145
Lattice="13.073879216009972 0.0 0.0 0.0 13.073879216009972 0.0 0.0 0.0 13.073879216009972" Properties=species:S:1:pos:R:3:forces:R:3 energy=-128455.6015625 stress="-0.00021472455409821123 0.00022992573940427974 -3.588258914533071e-05 0.00022992573940427974 -0.001791996881365776 0.00019344666361575946 -3.588258914533071e-05 0.00019344666361575946 -0.0007580542587675154" pbc="T T T"
Sc      15.29892809      13.04432303       0.54906389      -0.02254991       0.00819671       0.01801960
O       11.32866924      12.12443678      12.53164285      -0.02358311      -0.01271766      -0.02352955
N       13.49222094      13.08645137      12.78425048      -0.02964243       0.00048269       0.03546382
C       12.39079343      12.60182162      12.66225140      -0.02058387      -0.00301488       0.00602950
O        3.64444820      11.11028420       3.85611013       0.02305549      -0.00054754       0.01176548
N        2.18144328      11.74793962       2.08697019       0.02323286      -0.00200962       0.00713173
C        2.92625960      11.42125007       2.98128956       0.02125973      -0.00013938       0.00582360
O        3.65325569      13.06759323      12.23427300      -0.03426132      -0.01270210       0.01500475
N        5.65380771      12.29549547      11.12518760      -0.04341602       0.01228684      -0.01642562
C        4.68621305      12.67399268      11.65666146      -0.03214449      -0.00247303      -0.00492218
O        9.25956736       9.84667679       9.29910495      -0.00051177       0.00536685       0.00911636
O       11.27287465       9.32971482       9.86521214      -0.00021003       0.00839156       0.00918490
O       10.88634376      11.40185519       9.02987364       0.00147548      -0.00067854      -0.01290652
C        8.26993905      10.79296332       8.82370068      -0.00069728       0.00075582       0.00071496
C        6.96891664      10.04596575       8.70961063       0.00042805      -0.00149569       0.00215717
C       10.50369681      10.30732252       9.36797569       0.00018349       0.00406253       0.00065830
C       12.63623174       9.69766146      10.09651168       0.00201588       0.00615397      -0.00217643
H        8.20023738      11.61333115       9.53941298      -0.00334467       0.00508991      -0.00473946
H        8.60307661      11.18977769       7.86281220       0.00055222      -0.00468738      -0.00095677
H        6.18282321      10.73309194       8.39778221       0.00009981      -0.00337559      -0.00100499
H        7.04491749       9.23803948       7.98121748       0.00226524      -0.00366494       0.00505380
H        6.68189334       9.63154966       9.67442689      -0.00036555       0.00126149       0.00300369
H       13.07329793      10.15541990       9.21083933      -0.00201063      -0.00392120      -0.00911817
H       13.14612359       8.77044409      10.34100553       0.00038368       0.00690949       0.00316428
H       12.69234673      10.39575225      10.93045299       0.00999830       0.01368907      -0.00907204
O        1.60678714      10.05874589       5.79278307      -0.01260097      -0.00974874       0.00732478
O        2.91751724       8.43086518       5.27953099      -0.01084304      -0.00911421       0.01071361
O        0.70607207       8.21012938       4.83115990      -0.00775576      -0.00608772      -0.00382668
C        0.31540246      10.70328655       5.82682020      -0.01263955      -0.00935221       0.00268643
C        0.56436792      12.18988635       5.89433436      -0.01231635      -0.00982237       0.00443519
C        1.64623383       8.83553973       5.26327138      -0.01031399      -0.00808221       0.00404117
C        3.15263186       7.13173910       4.72037858      -0.00785352      -0.00473899       0.00230388
H       -0.24912909      10.42067845       4.93840781      -0.00889210      -0.00902760       0.00032535
H       -0.22391797      10.34729565       6.70774034      -0.01619631      -0.00981703       0.00025311
H       -0.37442704      12.71264539       6.07616636      -0.01464182      -0.00906745      -0.01052185
H        1.25320460      12.42892972       6.70460902      -0.02422248      -0.00907199       0.01407383
H        0.98763690      12.55155566       4.95653884       0.00208719      -0.01246034       0.01010939
H        2.84589146       6.36130734       5.42866165      -0.01570417      -0.01039886      -0.00751269
H        4.21932818       7.08458895       4.52846507      -0.00629506      -0.00470429       0.01189291
H        2.60005163       7.00812073       3.79001563       0.00086033       0.00446083      -0.00392100
O       10.42215779       3.52872927       3.25844298       0.00557575       0.00331748       0.00183534
O        8.69136169       2.26967420       2.97491963       0.00420611       0.00650225      -0.00073554
O        8.36441864       4.43996559       3.51571228       0.00737596       0.00238812       0.01691994
C       10.99470003       4.82717633       3.53004853       0.00782979       0.00126675       0.00635293
C       12.48136264       4.64902060       3.67799094       0.00755858      -0.00207178       0.00413958
C        9.08567988       3.50211819       3.27256729       0.00586861       0.00408489       0.00713912
C        7.27848497       2.04906893       3.09095744       0.00467581       0.00587280       0.00243544
H       10.74123936       5.49432927       2.70332133       0.00833614       0.00449201       0.00901854
H       10.54494273       5.22584300       4.43989671       0.00933063      -0.00143094       0.00806999
H       12.94808944       5.61560458       3.87465988       0.00969603      -0.00352028       0.00574540
H       12.70696871       3.97822946       4.50728423       0.00707117      -0.00449525       0.00216639
H       12.90755102       4.22813673       2.76739143       0.00535200      -0.00081970       0.00258251
H        6.98809138       2.14621791       4.13500847       0.00847613      -0.00271804       0.00418988
H        7.11831504       1.03437173       2.73714839       0.00346501       0.00874585      -0.00518454
H        6.73301433       2.76507519       2.47873318       0.00280561       0.01089832       0.01014018
O        7.26631099      11.75446511       1.71667329       0.01129888      -0.01361979      -0.01469355
O        5.24094649      11.27109418       1.03829988       0.01597381      -0.02499296      -0.01427010
O        6.83180686       9.67302598       0.96152884       0.02582017      -0.01563883      -0.01890963
C        8.64071325      11.28896098       1.90513865       0.01288319      -0.00235617      -0.00716938
C        9.49067012      12.42852031       2.37943810      -0.00253752       0.00580716       0.00153883
C        6.48962964      10.79857105       1.22022411       0.01780593      -0.01853061      -0.01695994
C        4.39090196      10.27995523       0.43808302       0.01488078      -0.02862450      -0.00669064
H        8.60316699      10.47075837       2.62476582       0.01589024      -0.00357655      -0.00857598
H        8.98732683      10.89644203       0.95100535       0.02392205       0.00274213      -0.00525886
H       10.51538532      12.06430744       2.47677026       0.00049248       0.01765808       0.01123325
H        9.49394391      13.24621959       1.66203427      -0.00552749       0.00669923       0.00267331
H        9.17046453      12.80598870       3.34920907      -0.01591052       0.00124984      -0.00110650
H        4.89432500       9.81488264      -0.40357020       0.00833650      -0.02539572      -0.01246664
H        3.50714073      10.79944380       0.08797418       0.00771926      -0.03224889       0.00706565
H        4.10292029       9.54448630       1.18563037       0.03039995      -0.03221801      -0.00427356
O        2.63177118       3.86564987       1.87359791       0.00252859       0.01651347      -0.01100010
O        3.64322844       2.64947859       3.36180194       0.00513154       0.01975513      -0.00928873
O        2.63834396       1.64654463       1.62435541      -0.01766727       0.01456776       0.00792748
C        1.80226819       3.92880679       0.66278730      -0.00130218       0.01248121      -0.00868839
C        1.49677357       5.37144037       0.39478484      -0.00904116       0.01041108      -0.01064632
C        2.95751125       2.66482955       2.25544753      -0.00385632       0.01730192      -0.00377092
C        3.98047149       1.34141837       3.89726853       0.00536206       0.02119577      -0.00698805
H        2.35769399       3.46472198      -0.15326250      -0.00081377       0.01363394      -0.00872061
H        0.90337726       3.34075576       0.85308396       0.00198990       0.00889477      -0.00604965
H        0.81794612       5.42821596      -0.45495249      -0.01205149       0.00441819      -0.00868507
H        1.01978840       5.83899302       1.25510794      -0.00933619       0.00962389      -0.01054259
H        2.40366657       5.91698634       0.14720548      -0.01333566       0.01527144      -0.01522429
H        3.07183396       0.82501906       4.19878924       0.00546873       0.01703031      -0.01449050
H        4.61073341       1.54268503       4.75463274      -0.00174692       0.02348297      -0.00246985
H        4.51775783       0.75173679       3.15799867       0.01333736       0.02413194      -0.00327079
O        7.20727826       7.71154941       3.44955646       0.00696785       0.00562987       0.00113145
O        5.44653720       7.32570243       2.25877307       0.00539896      -0.00566082       0.00727876
O        7.46402782       6.73024879       1.41949535       0.00294912      -0.02177179       0.01420796
C        8.64406028       7.69211364       3.60372478       0.00676709       0.00404730       0.00097746
C        8.96304549       8.26784750       4.95690206       0.00782575       0.01178157      -0.00275421
C        6.78837148       7.21102644       2.28789579       0.00513583      -0.00839266       0.00814438
C        4.89204868       7.00548251       0.98627491       0.00326484      -0.02872452       0.01432585
H        8.97163610       6.66129150       3.50769351       0.00491072       0.00302905       0.00738017
H        9.08020985       8.27431334       2.78937478       0.00715446      -0.00169092      -0.00275704
H       10.04370708       8.28340617       5.10436090       0.00773767       0.01062015      -0.00311940
H        8.58497115       9.28615840       5.05504736       0.00953794       0.01293240      -0.00894239
H        8.51885308       7.66199098       5.74506201       0.00675935       0.01724450       0.00083296
H        5.35905672       7.62214454       0.22190282       0.00012003      -0.04156223       0.00238469
H        3.83234757       7.23199542       1.06753868       0.00322372      -0.02956133       0.01320201
H        5.04298575       5.95382333       0.74118153       0.00448028      -0.03250295       0.03252442
O       10.22824092       2.33961258      11.75182503       0.00543836       0.00059992      -0.00627388
O        8.33982587       1.72507603      12.62594102       0.00656246      -0.00294359      -0.00738607
O        8.44451224       3.71718504      11.55770536       0.00641680       0.00320339       0.00448191
C       10.97233747       3.27177840      10.93420058       0.00582784       0.00486785      -0.00051741
C       12.36256723       2.71389399      10.78729533       0.00525454       0.00453855      -0.00415931
C        8.95463475       2.69548999      11.93905398       0.00583285       0.00053346      -0.00248635
C        6.93100796       1.95022318      12.77337538       0.00771941      -0.00123815       0.00087604
H       10.46385836       3.37018293       9.97510847       0.00577307       0.01127062       0.00030857
H       10.96459490       4.24886068      11.42190350       0.00684072       0.00173965       0.00554207
H       12.96302919       3.36733156      10.15354557       0.00521941       0.00703382      -0.00150739
H       12.84942957       2.61727953      11.75759613       0.00571340      -0.00064383      -0.00502720
H       12.33666860       1.72299371      10.33386138       0.00396928       0.00684586      -0.00898824
H        6.75110507       2.92155478      13.23516248       0.01243307      -0.00361532       0.00736429
H        6.57183186       1.13702882      13.39670640       0.00936253      -0.00383267      -0.00161383
H        6.44889234       1.91235627      11.79854913       0.00234509       0.00506798       0.00350797
O        5.89268133       3.95591434       9.81197316      -0.00081827       0.00071511      -0.00282318
O        5.88973009       2.08345036       8.75406257      -0.00207397       0.00811882      -0.01497312
O        3.98914699       2.72230165       9.82017432       0.00700688      -0.01081848       0.01180166
C        5.22534096       5.00895580      10.53905066      -0.00067353      -0.00310764       0.00222198
C        6.25525003       6.06172974      10.86020977      -0.00186256      -0.00193995       0.00170349
C        5.14085900       2.90271357       9.49869162       0.00187743      -0.00212023      -0.00069290
C        5.21848877       0.90230147       8.28681122      -0.00118944       0.01011696      -0.02140693
H        4.41613039       5.39399287       9.91137210      -0.00281906      -0.00280565       0.00523993
H        4.77397994       4.58324283      11.43917425       0.00253443      -0.00604910       0.00225636
H        5.75808079       6.95593053      11.23479900      -0.00249073      -0.00247977       0.00190230
H        6.96636107       5.71104957      11.60398733      -0.00083849      -0.00127985       0.00088401
H        6.80947102       6.33767424       9.96485895      -0.00309575      -0.00126598       0.00129290
H        4.91492886       0.28599588       9.12787308       0.00690969       0.00145228      -0.02492651
H        5.95738910       0.38281322       7.68357083      -0.00364050       0.01950301      -0.03244330
H        4.35053427       1.17515670       7.68633441      -0.00620019       0.01365173      -0.01246749
O        8.17016381       3.93948608       7.27710178      -0.00637317       0.00414121       0.00003698
O        9.63845857       2.42119770       7.73309242      -0.00598849       0.00575161       0.00326128
O        8.06345684       1.96385889       6.17633095      -0.00909269      -0.00025856       0.00843573
C        7.03573641       4.40236292       6.50232998      -0.00853159       0.00129426       0.00180858
C        6.63320547       5.74699358       7.04714780      -0.00462417       0.00448343      -0.00362617
C        8.56745825       2.70809345       6.98755217      -0.00737363       0.00309885       0.00445795
C       10.20410848       1.12457760       7.47872784      -0.00821730       0.00383580       0.00890164
H        7.34323690       4.46211529       5.45956151      -0.01192884      -0.00420698       0.00069571
H        6.23706024       3.66512599       6.59557824      -0.00885168       0.00281635       0.00887643
H        5.95730366       6.23930674       6.34770814      -0.00770867       0.00120781      -0.00277050
H        6.13899148       5.64941063       8.00904391       0.00010806       0.01024915      -0.00068951
H        7.50944076       6.38094673       7.17611352      -0.00350063       0.00438896      -0.01185913
H        9.45656840       0.34579987       7.59963908      -0.00726473       0.00493702       0.02031973
H       10.99068633       0.99205241       8.21339049      -0.00294469       0.00940820       0.00419104
H       10.60674411       1.08934298       6.46598629      -0.01531715      -0.00405093       0.00659168
