144
Lattice="12.629451496687048 0.0 0.0 0.0 12.629451496687048 0.0 0.0 0.0 12.629451496687048" Properties=species:S:1:pos:R:3:forces:R:3 energy=-189177.265625 stress="-1.825776962505188e-05 -0.0003911474486812949 0.00033500223071314394 -0.0003911474486812949 -0.000362355203833431 -0.0005640142189804465 0.00033500223071314394 -0.0005640142189804465 -0.0010399742750450969" pbc="T T T"
Sc      12.46764298      11.21726343       2.57981798      -0.00230250       0.00372590       0.01360729
Cl       9.48445531      10.06042044       7.81182889      -0.00085580      -0.00701432       0.00105467
Cl      10.04284938      11.05624081      -0.83376699       0.01562966      -0.02854705      -0.00946838
Cl       5.03643907      13.51963219       3.05131088       0.03171904      -0.03078675       0.01648682
O       10.97275512       6.48479654       0.96431716      -0.00093602      -0.00489935       0.00318523
O       12.73469890       7.77874304       1.38663330      -0.00722054       0.00137283       0.00793710
O       12.99541425       5.54953339       1.29875064       0.00037760       0.00435960       0.00927287
C       10.41148111       7.81108201       1.05865717      -0.00680876      -0.00724592       0.00419541
C       11.62716624       8.68296757       1.38482908      -0.00990141      -0.00157562       0.00058891
C       12.28418643       6.50211721       1.21923633      -0.00070310      -0.00230992       0.00750382
H        9.66270930       7.80365922       1.84498561      -0.00491589      -0.01016630       0.00627771
H        9.94532932       8.07276070       0.11590300      -0.00944898      -0.01051505       0.00435248
H       11.79893328       9.45845549       0.63548524      -0.01122797      -0.00615001      -0.00416628
H       11.51367422       9.08338602       2.40548211      -0.01337559       0.00546359      -0.00225703
O        9.93004302       1.95359973       3.98094861       0.00255242       0.01048625      -0.00195235
O       11.45636131       3.56742852       3.89511378       0.00162533       0.01136225      -0.01342049
O       11.18812442       2.39386177       5.79922719       0.02183938       0.00656867      -0.01315928
C        9.98477881       2.36408035       2.58877970       0.00363165       0.00289464      -0.00414503
C       10.69515658       3.69108333       2.66026372      -0.00398146       0.00581801      -0.00929303
C       10.87835873       2.61236904       4.66446324       0.00582324       0.01226534      -0.00871897
H        8.97905133       2.42274800       2.19022193       0.00458300      -0.00615211      -0.00554733
H       10.54457648       1.61962983       2.03047661       0.00693807       0.00311127      -0.00203887
H       11.38418802       3.85846975       1.84119359      -0.01065168       0.00701689      -0.01412246
H       10.00921503       4.53245625       2.76178322      -0.00789419       0.00179479      -0.00880466
O        9.08817086      10.46056290       1.60633758       0.01116881       0.00596234       0.00246634
O        8.98957492      12.62639962       1.05525413       0.01973537       0.00042987      -0.02878757
O       10.98370775      11.68918760       1.52629315       0.01360929      -0.00055759      -0.01394489
C        7.69328005      10.73453463       1.35804530       0.01425961       0.00726825      -0.00616473
C        7.64435897      12.24745190       1.44518221       0.01893329       0.00929946      -0.03222085
C        9.76718918      11.52455503       1.01719330       0.01464820      -0.00363560      -0.01427282
H        7.10393561      10.22349886       2.11679159       0.01091872       0.02267860       0.00009084
H        7.43233986      10.36849716       0.36329782       0.00996108      -0.00830635       0.00083297
H        6.92704728      12.70753057       0.77234362       0.02230284      -0.00151496      -0.04218036
H        7.45059114      12.61780676       2.45158628       0.00958936       0.02427544      -0.04042375
O        7.31272710       5.23095793       3.19837719      -0.00437129      -0.01685500      -0.00589930
O        5.18830277       5.44637460       3.78320030       0.00118507      -0.01216784       0.01200612
O        6.30207134       7.22428638       2.98691831       0.00055114      -0.01236343       0.00944123
C        6.88148624       3.87212013       3.51054551      -0.00511003      -0.01647711      -0.00474478
C        5.51545310       4.06777311       4.14026838      -0.00168443      -0.01505743       0.00230423
C        6.27508874       6.05579238       3.29990705      -0.00076668      -0.01441735       0.00545727
H        7.61378427       3.44095194       4.18698783      -0.00253332      -0.01796402      -0.00843906
H        6.83191867       3.31078464       2.58048021      -0.00993474      -0.01618540      -0.00462648
H        4.76976371       3.39762710       3.72013955      -0.00630304      -0.00938275       0.00209701
H        5.53268521       4.00444651       5.22670427       0.00223479      -0.02192770       0.00167984
O       10.88559625       2.50554827      10.03640827       0.00380501      -0.00304768      -0.01418942
O        8.88946679       2.06426617      10.91391954       0.00963366      -0.01029387      -0.00494174
O       10.65877697       2.41606993      12.27305571       0.01258290       0.00472714      -0.01326644
C       10.05843674       2.12856901       8.91398135       0.00129163      -0.01432084      -0.00850129
C        8.66046107       2.21525235       9.50026244       0.00382245      -0.01079533      -0.00395797
C       10.18639188       2.33121550      11.18118988       0.00926539      -0.00213731      -0.01014340
H       10.32534192       1.11888383       8.60375476       0.00132504      -0.01736331       0.00175725
H       10.23807489       2.81594648       8.09329116      -0.00133947      -0.02216548      -0.01552162
H        8.19137634       3.18597910       9.32810709       0.00608051      -0.00949168      -0.00256942
H        8.00734978       1.41085521       9.16796700       0.00060701      -0.00949600      -0.00010508
O        9.37896040       4.78319955       6.16249594      -0.00393689      -0.00782856       0.01055732
O        8.95763783       6.86505164       6.80914422      -0.01554808      -0.00213647      -0.01684980
O        7.25119328       5.50425775       6.29590462      -0.00797987      -0.01613490      -0.00661508
C       10.67534388       5.33053495       6.48139325      -0.00825384       0.00103062       0.01242803
C       10.39251508       6.81372488       6.71242087      -0.01507470       0.00267702      -0.01111404
C        8.42795297       5.69852206       6.41788974      -0.00860465      -0.00882675      -0.00458803
H       11.33077074       5.12973848       5.64090983      -0.00108173      -0.00877022       0.02061987
H       11.05071674       4.81255084       7.36135971      -0.01449239       0.01496927       0.02285415
H       10.80281602       7.21488042       7.63299105      -0.02115989       0.02044742      -0.01636454
H       10.70347242       7.45544736       5.88949286      -0.01480206      -0.00937256      -0.02045023
O        2.46779187       7.99336623       3.41471227      -0.01092309       0.00090054      -0.00110072
O        0.42857827       7.91946274       4.26273903      -0.00358254      -0.01049039       0.01253051
O        1.15496946       9.77341388       3.25988605      -0.01870507      -0.00403163       0.01454029
C        2.29780926       6.58771029       3.79213971      -0.00108179       0.00008643      -0.00102284
C        0.96626291       6.59040728       4.53522303       0.00745237      -0.00628936       0.01062799
C        1.34569985       8.62005122       3.64585634      -0.01088343      -0.00508568       0.00954870
H        3.14574400       6.31662444       4.40515296       0.00583115       0.00348041      -0.01067290
H        2.27489699       6.01233813       2.86984178      -0.00684363       0.00224021      -0.00102684
H        0.25951455       5.86424755       4.14093572       0.00827199      -0.01020917       0.01993893
H        1.07548150       6.50904536       5.61346980       0.01728410      -0.00171236       0.00889948
O        4.92725393      10.46846275       9.04988804       0.00482371       0.00457433       0.00889984
O        6.03758431      11.03989930      10.88534557       0.01088381       0.00469828       0.00484768
O        3.79616786      11.18315019      10.85530211       0.01148605       0.01009843       0.01022553
C        6.31858696      10.15440738       8.75016928       0.00322124       0.00174981       0.00516510
C        7.08479148      10.77970165       9.89619186       0.00764537       0.00165938       0.00225952
C        4.83172671      10.92410483      10.30006483       0.00888079       0.00660415       0.00866458
H        6.56202976      10.57828008       7.78457588       0.00094476       0.00009553       0.00395194
H        6.42962873       9.07212757       8.72519761       0.00142592       0.00168669       0.00594277
H        7.83160568      10.12442153      10.32770512       0.00777817       0.00108144       0.00099668
H        7.55703588      11.72530400       9.64452757       0.00862901       0.00064746       0.00006819
O        3.49950456      10.91131470       1.35764012       0.00594300      -0.00352898       0.01889020
O        1.87917219       9.86899790       0.28771941      -0.00257105       0.01637113       0.01499626
O        1.43023266      11.75158416       1.38561986       0.01228519       0.01277450       0.02970364
C        4.14653907       9.71353209       0.84928392      -0.00231522      -0.00275201       0.00763203
C        3.01710714       8.97300719       0.12211042      -0.00714885       0.01207417       0.00246981
C        2.25249306      10.89490474       1.01849207       0.00553375       0.00976762       0.02059311
H        4.53755654       9.17515406       1.71051489      -0.00623544      -0.00970377       0.00426114
H        4.93982294      10.04368130       0.18653503      -0.00061974      -0.00035125       0.01108083
H        3.18364968       8.86271498      -0.94420800      -0.00910883       0.02476940       0.00124884
H        2.74370919       8.02228598       0.57330841      -0.01246125       0.01016140      -0.00626959
O        3.74595032       3.18428220      12.15283405      -0.00519213       0.00556040      -0.00222626
O        3.95456159       3.97841759      10.08739264       0.00495851      -0.00452523      -0.00452077
O        2.93765258       5.22956725      11.65783899      -0.00006545       0.00378108      -0.01499659
C        4.64052943       2.26454012      11.48876879      -0.00313409       0.00151756       0.00672567
C        4.44109164       2.62404448      10.02197403       0.00401577      -0.00507672       0.00420827
C        3.49051610       4.21816551      11.33964689      -0.00041059       0.00264353      -0.00794420
H        4.34440500       1.25006176      11.74299543      -0.00583875       0.00328580       0.00954385
H        5.65240478       2.46166102      11.84504210      -0.00506550       0.00208062       0.01157494
H        5.35346521       2.62233677       9.42881783       0.00656617      -0.00800379       0.00830534
H        3.68336600       2.00489375       9.53828762       0.00496963      -0.00589922       0.00363921
O        3.33658729       7.66995683       6.64537605       0.00640005      -0.01420736      -0.00293746
O        4.77374604       9.28565822       6.12048771       0.00027367      -0.01161641      -0.00209033
O        2.55632214       9.70072910       6.07772863       0.01106751      -0.03231180      -0.01778178
C        4.64510728       7.10931552       6.90346728       0.00792115      -0.00717348       0.00645515
C        5.56236813       8.07075972       6.17351141       0.00630128      -0.00819877       0.00762391
C        3.47798939       8.96739985       6.27151250      -0.00671875      -0.00814033      -0.01198880
H        4.67917710       6.09953823       6.50786991       0.01429052      -0.01054585       0.01173140
H        4.80944572       7.09208920       7.98041434       0.00179802      -0.00250823       0.00816667
H        6.49013366       8.27204748       6.70041207       0.00483149      -0.00232228       0.01078206
H        5.76411488       7.76406096       5.14905716       0.01396070      -0.01204108       0.00949126
O        9.72227324       5.57517121       9.65574355       0.00349677      -0.00640547      -0.00423630
O        9.71924882       7.65661314      10.43989779      -0.01595438      -0.00914517       0.00205895
O        7.79535224       6.74346220       9.70448832      -0.00799203      -0.02551290       0.00150713
C       11.02382646       5.76530280      10.26130301       0.00251514       0.00517184      -0.00612192
C       11.10669279       7.27944539      10.36243002      -0.01229152       0.00548398      -0.00277971
C        8.97022211       6.67271162       9.91263551      -0.00624794      -0.01476056       0.00025542
H       11.77656043       5.31118416       9.62294308       0.00588748       0.01373839      -0.00794670
H       11.01931209       5.27255473      11.23407400       0.00898303       0.00290337      -0.00740373
H       11.62100116       7.63120484      11.25311795      -0.01384684       0.00795345      -0.00279260
H       11.53901974       7.76636684       9.48735978      -0.02038082       0.01269577      -0.00275096
O        9.18735881      11.45720863       4.68778205      -0.00695152       0.03542948       0.01073694
O        9.95133161       9.40940728       4.39654009      -0.00382489       0.03704101       0.00127628
O       11.35266340      11.13161825       4.26786212      -0.00691463       0.03806743       0.00684090
C        8.01319707      10.61570824       4.92951628      -0.00730211       0.03223404       0.00565156
C        8.51843156       9.20878117       4.62156556      -0.00283426       0.03255147       0.00400890
C       10.20291197      10.69184086       4.46860236      -0.00788022       0.03682338       0.00546892
H        7.21558713      10.98029742       4.28762530      -0.00885466       0.03175285       0.00595534
H        7.79009614      10.72976286       5.98513903      -0.01242489       0.02794300       0.00521475
H        8.43565814       8.54669958       5.47646903       0.00064630       0.03240599       0.00465640
H        8.10806845       8.75513371       3.72117660      -0.00528522       0.03172530       0.00486523
O        8.03024015       6.49713690      12.70630373      -0.00362524      -0.01377806       0.00449391
O        6.30154564       5.10006021      12.69987605      -0.01147005      -0.00335465      -0.01298794
O        8.36782996       4.31673325      13.14128057      -0.01749039      -0.01868498      -0.01385489
C        6.88508021       7.34389833      12.50490057       0.00283848      -0.00535220       0.00570630
C        5.76875228       6.34864521      12.21415061      -0.00394696       0.00407076      -0.00094852
C        7.63459837       5.21808631      12.87518966      -0.01092225      -0.01284379      -0.00789107
H        7.09689664       7.99969829      11.66364356       0.00932452      -0.00346655       0.00889260
H        6.72083513       7.90227351      13.42400302       0.00504468      -0.00788739       0.00774187
H        4.84438229       6.54287535      12.75043116      -0.00144988       0.00551501       0.00283664
H        5.56858516       6.24183064      11.14937821      -0.00664550       0.01437132      -0.00118309
