146
Lattice="12.635489796756993 0.0 0.0 0.0 12.635489796756993 0.0 0.0 0.0 12.635489796756993" Properties=species:S:1:pos:R:3:forces:R:3 energy=-445828.03125 stress="-1.2308581972320098e-05 -0.00025439886667300016 -0.0003560493205441162 -0.00025439886667300016 0.00035207404289394617 0.0006615387974306941 -0.0003560493205441162 0.0006615387974306941 0.0011417801724746823" pbc="T T T"
Sm      12.95024788      11.34599696      -0.74913802      -0.00711295      -0.00440741       0.00370693
Cl       9.27750521      12.11991794       3.00023312       0.00382742       0.00030661       0.01345384
O        9.21941890      11.03094252       4.05162243       0.00679526      -0.00183439       0.01153171
O       10.85541872      12.49515955       2.55467505       0.00239348      -0.00273620       0.00686434
Cl       1.45861814      12.24472784       9.45168755      -0.00522137      -0.00935811      -0.00151521
O        2.19995739      11.31406761      10.62999324      -0.00998545      -0.01844746      -0.00510979
O        0.30190744      12.91642808      12.78635519      -0.00099932      -0.00248110       0.00540954
Cl       4.75914098      12.59516869       3.42364482       0.02892786       0.00858188      -0.02970207
O        6.20613149      12.57560697       3.79364994       0.02542841       0.00306125      -0.01376730
O        3.92198328      11.53606637       4.06108397       0.01574868       0.01821494      -0.03144014
O        7.91558605       3.13675523       1.66962580       0.01168785       0.00353336       0.00053072
O        6.31551733       4.48185991       2.49198272       0.00508988       0.00056112      -0.00629169
C        8.61785606       4.95077982       2.98814264       0.00188196       0.00251597       0.00752771
C        7.48008201       4.18067881       2.37283949       0.00706351       0.00181879      -0.00030065
H        9.11254108       4.32594014       3.73290151       0.00188349       0.00088705       0.00613679
H        9.34914476       5.20227750       2.21854048       0.00359227       0.00897113       0.01120529
H        8.22165784       5.84553743       3.46227812      -0.00292967      -0.00121951       0.01052802
H        7.14529527       2.67429120       1.25204246       0.01356149      -0.00122907       0.00158963
O       12.37864006       1.08632686       7.81924141       0.00985128      -0.00527598      -0.00693995
O       12.96061382       3.23360258       7.91505002      -0.00764626      -0.00202572      -0.02661726
C       11.61725471       2.32590491       9.69142498       0.01385400       0.00278220      -0.01066428
C       12.39143173       2.28799576       8.42213608       0.00606981       0.00172275      -0.01752883
H       10.56445768       2.15764497       9.45983607       0.01385102      -0.00816715      -0.00215503
H       11.91182836       1.51806438      10.36212533       0.02746833       0.01206984      -0.00587967
H       11.75896080       3.28567658      10.17533417       0.00874115       0.00882062      -0.02061262
H       12.90334981       1.17780810       7.00933642       0.00235203      -0.00607118      -0.01245803
O       10.99529363       4.34853833       6.45935144      -0.01051402       0.01199794      -0.00381023
O       12.01095279       6.17291614       7.27533261      -0.00710905       0.00745064      -0.00196236
C        9.61501325       6.11547120       7.18035798      -0.00591445       0.01399374       0.00077890
C       10.99380059       5.58413488       6.98161456      -0.00490063       0.01302490      -0.00065702
H        8.96264432       5.83911222       6.35502403      -0.00565745       0.01967767      -0.00113524
H        9.19224456       5.65651684       8.07738959      -0.00784764       0.00997166      -0.00218254
H        9.64400333       7.19306299       7.30063609      -0.00363404       0.01334298       0.00625259
H       11.89578358       3.98624795       6.59211948      -0.01147401       0.00933124      -0.00479870
O        1.90476855       7.23879358       1.90849998      -0.00462085      -0.00148425      -0.00009757
O        3.30171725       8.06662443       3.44758933      -0.00193626      -0.01283973       0.00348330
C        4.20770334       6.74868609       1.65406675      -0.00674707      -0.00798136      -0.00332460
C        3.13673586       7.43344564       2.43144085      -0.00414898      -0.00816202      -0.00029188
H        4.44811689       5.80482227       2.14653151      -0.01037823      -0.01143175      -0.00832960
H        3.88754990       6.54494011       0.63664995      -0.00838324      -0.00190505      -0.00401421
H        5.11432833       7.34763502       1.65628306      -0.00412633      -0.01196529      -0.00137837
H        1.20953439       7.52210231       2.55506816      -0.00457883      -0.00279018       0.00077423
O        4.95656528      10.64289789       9.46847834       0.00583273      -0.00361295       0.01863823
O        5.94368083       8.64318820       9.23868017       0.01355892       0.00376666       0.00086495
C        7.22984245      10.54157125       9.97061035       0.00870246       0.00237894       0.01097932
C        5.99419052       9.83171099       9.52409525       0.00934681       0.00033140       0.00953755
H        7.48450792      11.31727270       9.24725542       0.00682023       0.00286849       0.01068091
H        7.04005598      11.02631180      10.92809949       0.00782228       0.00196624       0.01087449
H        8.04602396       9.83642579      10.06806364       0.00911902       0.00355053       0.01000296
H        4.14140140      10.13542248       9.23149868       0.00912236      -0.00709555       0.01307505
O        4.08901638       9.20296465      -0.11753346       0.00121102      -0.00471407       0.00425506
O        4.91593285      11.10755601       0.74544483      -0.00033200       0.00889623      -0.02249193
C        2.59500918      10.58930294       1.06897241       0.00238013       0.00292028      -0.00345320
C        3.98760061      10.36070744       0.54564560      -0.00100124       0.00155911      -0.00857050
H        1.89228346       9.88083001       0.61323563       0.00216435      -0.00045127       0.00202141
H        2.61929854      10.40893646       2.14737641       0.00650808       0.00746629      -0.00269279
H        2.30815985      11.63513004       0.91678032      -0.00018456       0.00203691      -0.00613372
H        5.03562662       8.99367640      -0.28572170       0.00104329      -0.00381345       0.00183313
O        4.01254611       2.11076549      11.89006240       0.00418085       0.01302438       0.03915685
O        5.90356761       1.94293007      13.05595817       0.01170492      -0.01748054       0.02207482
C        6.00913158       1.81981588      10.65607471      -0.01451162      -0.00673930       0.02007884
C        5.32960856       1.96051559      11.98401297       0.00131297      -0.00466762       0.02873647
H        5.54352258       1.01775979      10.08259017      -0.02517462      -0.00526939       0.02651207
H        5.91248091       2.73625984      10.07048048      -0.02053132      -0.00557125       0.02313685
H        7.06451514       1.60990742      10.80425188      -0.01387401      -0.01149654       0.00732558
H        3.64832637       2.22281563      12.79099448       0.00970571       0.01741467       0.04226199
O        2.71482229       9.30773349       8.90762375       0.01160669      -0.00718373       0.02068543
O        0.99538357       8.92862838       7.52386840       0.00029480       0.03259600       0.03285772
C        3.25048856       8.54722800       6.74826487      -0.01947081       0.01309209       0.00698769
C        2.18549230       8.92751291       7.72880363      -0.01298368       0.01494792       0.02216525
H        3.49910284       9.42176397       6.14091396      -0.01708498       0.01732595       0.01418374
H        4.15158725       8.22505812       7.26657543      -0.01779704      -0.00170131      -0.00694557
H        2.89453882       7.77574556       6.07360007      -0.03524898       0.02391477       0.00311455
H        2.05292539       9.66010764       9.53998090       0.02765748       0.01774843       0.02716501
O        8.50573097       7.33212560      11.32021166      -0.00287014      -0.00787920       0.00454811
O        6.69844944       8.24896303      12.25650422      -0.00074747      -0.00000036       0.00070381
C        6.58575686       5.99414955      11.39907401      -0.00953236       0.00214100      -0.00398274
C        7.23465636       7.30751178      11.69573298      -0.00275081      -0.00210017       0.00003758
H        6.75625590       5.71524710      10.35983835      -0.00055350      -0.00195654      -0.00131890
H        7.05338599       5.22775616      12.02211678      -0.02160075       0.00057857       0.00300816
H        5.52363031       6.03212933      11.61352299      -0.01123293       0.01019761      -0.01483251
H        8.95179563       8.19172873      11.59019429       0.00012600      -0.00830516       0.00507618
O       11.27801887      10.40196393       0.74854154      -0.00626755      -0.00130069       0.00392547
O       10.01084415       9.37493598      -0.74820611      -0.00098057      -0.00803459       0.00478166
C        9.63809666       8.84794985       1.54088587      -0.00769633      -0.00059319       0.00412160
C       10.34903374       9.60085467       0.45763980      -0.00549293      -0.00410515       0.00173014
H       10.16187777       7.89585634       1.66525032      -0.01235481      -0.00330481       0.00323995
H        9.66749027       9.38728222       2.48596905      -0.00497933      -0.00087439       0.00398114
H        8.60903987       8.64349932       1.25174264      -0.00853461       0.00404302       0.00359269
H       11.08900675      11.81647482       1.87589636      -0.00340705      -0.00241554       0.00405666
O        7.06771483       4.11195502       5.71864021      -0.00383994       0.00430620       0.01112196
O        6.93591726       4.02572573       7.95835011       0.01519257      -0.00146830       0.01067412
C        7.82986637       2.14111634       6.75487182      -0.00012597       0.00027341      -0.00066964
C        7.22792379       3.50537371       6.90346874       0.00373313       0.00307769       0.00935775
H        7.33403494       1.57770703       5.96488481      -0.00997519       0.00290210       0.00409108
H        8.87593653       2.25150606       6.46098106      -0.00347446      -0.00015510      -0.01138549
H        7.79045099       1.60258306       7.69633170       0.00884101      -0.00075295      -0.00084221
H        6.73339515       5.02447314       5.84986262      -0.00142825       0.00570020       0.01593307
O        2.10945173       5.58079381       7.51865531      -0.00517058       0.00721787      -0.00694233
O        1.97502960       6.27690653       9.64928303      -0.00043726      -0.02716553       0.00468087
C        4.09407679       5.56316824       8.80251728       0.00040901      -0.00072309      -0.01631688
C        2.62781152       5.84990356       8.72316980      -0.00151205      -0.00910556      -0.00542182
H        4.23447720       4.67861139       9.42674142       0.01233246       0.00607996      -0.00992373
H        4.54324542       5.38229895       7.83112528      -0.00718171      -0.00414078      -0.01918025
H        4.58782518       6.39792635       9.29610281      -0.00002936       0.00581114      -0.02693918
H        1.14123204       5.74679591       7.53747795      -0.00587241       0.00324491      -0.00160092
O       10.79115613      11.33981176      10.52316414      -0.00075175      -0.00495538       0.00550663
O        9.92511883      12.48503777       8.82056055       0.00116912       0.03048241      -0.00356147
C       10.40764203      10.16894756       8.44571331       0.00159831       0.01016039      -0.00178289
C       10.32274646      11.43517601       9.24387750       0.01282151      -0.03627473       0.00833664
H       11.45753951       9.99691071       8.18884608       0.00215793       0.00301550      -0.00257499
H       10.08227902       9.30620792       9.02735336      -0.00096148       0.00068353      -0.00760165
H        9.81720845      10.25933164       7.53852031       0.00366813       0.00785141      -0.00450820
H       10.50384505      10.45669159      10.96868953      -0.00267901      -0.00828475      -0.00128759
O        6.96630713       8.78961187       6.74894130      -0.00929064       0.01635072      -0.00307292
O        6.51396051       6.83612753       5.75572585      -0.00225142       0.00522327       0.01529689
C        6.68616278       8.82559423       4.41344957       0.00036662      -0.00792134      -0.00417286
C        6.70719124       8.03538850       5.68064275      -0.00346728       0.00630993       0.00408950
H        6.62799655       9.89210905       4.60731728       0.00807281      -0.00547919      -0.01552747
H        7.60914071       8.63342606       3.86279265      -0.00192085      -0.02105504      -0.00305253
H        5.84018717       8.49884685       3.81157352      -0.00264315      -0.00895339       0.00060097
H        6.81083861       8.29199956       7.57776943      -0.00935540       0.02365372       0.00189349
O        1.22488162       2.42744698       3.31751187       0.00555378      -0.02148604      -0.03764465
O        2.97877693       2.68705222       1.94933916       0.00242609       0.00701714      -0.03388071
C        2.97574952       3.83069101       4.06868444      -0.00267074      -0.01569730      -0.02471089
C        2.43030492       2.93500838       2.99839472      -0.00008395      -0.00865790      -0.03020710
H        2.42629616       4.77536211       4.05325007       0.00022741      -0.01400942      -0.02413176
H        2.82523741       3.40626792       5.06070575      -0.00585698      -0.01888673      -0.02666983
H        4.02855526       4.02663567       3.88506539      -0.00166434      -0.01741555      -0.02169760
H        0.91640804       1.89134450       2.56583510       0.01118991      -0.01915279      -0.04211691
O       10.53518963       7.58834759       4.59009656      -0.00116592       0.00473630       0.00113750
O       12.34772925       7.42295712       3.32155317      -0.00414576      -0.00505105      -0.00258136
C       12.04371484       9.40052836       4.67380980       0.01040033      -0.00426328      -0.00030211
C       11.69887742       8.07095999       4.12098698       0.00037482      -0.00078349      -0.00026935
H       11.19784997      10.08076356       4.55417591       0.01033840      -0.00221011       0.01511692
H       12.25063189       9.28786627       5.74024772       0.02602842      -0.00912662      -0.00350502
H       12.93035579       9.78867244       4.18227903       0.00358574      -0.00344208      -0.01165014
H       10.40649142       6.72046823       4.17709893      -0.00613116       0.00540251       0.00173280
O       12.97969198       7.01948641      12.30453250      -0.00188923      -0.01256290       0.00243825
O       13.21969164       8.96416541      11.22956542      -0.00064257      -0.00514102       0.01748951
C       11.88070050       7.22118235      10.24706254       0.00303280       0.00292820      -0.00001431
C       12.75936703       7.82278934      11.28344927      -0.00011614      -0.00445220       0.00707476
H       12.12580114       6.16953250      10.13621269      -0.00076202       0.00255975      -0.00419959
H       10.84303737       7.30485756      10.57241405       0.00185423       0.00594082      -0.00444034
H       12.02141470       7.72631439       9.29791498       0.00923710       0.00795318       0.00365688
H       13.64474281       7.37104896      12.93091808      -0.00434217      -0.01503325       0.00575941
