142
Lattice="12.703846557873378 0.0 0.0 0.0 12.703846557873378 0.0 0.0 0.0 12.703846557873378" Properties=species:S:1:pos:R:3:forces:R:3 energy=-391815.21875 stress="0.0007986128912307322 -0.000279134459560737 -0.00033747577981557697 -0.000279134459560737 0.00035025598481297493 -0.00027183380734641105 -0.00033747577981557697 -0.00027183380734641105 0.0004898899351246655" pbc="T T T"
Sm      11.24542696      12.00192969      -3.32615814      -0.01335085       0.00238831      -0.00275234
O        3.82677417       9.98561528       8.49251234      -0.00005147       0.00845313      -0.00603580
O        5.02753441       8.32657966       7.57202782       0.00366163       0.00976026      -0.00338149
C        2.73971415       8.50216200       6.96587811      -0.00074732      -0.00564414       0.00776547
C        3.97248528       8.98150768       7.74642891       0.00091565       0.00537914      -0.00117624
H        3.02816668       8.20911976       5.95547537      -0.00484767      -0.00591943       0.00649887
H        1.96129889       9.26422433       6.92207451      -0.00624793      -0.01113430       0.01046589
H        2.33920792       7.61505485       7.46546915       0.00869402      -0.00750417       0.01204205
O       11.85120334      11.62670991      11.57006889       0.00210530       0.01589980      -0.00441899
O        9.85055930      12.49424838      11.21874006      -0.00822458      -0.00394186       0.00528097
C       10.06984360      11.04012540      13.09958553       0.02240050       0.01969025       0.02049208
C       10.62475128      11.77074086      11.92301178       0.00367811       0.00975293       0.00506172
H        9.06574211      10.68667144      12.87166291       0.02271450       0.00815112       0.03694592
H        9.98276889      11.72909810      13.94209236       0.02705824       0.03037918       0.01242733
H       10.70234059      10.20682957      13.39083959       0.03204131       0.02879661       0.02473373
O       11.42514675      10.73649459       7.40319402      -0.02152362       0.00679839      -0.00606154
O       11.22777381      12.92928718       7.28703655       0.00242990       0.00882763      -0.00215809
C       10.83752750      11.65834103       5.27903819       0.00438377       0.01786841      -0.00855005
C       11.21194614      11.78092962       6.71505035      -0.00578320       0.01094130      -0.00523329
H        9.75353861      11.51035668       5.24694779       0.00526884       0.01308627      -0.01722255
H       11.30489317      10.78503658       4.82991854       0.01025595       0.02144560      -0.00974294
H       11.07377495      12.56935488       4.73528089       0.00502083       0.02164599      -0.00182699
O        4.76978515       4.92152569       8.74537214       0.00009266       0.00060686      -0.00716734
O        5.88739487       6.38399218       9.85246683       0.00117020      -0.00053081      -0.00675726
O        6.72330921       5.66747264       7.86609573       0.00009501       0.00134696      -0.00920677
C        4.55241124       4.11633984       7.57207098       0.00059903      -0.00027776      -0.00704613
C        3.28498942       3.33992253       7.81610493      -0.00347149       0.00536618      -0.01025127
C        5.87333260       5.67666988       8.72277805      -0.00108325       0.00040430      -0.00611293
C        6.86864812       7.42492576       9.87804213       0.00239074      -0.00164139      -0.00587106
H        4.47732805       4.78032112       6.70782298       0.00672497      -0.00147337      -0.00830960
H        5.41277090       3.46033353       7.42294478      -0.00154454      -0.00427833      -0.00273152
H        3.03136216       2.75103311       6.93456102      -0.00153352       0.00314872      -0.00934336
H        3.41001065       2.64592609       8.64667350      -0.01005036       0.00776368      -0.00714873
H        2.45870848       4.01647795       8.03616818      -0.00202209       0.00921687      -0.01651593
H        7.86985950       7.00003064       9.78862606       0.00193527      -0.00278723      -0.00626943
H        6.73862295       7.90207171      10.84531713       0.00314268      -0.00214951      -0.00544563
H        6.65483300       8.11421428       9.06045656       0.00332108      -0.00054750      -0.00532192
O        3.02916233      11.77661939       5.98887351      -0.00676708      -0.00289357      -0.00074069
O        1.63989600      11.74410305       7.63961656      -0.00962103      -0.00411186      -0.00332133
O        3.62093703      12.83040926       7.90906192      -0.01289821       0.00606978      -0.00099969
C        4.36035309      11.97741929       5.46172757      -0.00654270      -0.00070995       0.00150669
C        4.32121619      11.64780162       3.99297035      -0.00259130      -0.00461888       0.00214985
C        2.87111190      12.16167519       7.25372904      -0.01252675      -0.00228021      -0.00382090
C        1.43070345      11.77258241       9.04330844      -0.01301467       0.00040269      -0.00418171
H        4.66512785      13.00809031       5.65070798      -0.00960167       0.00073820      -0.00067931
H        5.02982392      11.31279709       6.00906806      -0.00577575       0.00264406       0.00498909
H        5.32147656      11.75184658       3.57022668      -0.00232272      -0.00257754       0.00345727
H        3.99172625      10.62142420       3.83151238       0.00077503      -0.00621021       0.00416689
H        3.65202007      12.32603536       3.46182037      -0.00411338      -0.00819109      -0.00058012
H        2.36960740      11.66147442       9.58308048      -0.01414174       0.00204723      -0.00145434
H        0.79998732      10.89874796       9.28070822      -0.01390279       0.00133737      -0.00271798
H        0.96235661      12.73502762       9.34686728      -0.01312190       0.00142009      -0.00792235
O        1.27555916       7.60894822       3.95543185      -0.00558987      -0.00477701      -0.00375191
O        1.60739726       9.46084839       2.89467693      -0.00453213      -0.00530566      -0.00489609
O       -0.45805034       9.04639623       3.72238651       0.00058568      -0.00082383       0.00228037
C        0.45634533       6.76920450       4.80374657      -0.00578076      -0.00342664      -0.00158819
C        1.28543036       5.57476430       5.19181253      -0.00628477      -0.00483254      -0.00470570
C        0.69829857       8.73312136       3.54736156      -0.00966936      -0.00155598      -0.00065564
C        1.13107207      10.72668261       2.42192691      -0.00371777      -0.00356524      -0.00243593
H        0.15627360       7.35755929       5.67308031      -0.00214050      -0.00315246      -0.00072795
H       -0.44449200       6.49144727       4.25238183      -0.00751966      -0.00147533       0.00057247
H        0.70895776       4.93935474       5.86542176      -0.00572680      -0.00485412      -0.00391543
H        1.57357285       4.99289063       4.31633131      -0.00924477      -0.00443781      -0.00590886
H        2.19056680       5.89147272       5.70832170      -0.00470664      -0.00664747      -0.00640634
H        0.26785390      10.59651520       1.77160393      -0.00458762      -0.00155326      -0.00131252
H        1.96002215      11.15637036       1.86767213      -0.00353399      -0.00449795      -0.00307989
H        0.86611253      11.36718384       3.26303112      -0.00144787      -0.00438356      -0.00127983
O        8.26413861      10.11264071       8.30865928       0.00373888      -0.00566487      -0.00129813
O        9.51072948       8.35410344       8.16176466       0.00621831      -0.00441694      -0.00050533
O       10.09037978       9.97253899       9.61591095       0.00128173      -0.00538398       0.00274564
C        7.93984009      11.37447713       8.97870550       0.00406162      -0.00431746      -0.00418168
C        6.55547217      11.78408598       8.57713261       0.00766027       0.00129868      -0.01185307
C        9.33801349       9.50878718       8.74519065       0.00365222      -0.00500999       0.00052172
C       10.70190944       7.63061808       8.53831633       0.00975770       0.00012907      -0.00265688
H        8.04289964      11.22736067      10.05277093      -0.00135368      -0.00306536      -0.00344715
H        8.69133834      12.12530084       8.65273919       0.00717622      -0.00579788      -0.00209494
H        6.26406463      12.66641433       9.14843896       0.00819280       0.00195691      -0.01264758
H        6.50948782      12.04119871       7.52104352       0.01546741       0.00269195      -0.01207191
H        5.82301195      10.99381449       8.77045550       0.00323445       0.00425497      -0.01647000
H       11.57234892       8.13789227       8.12679131       0.00761577       0.00846940       0.00312190
H       10.58760803       6.64198928       8.11010779       0.01692358       0.00247708      -0.01004956
H       10.77675537       7.57317912       9.62204041       0.00736506      -0.00741789      -0.00292683
O        5.15628596       2.05895494      11.75591657      -0.00415641       0.00395491       0.00168924
O        3.11038030       1.34792336      11.76147173      -0.00171591       0.00084423       0.00408270
O        3.48967473       3.55630923      12.09444187      -0.00918514       0.01274753       0.00866126
C        6.12106748       3.13966855      11.87624557      -0.00396073       0.00313920       0.00253184
C        7.48589890       2.51856844      11.72829969      -0.00327274       0.00634062      -0.00318161
C        3.89005438       2.44018814      11.88839271       0.00314105      -0.01446176       0.00132619
C        1.71439023       1.63503513      11.86157691      -0.00177240      -0.00396007       0.00583438
H        5.90873521       3.87663618      11.10170514      -0.00669445       0.00642759       0.00562230
H        5.98481068       3.61784648      12.84721357      -0.00175314       0.00017716       0.00488037
H        8.24844602       3.29366049      11.81974704      -0.00399618       0.00627819      -0.00098632
H        7.66257158       1.76794430      12.49858723      -0.00106287       0.00220007      -0.00726631
H        7.60065432       2.04244436      10.75431589      -0.00486113       0.01085547      -0.00592723
H        1.49503303       2.16605908      12.78758517      -0.00220633      -0.00595874       0.00787079
H        1.21004478       0.67198759      11.84811262      -0.00042954      -0.00396794       0.00395806
H        1.39879784       2.25478873      11.01926939      -0.00425062      -0.00180632       0.00773865
O        9.43831489       3.59984921       6.86022312      -0.00515333      -0.00562195       0.00813488
O       10.08883661       2.60431261       8.67158143       0.00103378      -0.00483799       0.00641550
O       11.44443004       4.16526146       7.74359112       0.00150460      -0.00509536      -0.00051404
C        9.63957634       4.58121490       5.80714180      -0.01014245      -0.00452605       0.00788036
C        8.45891955       4.50388554       4.88149215      -0.00993776      -0.00783661       0.00813626
C       10.41916724       3.52626893       7.73812863      -0.00626785      -0.00821513       0.00345740
C       11.13505526       2.33713591       9.60806107       0.00523362      -0.00480312       0.00159471
H        9.72136672       5.56686112       6.26832556      -0.01381842      -0.00430739       0.00883302
H       10.58449051       4.35326452       5.30878594      -0.00919500      -0.00048991       0.00746800
H        8.59880468       5.21669615       4.06763930      -0.01150594      -0.00838253       0.00738800
H        8.36362260       3.50782212       4.45049052      -0.00763954      -0.00859019       0.00889670
H        7.54096499       4.75962637       5.40719980      -0.01057699      -0.00916237       0.00771149
H       11.99921243       1.88794706       9.08939346       0.00309283      -0.00418069      -0.00265470
H       10.69127854       1.67990804      10.36127727       0.00898217      -0.00471590       0.00397333
H       11.48664487       3.24800360      10.09246153       0.00730343      -0.00476319       0.00039220
O        8.24338358       8.37980935       1.12631162       0.00126782      -0.00105478      -0.00316179
O        6.59069704       9.75284631       0.89038629       0.00142786      -0.00079714      -0.00470879
O        6.21722344       7.53879513       0.56659184       0.00193006      -0.00024229      -0.00292942
C        8.78007409       7.03947256       1.06233862      -0.00015754      -0.00243104       0.00119610
C       10.27116293       7.15002359       1.24653499      -0.00055426      -0.00364405       0.00534837
C        6.93594005       8.46419829       0.84195599       0.00092912      -0.00243849      -0.00417668
C        5.19802196       9.99987980       0.60098418       0.00160584      -0.00154892      -0.00531657
H        8.30638580       6.43838265       1.84099095      -0.00335833      -0.00000279       0.00091380
H        8.51001233       6.60240373       0.09953038       0.00216186      -0.00370543       0.00114894
H       10.71457332       6.15388263       1.26325573      -0.00147837      -0.00420134       0.00514797
H       10.72103330       7.70596747       0.42345118       0.00196569      -0.00283070       0.00722313
H       10.51871158       7.65680134       2.17956379      -0.00267881      -0.00506115       0.00669223
H        4.95025851       9.63330535      -0.39389842       0.00299678       0.00204530      -0.00703427
H        5.08723575      11.07930604       0.64548332       0.00025178      -0.00169915      -0.00135412
H        4.57332977       9.50624210       1.34253757       0.00122498      -0.00495905      -0.00775489
O        5.24390663       7.96763570       3.58161650       0.00336723       0.00136936       0.00626339
O        3.70236563       7.38699993       2.19107650       0.00476566      -0.00265828       0.00142667
O        4.98651949       5.76415014       3.11505565       0.00153974       0.02193987       0.00332195
C        6.36463307       7.61936568       4.43150051       0.00117995      -0.00143093       0.01179989
C        6.89719724       8.89045056       5.03217527       0.00484818       0.00246537       0.00101215
C        4.67507370       6.92064328       2.97103901       0.01499140      -0.03286779       0.00963088
C        3.04731374       6.39667627       1.38853714       0.01379822      -0.00806512      -0.00117113
H        6.02439692       6.93183870       5.20570046      -0.00480950       0.00859302       0.01644045
H        7.10471982       7.11302382       3.80748495      -0.00142226      -0.00930622       0.01730189
H        7.81639123       8.66942548       5.57631511       0.00157815       0.00183753       0.00747453
H        7.11602414       9.62666978       4.25670150       0.01288717      -0.00626481      -0.00475550
H        6.18596847       9.28305829       5.75740609       0.00468895       0.01347934      -0.00548369
H        3.71393749       6.04248803       0.60546623       0.02039543      -0.00655487       0.00461319
H        2.18582376       6.90257983       0.95958245       0.01691033      -0.00806054      -0.00804216
H        2.72883845       5.55739528       2.00362030       0.01046302      -0.00645640      -0.00289428
