149
Lattice="12.958676956772594 0.0 0.0 0.0 12.958676956772594 0.0 0.0 0.0 12.958676956772594" Properties=species:S:1:pos:R:3:forces:R:3 energy=-169846.03125 stress="0.0005244359490461648 -9.400133058079518e-05 0.0003706580901052803 -9.400133058079518e-05 -0.0005725987139157951 0.00024069899518508464 0.0003706580901052803 0.00024069899518508464 9.077572758542374e-05" pbc="T T T"
Sr      15.06997220      11.30590944       0.54570406      -0.01307195      -0.00464161       0.00884733
Cl       4.77648802      12.68327826       1.11191876       0.00214446       0.01958463      -0.02631533
O        4.51023773      11.25564502       0.61175165      -0.02064636       0.00731108      -0.03856388
O        3.37418512      13.30328640       0.98838675      -0.02445894       0.01657781      -0.00907139
O        5.14803026      12.61149137       2.50586548      -0.00565470      -0.00865824      -0.01934835
Cl       5.19933208      11.23217017       7.57412648      -0.00006557      -0.00331306      -0.01410532
O        4.85017816      10.50293184       6.31226830       0.00321788      -0.00339818      -0.01217222
O        6.66607100      11.05008807       7.79446430       0.00076509      -0.00500225      -0.00912833
O        4.93422268      12.67760110       7.35317010       0.00298080      -0.00352168      -0.01417643
C        3.20811994       7.52490602       8.66774942       0.00034101       0.00227016       0.00107950
C        4.51457984       8.21116436       9.04011520       0.00082096       0.00129998       0.00047748
C        2.22075862       8.49288712       8.02479578       0.00122889       0.00236225       0.00001799
C        5.55841915       7.30242586       9.67166359      -0.00110145       0.00190085       0.00449841
C        0.94758106       7.81789972       7.53778496       0.00129524       0.00225942       0.00019898
C        6.80228161       8.07775282      10.08373990      -0.00034770       0.00104758       0.00339499
H        3.41358890       6.70193896       7.97320814      -0.00003491       0.00121549       0.00223371
H        2.75203951       7.06524348       9.55439024      -0.00016809       0.00404254       0.00173694
H        4.30296600       9.04654980       9.72039709      -0.00052933       0.00368574      -0.00227517
H        4.93799411       8.66732059       8.14165305       0.00281632      -0.00059867       0.00066340
H        1.97220503       9.27766063       8.74909614       0.00097302       0.00343192      -0.00091809
H        2.71996101       9.00606166       7.19811781       0.00158609       0.00148998      -0.00024605
H        5.13081954       6.79183187      10.54018539      -0.00233318       0.00428866       0.00539362
H        5.82865753       6.51618034       8.95847876      -0.00153903      -0.00029978       0.00661656
H        1.16798443       7.08261036       6.76057338       0.00182100       0.00201604       0.00056148
H        0.23694663       8.53666836       7.12390348       0.00127484       0.00195652      -0.00013571
H        0.44318229       7.28508331       8.34811710       0.00131360       0.00229050       0.00030179
H        7.19303937       8.65086046       9.24052155       0.00103717      -0.00191732       0.00219813
H        6.56617026       8.79780472      10.87006764       0.00018413       0.00395714       0.00130028
H        7.58992674       7.42072985      10.45823711      -0.00155348       0.00116287       0.00601953
C       10.13055633       7.88836493       7.82726105       0.00065549       0.00243337       0.00106728
C        9.87164839       8.99682319       6.81397258       0.00181673       0.00194198       0.00029218
C       10.22815179       6.49813405       7.20955021      -0.00213905       0.00181165       0.00187498
C        9.89322419      10.39384822       7.42274456       0.00541194       0.00251113      -0.00127041
C       10.45855733       5.40565278       8.24560164      -0.00286239       0.00200829       0.00213960
C        9.61235918      11.48990089       6.40578533       0.00626425       0.00214201      -0.00197768
H       11.06113035       8.10071374       8.36620844       0.00142762       0.00111893       0.00022578
H        9.33565383       7.89414824       8.57991560       0.00115123       0.00433684       0.00166371
H        8.89989194       8.83402961       6.33573470       0.00098807       0.00359870       0.00151661
H       10.62097682       8.93846837       6.01424956       0.00094983      -0.00041601      -0.00044787
H        9.31259831       6.28568465       6.64812527      -0.00296354       0.00300588       0.00275138
H       11.04097911       6.48999012       6.47445094      -0.00282061       0.00019875       0.00117329
H        9.13772304      10.44818837       8.21031107       0.00622585       0.00465556      -0.00041884
H       10.86799414      10.56275342       7.89752497       0.00608024       0.00112341      -0.00223587
H       11.37180907       5.59218782       8.81588750      -0.00231004       0.00089765       0.00143757
H       10.55306377       4.42104858       7.78583914      -0.00464904       0.00162636       0.00244981
H        9.63109183       5.36111604       8.95677827      -0.00259411       0.00332100       0.00275588
H       10.31520715      11.43905411       5.57001857       0.00537169      -0.00001713      -0.00266872
H        8.59664691      11.39594945       6.02088356       0.00583309       0.00361688      -0.00065243
H        9.69525071      12.47991231       6.85531124       0.00899864       0.00236073      -0.00290804
C        5.09028588       3.53453091       9.98957937      -0.00213045      -0.00211758      -0.00132856
C        6.46643245       3.10408324       9.49867164      -0.00292563      -0.00209730      -0.00340202
C        5.08641104       4.02492736      11.43201357      -0.00073588      -0.00317300      -0.00116402
C        6.45645408       2.59322972       8.06313734      -0.00474989      -0.00257085      -0.00312963
C        3.71663026       4.50208762      11.89563687      -0.00051948      -0.00482281       0.00121845
C        7.80010323       2.03234671       7.62227139      -0.00574294      -0.00441280      -0.00411981
H        4.70122143       4.32523518       9.33709089      -0.00288144      -0.00171423      -0.00039509
H        4.39663125       2.69189549       9.88859204      -0.00255358      -0.00206026      -0.00118099
H        6.85084340       2.31626114      10.15689750      -0.00173460      -0.00187138      -0.00362714
H        7.16616419       3.94456295       9.59438340      -0.00277241      -0.00205284      -0.00454857
H        5.43796426       3.21966923      12.08506221       0.00096318      -0.00346127      -0.00196497
H        5.81436645       4.83578264      11.53898957      -0.00135963      -0.00260848      -0.00147683
H        5.70386337       1.80840778       7.96033854      -0.00563097      -0.00188109      -0.00235177
H        6.15585071       3.40889205       7.39540090      -0.00439040      -0.00260246      -0.00324780
H        3.35150334       5.31028714      11.25783839      -0.00283987      -0.00564434       0.00146058
H        3.74022166       4.86778307      12.92371328       0.00053450      -0.00475103       0.00083736
H        2.98334297       3.69318725      11.85019315       0.00040990      -0.00611496       0.00251490
H        8.58698867       2.78929198       7.67727908      -0.00452783      -0.00559725      -0.00351147
H        8.09081989       1.19489491       8.25940062      -0.00692781      -0.00544426      -0.00482376
H        7.75432419       1.65336764       6.60125477      -0.00644960      -0.00336254      -0.00431371
C        7.05274784       7.57063384       4.16592313       0.00348866      -0.00009620      -0.00026125
C        7.37343799       8.95375513       3.61304214      -0.00079629      -0.00003594      -0.00237288
C        5.69984555       7.49662045       4.86300559       0.00246325      -0.00277281      -0.00202530
C        8.73989376       9.02141652       2.93998898      -0.00067174       0.00265396      -0.00219065
C        5.45290739       6.15137222       5.52842340       0.00596339      -0.00074649       0.00321206
C        9.08771301      10.41503990       2.43399383      -0.00419816       0.00313199      -0.00364627
H        7.09006482       6.83035778       3.35648809       0.00681446      -0.00146921       0.00116768
H        7.83699573       7.27834098       4.87417122       0.00332229       0.00377532       0.00144884
H        7.32006356       9.68663186       4.42501559      -0.00278494       0.00094014      -0.00325152
H        6.60126018       9.25158913       2.89307749      -0.00146025      -0.00327949      -0.00247425
H        5.62044511       8.30731995       5.59259091      -0.00177924       0.00003329      -0.00557595
H        4.91143242       7.68162515       4.12625372       0.00340241      -0.00897434      -0.00448546
H        9.50324919       8.68930466       3.65130177      -0.00007260       0.00513381      -0.00176629
H        8.76938723       8.30783933       2.10876141       0.00103918       0.00184062      -0.00152522
H        5.52562228       5.33375678       4.80830706       0.00941931      -0.00366992       0.00712991
H        4.46144839       6.10231477       5.98256290       0.00539860      -0.00166597       0.00217970
H        6.18625835       5.96044710       6.31528844       0.00546019       0.00522717       0.00536211
H        8.35922456      10.75798452       1.69607324      -0.00485256       0.00084775      -0.00327662
H        9.08849780      11.13633144       3.25265896      -0.00508505       0.00361215      -0.00400837
H       10.07461117      10.43886909       1.96405483      -0.00407304       0.00492727      -0.00392586
C        2.03108561      10.59486624       3.28565144      -0.00343902      -0.01634645      -0.00092781
C        1.92224253      10.77609153       4.79905079      -0.00371841      -0.00796673      -0.00175211
C        2.69062308       9.24790607       2.94148354      -0.01309144      -0.02222806       0.00801161
C        1.18633294      12.02893309       5.25414567       0.00709566       0.00045860      -0.00729412
C        2.59213751       8.73168776       1.49806458      -0.00816240      -0.01832232       0.00789332
C        1.26497553      12.17849725       6.76993227      -0.00338741       0.00654297      -0.00675499
H        1.00983911      10.65938858       2.84476793      -0.00223214      -0.01498629      -0.00471805
H        2.64079253      11.44716372       2.93149403       0.00544579      -0.02528171      -0.00582322
H        2.93566866      10.77768739       5.21319125      -0.00326508      -0.01603135      -0.00321043
H        1.42126934       9.89483906       5.21407203      -0.01205303      -0.00291598      -0.00105593
H        3.73953868       9.30989305       3.23456250      -0.01427236      -0.02939572       0.01310930
H        2.23206901       8.50114644       3.59169876      -0.02188444      -0.01803353       0.00654644
H        1.62618785      12.91141345       4.77693292       0.01844703      -0.00464323      -0.00554878
H        0.13847994      11.98599470       4.93349765       0.00844517       0.00945373      -0.01335909
H        1.56734537       8.81050536       1.09208255      -0.00644121      -0.02126635       0.00322629
H        2.82632548       7.66833907       1.44921287      -0.00440361      -0.01807639       0.00928277
H        3.32412993       9.19309457       0.81923770      -0.00635520      -0.01335147       0.01203553
H        0.88752311      11.27655286       7.26000039      -0.01418401       0.01261064      -0.00394354
H        2.30049464      12.32269858       7.08482404      -0.00577116       0.00336975       0.00280330
H        0.67357246      13.02346389       7.12546011      -0.00166115       0.01305811      -0.01878430
C        3.27936356       3.67754030       3.63835395       0.00506788      -0.00049388       0.00537738
C        2.66681075       3.45368441       5.01435789       0.00244111      -0.00009730       0.00457919
C        4.56185626       2.88254455       3.43289273       0.00352594      -0.00217307       0.00545776
C        1.40935781       4.27463504       5.26467844       0.00129580      -0.00093615       0.00143450
C        5.17858764       3.08957634       2.05778753       0.00692600       0.00320163       0.00732860
C        0.82574528       4.04945464       6.65195013      -0.00095072       0.00159982       0.00082803
H        2.55393516       3.39927170       2.86343699       0.00475250       0.00027317       0.00416903
H        3.47881451       4.74794137       3.49794643       0.00572854      -0.00110099       0.00570293
H        3.41167044       3.69015820       5.78241618       0.00131613       0.00227159       0.00535044
H        2.43970572       2.38944233       5.14188888       0.00367551       0.00009325       0.00593472
H        5.28347276       3.15197822       4.21015027       0.00332820      -0.00378247       0.00744331
H        4.34968270       1.82198440       3.58373167       0.00384462      -0.00150585       0.00161337
H        1.64474328       5.33684074       5.12971031       0.00000602      -0.00085986      -0.00061269
H        0.65912352       4.03308362       4.50380267       0.00268409      -0.00347503       0.00064813
H        4.47562013       2.80245388       1.27370649       0.00706539       0.00462051       0.00487763
H        6.08658123       2.49605927       1.93066505       0.00667883       0.00478168       0.00633533
H        5.44255934       4.13657160       1.88943332       0.00491155       0.00418711       0.01086115
H        0.54841522       3.00241253       6.79204555       0.00004045       0.00154516       0.00284018
H        1.55389586       4.30057301       7.42656515      -0.00266099       0.00426278       0.00169365
H       -0.06281031       4.65742686       6.82311865      -0.00196232       0.00091426      -0.00215512
C        8.71035981      11.21220090      11.24170631       0.00372556       0.00397855      -0.00300723
C       10.22023506      11.41581983      11.29366023       0.00365500       0.00696695       0.00258423
C        7.92404906      12.50357997      11.45935691       0.00026162       0.00240171      -0.00345713
C       11.01900486      10.12001275      11.19316724       0.00658435       0.00804377       0.00645611
C        6.46686182      12.38128089      11.03012834       0.00013006       0.00450863      -0.00682332
C       12.52110068      10.36005324      11.05778207       0.00833666       0.01168643       0.02538291
H        8.43746578      10.79195400      10.26911297       0.00858758       0.00473686      -0.00447738
H        8.40994871      10.46974724      11.99043912       0.00415374       0.00169711      -0.00550538
H       10.49129433      11.93801806      12.22125013       0.00003165       0.00706387       0.00332987
H       10.50913908      12.08083987      10.47098592       0.00651602       0.00726017       0.00352344
H        7.99660916      12.79730201      12.51350555      -0.00135092       0.00300084      -0.00403559
H        8.39799008      13.30820401      10.88767069      -0.00113095       0.00300997      -0.00396219
H       10.81751078       9.49554220      12.07008747      -0.00031491       0.00523247       0.00265235
H       10.67650237       9.54873251      10.32611437       0.01778491       0.00957811       0.00101858
H        6.40372332      12.21920761       9.95327282       0.00380502      -0.00469278      -0.00536150
H        5.89562535      13.28167565      11.26912705       0.00476460       0.00965026      -0.01794609
H        5.98111098      11.53471208      11.51996314      -0.00755456       0.01173431      -0.00130560
H       12.75426981      10.91900891      10.14792086       0.02048863       0.01108895       0.02835694
H       12.86978821      10.98031431      11.90606871      -0.00899215       0.01456906       0.03068317
H       13.09700136       9.43062036      11.03471854       0.01052723       0.01238239       0.03543816
