147
Lattice="16.33103286166826 0.0 0.0 0.0 16.33103286166826 0.0 0.0 0.0 16.33103286166826" Properties=species:S:1:pos:R:3:forces:R:3 energy=-1207107.625 stress="-0.0002449227322358638 -0.00012937095016241074 0.000271809272817336 -0.00012937095016241074 -0.00031903546187095344 -0.00020219677389832214 0.000271809272817336 -0.00020219677389832214 -0.0002563832968007773" pbc="T T T"
Sr      15.44933502      16.39774595      -1.41541692      -0.00446195       0.00731090       0.02819260
Cl      -0.19273266      15.96903736       6.67461280       0.01324093      -0.00455850       0.01648659
O        1.21133885      15.63868186       7.08426730      -0.02907884      -0.00623208      -0.00083247
O       -0.51194923      15.60328284       5.24254410      -0.00113943      -0.00368860      -0.02608287
Cl      13.93933630      17.27091935      11.60871811       0.00905231       0.02641296       0.03019643
O       14.82477153      17.23754368      12.92111140       0.00137633       0.03400911       0.03522640
O       13.65043624      15.89163091      11.06025397       0.02190074       0.02414715       0.02963781
Cl       8.37896459       8.18322315       5.51972963       0.01468179      -0.01276436       0.01103446
Cl       7.62593140      10.41310940       7.24803827       0.01018123      -0.00668645       0.00145914
Cl       6.47378469       7.77476571       7.69154695      -0.00419918      -0.00055535      -0.00313327
C        7.89462135       8.65712749       7.15464783       0.00363947      -0.00787229       0.00638568
H        8.71592327       8.42313604       7.82202889      -0.00236747      -0.00986923       0.01280095
Cl       5.07449521       2.67341197       4.26021948      -0.01410970       0.00286880      -0.01805861
Cl       4.71934007       4.98034181       6.01675353      -0.00291736      -0.00695653      -0.00308588
Cl       7.02469006       4.84448375       4.23403355      -0.00126725      -0.00842001      -0.00040821
C        5.32272245       4.42073321       4.45618182      -0.00395796       0.00006752      -0.00575282
H        4.75274878       4.92176041       3.68361672       0.00022751       0.00830287      -0.00335222
Cl       5.45265460      14.30506903      10.62680950       0.00497121      -0.00904409       0.01942882
Cl       2.63420396      14.07290320       9.88046833       0.01055309      -0.01458550       0.00074449
Cl       3.63110861      12.66350101      12.24681500      -0.00166815      -0.01371169       0.00617810
C        3.79046793      14.09980349      11.21293232       0.00158224      -0.01267760       0.00776681
H        3.56664665      14.95889511      11.83010985      -0.00460391      -0.01340389       0.00708890
Cl      11.44541366      10.03581736       4.73709114       0.00476262      -0.00080507      -0.00714378
Cl      11.50351787      12.51244082       6.30674593       0.00223912      -0.00359878      -0.00247483
Cl       9.39856571      12.08767862       4.31938210       0.00467391      -0.00039068      -0.00543153
C       10.47267226      11.32134224       5.49155631       0.00350855      -0.00261237      -0.00595480
H        9.85474258      10.85593313       6.24959919       0.00295387      -0.00434487      -0.00751054
Cl      15.27578948      10.42697115      12.75966662       0.00002177      -0.00215911      -0.00024439
Cl      12.39537063      10.69866548      13.10322777       0.00178564       0.01316945       0.00258456
Cl      13.52533966       8.12437700      12.31286078      -0.01359159       0.01092954      -0.01080069
C       13.78521691       9.60068290      13.24324699      -0.00438309       0.00459094      -0.00347338
H       13.87968470       9.32793317      14.28758778      -0.00575273      -0.00122046      -0.00489604
Cl       8.72457338       3.33146308       7.21027247      -0.00708442      -0.01071242       0.00069204
Cl       8.59809990       4.93632346       9.64571017       0.00577205      -0.00051031      -0.00445613
Cl       6.87799182       2.59263735       9.35123117      -0.00712451       0.00437595       0.00110601
C        8.45315149       3.30789259       8.95409709      -0.00459336      -0.00226633       0.00097010
H        9.22136286       2.69483398       9.40902492      -0.00870183      -0.00523861       0.00391090
Cl       4.11947375       8.87965880      11.00709714       0.00344266      -0.01296608      -0.00905460
Cl       4.87141065      11.09549107       9.27784082       0.01024422      -0.00626311       0.00290045
Cl       3.13630708       9.00255608       8.25104259      -0.00449864       0.01024792      -0.00500295
C        3.60462050       9.94551747       9.66875030       0.00520068      -0.00163949      -0.00038286
H        2.73603805      10.49309823      10.01440509       0.00949889       0.00104669       0.00581644
Cl       8.51240670       0.84674739       1.20450485      -0.00913069       0.01189491      -0.00399104
Cl       8.05450488      -0.12986752       3.92236246      -0.00247958      -0.00738898      -0.01014468
Cl       9.78465053       2.18376358       3.46936089      -0.00388804      -0.00406031       0.00219375
C        8.35029707       1.29584507       2.91614911      -0.00526959      -0.00034519      -0.00066559
H        7.49681082       1.95705324       3.00987280      -0.00487190      -0.00097740       0.00610944
Cl      10.88933073      14.51606410      13.00312021       0.01198309      -0.02049353       0.00118617
Cl      13.65876606      14.11669186      13.85492645       0.01219809       0.00705773       0.01390539
Cl      12.18408132      16.50359127      14.70302861      -0.01309633      -0.00302272      -0.00207153
C       12.04062153      14.77553297      14.28220080       0.00419569      -0.00514390       0.00509807
H       11.72877086      14.24918313      15.17755153       0.00570419      -0.00540401       0.00550608
Cl      15.46621089      10.26578552       7.03773156       0.01142281       0.00235778      -0.00234032
Cl      15.28695345      12.78189840       5.53854532       0.00455602      -0.00204396      -0.00766850
Cl      15.50490578      10.24638379       4.11356791      -0.00966707      -0.00607460      -0.00206153
C       14.88359312      11.05696762       5.57468431       0.00224846      -0.00161603      -0.00022154
H       13.80440572      10.96845830       5.55120129       0.00189379       0.00058192       0.00768144
Cl       7.81059836       6.95141699       1.08697393       0.00535615      -0.00191048       0.00423789
Cl       5.75119532       4.91000138       0.71722444       0.00604808      -0.00097826      -0.00245742
Cl       5.42638460       7.52438613      -0.52702775       0.00679874       0.00210556       0.00419335
C        6.59524564       6.29175983      -0.00641750       0.00622367       0.00067027       0.00153492
H        7.10667826       5.93745582      -0.89445429       0.00685649       0.00301343       0.00102107
Cl      13.01806118       3.40137633       2.76574509      -0.01030396       0.00586604       0.01047686
Cl      14.49531414       2.14935955       0.60781541      -0.01658341       0.01875187       0.00037462
Cl      14.65900525       1.06586486       3.33937414      -0.00126156       0.00916198      -0.00421758
C       13.60727366       1.85948515       2.19454297      -0.00823754       0.01017714       0.00232565
H       12.77433447       1.21233752       1.93659519      -0.00707258       0.00791748       0.00403019
Cl       5.08471880       7.89779006       3.14253476       0.00249700      -0.00041795       0.00496192
Cl       2.77695546       8.91526179       4.60646990      -0.00136515      -0.00171578      -0.00007550
Cl       5.29573042      10.36837594       4.66391259       0.00145638      -0.00695850       0.01501080
C        4.23712588       9.35197377       3.70008179       0.00308068      -0.00101721       0.00717615
H        3.93041565       9.91065345       2.82386122       0.00748152       0.00271213       0.00808975
Cl       9.72799380       3.31970127      14.75335243       0.00069732       0.00213954      -0.00678232
Cl      11.48070214       5.13112009      13.26830978      -0.01540861       0.01461606      -0.01009329
Cl      10.72743899       2.55098752      12.11687473       0.00284727       0.00701252      -0.00656716
C       10.21267410       3.90319303      13.14883118      -0.00576442       0.00474700      -0.00766160
H        9.34766148       4.35762659      12.68139198      -0.00975570      -0.00194916      -0.00667960
Cl       6.19500171      13.17529079      -0.99862291       0.01371037       0.00846288       0.01311347
Cl       6.74488662      11.34135104       1.21280902      -0.00805682      -0.00519583       0.00655481
Cl       3.99079980      11.81603511       0.36054513       0.00181134      -0.01240761      -0.02748602
C        5.69179992      11.70704663      -0.16443692       0.00908516      -0.00012367      -0.00512464
H        5.75537465      10.87885063      -0.85990584       0.02279685       0.00562997      -0.01053239
Cl      -1.20420133       5.27724736      15.21617509       0.00081813       0.00534769      -0.00039833
Cl       0.65431806       3.05117368      14.78258181      -0.00354448       0.00299178      -0.00166778
Cl       1.67172359       5.67151002      15.54600652       0.00157430       0.00158714      -0.00385661
C        0.31699910       4.57033310      15.72686898       0.00059319       0.00311133      -0.00202847
H        0.24158862       4.26836571      16.76642916       0.00120433       0.00425422      -0.00181192
Cl      10.43262224      10.90083892       9.76149325       0.00854402      -0.00547576       0.00693405
Cl       8.13023071       9.45990526      10.84013006       0.00487110       0.00065934       0.00645795
Cl      10.46669482       7.98609505       9.89187240      -0.00092630      -0.00547251       0.00300762
C        9.89189144       9.47582806      10.66425172       0.00469758      -0.00468562       0.00553027
H       10.33201415       9.52318629      11.65370014       0.00570869      -0.00738565       0.00528628
Cl       6.68322494       5.61177184      12.81505837       0.00141944       0.00521182      -0.00119860
Cl       4.01956353       4.73747372      12.05494745       0.00387375      -0.00067956      -0.01048470
Cl       5.73078631       2.97676932      13.64330037       0.00156114       0.00842728       0.00691981
C        5.27195437       4.64675210      13.30096996      -0.00027244       0.00516390      -0.00626408
H        4.87128361       5.07966192      14.21196783      -0.00701294       0.00930470      -0.01179193
Cl       2.41784652      12.03136024       6.51215092       0.00882301       0.00732428      -0.00577450
Cl       4.29977932      13.97863722       5.43258350      -0.00475249       0.01450957      -0.01750643
Cl       2.38177250      12.64805581       3.66406962       0.00229001      -0.00537738      -0.00835890
C        2.67697368      13.28978968       5.31550011       0.00000417       0.00304646      -0.01127760
H        1.95909940      14.08370157       5.48519057      -0.00561613      -0.00013059      -0.01358366
Cl      11.05505680       8.46150197      15.80946882       0.00301518       0.00376483      -0.00042802
Cl      10.47430517      11.28716097      16.29372906       0.00452209       0.00199185       0.01086665
Cl       8.90335788       9.77545520      14.32892509       0.00175178       0.00936354       0.00756264
C        9.79360171       9.70526076      15.85984097       0.00348100       0.00379247       0.00611161
H        9.08594396       9.43414822      16.63401694       0.00457247       0.00127146       0.00622354
Cl       0.39279540       8.09189002      10.35231720      -0.00304839      -0.00127558      -0.00395752
Cl       0.22286525       5.64757408      11.93381115      -0.00764441      -0.00421284      -0.00909869
Cl       1.86092133       5.69533878       9.52198481       0.00152832       0.00162768      -0.00293565
C        1.24913880       6.64224464      10.88870027      -0.00431725      -0.00175381      -0.00335677
H        2.10670044       6.96621720      11.46537977      -0.00676306      -0.00232124       0.00056542
Cl      11.58628985      15.23716959       3.34621433       0.00858665       0.00810500      -0.01103596
Cl      12.76336115      12.61307989       2.88959757       0.00376197       0.00559099      -0.00409938
Cl      13.46258204      14.82734831       1.14683269       0.01720946       0.00158338      -0.00331968
C       13.00736231      14.34300349       2.84441758       0.00829089       0.00420313      -0.00374672
H       13.84952398      14.61501774       3.47344364       0.00684975       0.00293702      -0.00102869
Cl       2.17158851      16.28009078       3.14653556      -0.01678539      -0.00704877      -0.00303359
Cl       1.93868577      16.59297370       0.24535229      -0.00050685       0.00620970      -0.00272459
Cl       4.49406585      15.85315023       1.42909657      -0.00776915      -0.00280143       0.00903860
C        2.76090656      15.68731848       1.61550216      -0.00850345      -0.00102553      -0.00219396
H        2.48403911      14.64576075       1.49510508      -0.00947871       0.00035019      -0.00930097
Cl      11.95186978       6.14296177       6.88888999      -0.02084488       0.00338444       0.01403134
Cl      14.28033984       6.44916083       8.63399546      -0.00504698       0.00015172      -0.00691094
Cl      12.31650877       4.36975021       9.18931577       0.00756414      -0.00950085      -0.00095689
C       13.12779096       5.31349474       7.92261917      -0.00818718       0.00098328      -0.00277658
H       13.68451106       4.62106947       7.30328556      -0.01204391       0.00665686      -0.01222539
Cl       1.87318902       0.26380032      13.19193409      -0.00332998      -0.00724491       0.00176364
Cl       3.66797391       1.21749756      11.10354780       0.00112161      -0.01008150       0.00457156
Cl       0.81915645       1.75110956      10.86293213       0.00071868      -0.01473562      -0.00315844
C        2.17139772       1.57933068      11.93702938      -0.00153565      -0.01051897       0.00061530
H        2.30454140       2.48464796      12.51919871      -0.00412748      -0.00846866      -0.00200619
Cl       0.23472853       6.38344521       5.44317392      -0.01737131      -0.00301166      -0.01051342
Cl       1.73915049       5.53962759       3.07273396      -0.00562561      -0.00825717      -0.00049617
Cl      -1.06963751       6.28017640       2.83016471       0.00081551       0.00966021      -0.02013063
C        0.44444995       6.58018068       3.69853442      -0.00365462      -0.00128697      -0.00849316
H        0.73926689       7.60653583       3.52159241       0.00382463      -0.00292191      -0.00494858
Cl       1.36240195       2.48064756       5.22706758      -0.00849791      -0.00595242       0.00240889
Cl      -0.08064009       3.12815247       7.67247393      -0.00825962      -0.00019780       0.00130811
Cl       2.75271098       2.42798000       7.79331435      -0.00797506       0.00110152       0.00182354
C        1.48956629       3.19448025       6.83882577      -0.00860703      -0.00200605       0.00109982
H        1.74457088       4.23935745       6.70753396      -0.00892934      -0.00196591      -0.00224092
Cl      14.28691990      11.51617223      -0.18110452       0.01112916      -0.00476971       0.00360677
Cl      16.91953151      10.68851634       0.72209529       0.01039961       0.00092298       0.01044659
Cl      16.59010273      13.36208146      -0.36160909       0.00911382      -0.00388968      -0.00128070
C       15.78049960      12.01583150       0.57463825       0.00982511      -0.00050491       0.00348568
H       15.56738747      12.42330047       1.55794023       0.00816807       0.00301232       0.00172213
