148
Lattice="11.450374033352958 0.0 0.0 0.0 11.450374033352958 0.0 0.0 0.0 11.450374033352958" Properties=species:S:1:pos:R:3:forces:R:3 energy=-211923.015625 stress="0.0013335091061890125 -0.0001734819816192612 0.0004357823636382818 -0.0001734819816192612 0.0014922088012099266 -0.00046559855400118977 0.0004357823636382818 -0.00046559855400118977 0.0009044811595231295" pbc="T T T"
Sr      10.80641714      10.25919623      -0.33334221      -0.00583830      -0.00035784       0.00545472
S        9.79247597      11.04911301       7.06920207       0.00235194      -0.01068771      -0.02638447
N       11.87930710       9.63657091       5.82302865       0.01572990      -0.00978637      -0.01591551
C       11.02091801      10.23065329       6.35394297      -0.00732008       0.00075978      -0.01070017
S        4.47698758      11.65774133      10.06214260      -0.00376868       0.01467317      -0.00288355
N        6.65684202      12.54164925       8.52882765       0.02118117      -0.02117726       0.01354876
C        5.74220345      12.17612742       9.17922860       0.01187933      -0.00567086       0.00605032
O        0.17620302       8.63511762       9.40460345      -0.00373848       0.00509551      -0.00159490
H       -0.10076789       7.80300540       9.00055125       0.00446507      -0.00592641       0.01531775
H        1.14380615       8.66521366       9.24395795      -0.00407340       0.00850965      -0.00189604
O        3.14761524       5.53984995       3.13990863       0.00446440      -0.00105536       0.00728417
H        3.60256285       5.37134957       2.29179666      -0.00438718      -0.00418040       0.00266650
H        3.79367976       6.03538481       3.67220087       0.01556507      -0.01026356       0.00277676
O        1.43407871       1.90957522       2.21088187       0.00989722       0.02341764      -0.00430506
H        0.56654105       2.37396651       2.27067067       0.01009705       0.02392405       0.00172755
H        1.92880060       2.22011528       2.99128901       0.01149262       0.01639603      -0.00239020
O       10.02336549       2.79963976       7.74451952       0.01158214      -0.01248060       0.00886342
H       10.91519006       3.17926350       7.86752672       0.01006564      -0.00913170       0.00488387
H       10.16750616       1.86890532       7.50125484       0.01292352      -0.01132262       0.00347557
O        7.13608761       9.20765057       0.69646752       0.00078244      -0.00002760      -0.00289309
H        6.44160091       8.74367338       1.20160557      -0.00423980       0.00629477      -0.00424952
H        7.77590527       9.55723196       1.33906429      -0.00009330      -0.00095220      -0.00115290
O        4.11230686       4.24064049       8.07131672       0.00733770      -0.00049949       0.02071734
H        4.81124139       4.20954662       8.76065834       0.00741689      -0.00142035       0.02134612
H        4.36042391       3.58697062       7.39434459       0.01001018       0.00373940       0.01721732
O        8.47324652      10.08001353      10.02525992      -0.00464827       0.02769521      -0.00015472
H        7.72401038       9.91362324      10.62508372      -0.00241762       0.01435951      -0.00152488
H        8.16784859      10.71831889       9.37027231      -0.01190350       0.03710766       0.01153239
O        9.91055998       6.63621822       7.46296259      -0.00683778      -0.00494704      -0.00843334
H        9.29842674       7.31019438       7.12736678      -0.00696804      -0.00432210      -0.00692089
H        9.95333472       5.97842487       6.74374307      -0.00899757      -0.00583538      -0.00778450
O       10.54595634       5.68164845       1.00875521       0.00133927      -0.00153767      -0.01163427
H       11.02997545       6.52090485       1.15837155       0.00211009      -0.00208955      -0.01128933
H       10.36345618       5.67314916       0.04347057      -0.00111695      -0.00016106      -0.01144708
O        8.51943450       3.19080810      10.13928296       0.00688495      -0.00161108       0.00230430
H        8.75343000       2.82348504       9.27115350       0.00798439      -0.00673082       0.00462902
H        8.96775556       4.06890626      10.10656796       0.00326405       0.00022807      -0.00353637
O        9.56943043       5.68705307       9.96025091      -0.00615495       0.00171679      -0.00792961
H        8.76771879       6.15882549      10.28749556      -0.00566691       0.00099740      -0.00632592
H        9.71935416       6.00498827       9.03806664      -0.00721261       0.00078680      -0.00877094
O        9.67902433       0.72505997       3.88691425       0.01255275       0.00152682      -0.01514848
H       10.50100060       1.18598407       4.15003541       0.01324107      -0.00078987      -0.01319950
H        9.38035524       0.36648171       4.73856405       0.01239050       0.00031371      -0.01485962
O       10.68315634       3.42190383       2.59055989       0.00104573       0.01182511       0.00183289
H        9.81985104       3.00029955       2.65972976       0.01138504      -0.01396546      -0.02846734
H       10.61630707       4.13657355       1.92907761       0.00481901       0.00610961      -0.00502959
O        1.27362890       6.02459780       8.97153655      -0.01460488       0.00465874       0.01508585
H        1.01131501       5.18030708       9.35406403       0.00491158      -0.01101906      -0.00605094
H        1.99080336       6.35056164       9.52560648       0.00046360      -0.00743411       0.00262268
O        3.85419914       6.79525978       7.35007987      -0.00397266      -0.00579000       0.00657780
H        3.13993613       6.70283331       6.69080260      -0.00836441      -0.01581034       0.01221514
H        4.02163049       5.85798072       7.62866367       0.00513633      -0.00249562       0.01226622
O        0.93034728       0.22475595       9.58098355      -0.00799114      -0.00032604       0.00520216
H        1.15593060       0.38344905       8.63622701      -0.00496064      -0.00161923       0.00557984
H        1.73781150       0.41815411      10.07256027      -0.01115944       0.00361711       0.00866669
O        1.78348274       0.91385498       7.11690812      -0.00660634      -0.00382295       0.00629698
H        2.39877584       0.24063343       6.75875632      -0.00161240       0.00347585       0.00196463
H        1.15598176       1.14108463       6.40180073      -0.00651912      -0.00269392       0.00612716
O        9.55212893      10.21284858       1.95373593      -0.00431168      -0.00791712       0.00200054
H        9.63641558       9.41931948       2.53382036      -0.00448701      -0.00731940       0.00330362
H        9.64411438      10.97469755       2.57195170       0.00337453      -0.00573607      -0.00112953
O        1.45701927       8.36258675       3.47771379       0.00933792      -0.01932003      -0.00391474
H        1.63797107       7.47489785       3.81181225       0.01764695      -0.02136131      -0.01375085
H        0.98577903       8.80355262       4.21196163       0.01022023      -0.02702145       0.00040457
O       -1.11010115       1.32044147      11.09825618       0.00509923       0.00472298       0.02063228
H       -0.41266907       1.50459852      10.45110862       0.00492167      -0.00154772       0.01826802
H       -1.82368011       1.96212860      10.91058444       0.00527623       0.00241299       0.01159863
O        9.53613645       7.98392518       3.51704551       0.00017181      -0.00594971      -0.00000432
H        9.26036026       8.10076241       4.43733115      -0.00448474      -0.00663363      -0.00133545
H        8.92456409       7.31578835       3.14717007       0.00296623      -0.00744382      -0.00266007
O        1.61682653       6.02602697       5.76252444      -0.00624730      -0.01748389       0.02444360
H        1.81380815       5.09738691       5.56747001      -0.00422996      -0.02000605       0.03760359
H        1.14572273       6.00419508       6.60878080      -0.00380278      -0.00757878       0.02636221
O        4.25399027       5.09253989       0.62283847      -0.01552337       0.00794929      -0.00316767
H        3.65208111       4.32554195       0.44573349      -0.02212034       0.01629851      -0.01710724
H        5.02368098       4.85407911       0.07385344      -0.00716945      -0.00285926       0.01349731
O        8.16259043       8.57812266       6.03932304      -0.01365209      -0.00600739      -0.00483446
H        7.22279795       8.61389204       6.29951076      -0.01277706      -0.00441720      -0.00177939
H        8.57663450       9.37504067       6.44277656      -0.00995232      -0.00606924      -0.00598450
O        4.34765336      11.05396160       3.72074183       0.00738373       0.00969214      -0.02034281
H        4.01892156      10.70570587       2.86487504       0.00339248       0.00965743      -0.01908963
H        5.18463476      10.56264794       3.82962543       0.00305170       0.00199816      -0.01835920
O        2.51094385       3.30730587       4.38000290       0.00086790       0.00463656       0.01200186
H        3.30315568       3.00375669       4.86396827       0.00041398       0.00505220       0.01338087
H        2.78079659       4.11556143       3.86647557       0.00036595       0.00627565       0.01353402
O        7.49100187       3.39328307       6.73216173       0.01505345      -0.00053888       0.00628069
H        8.43409422       3.38578041       6.98330455       0.01528928      -0.00483798       0.00556182
H        7.10577971       2.71759666       7.31756228       0.01292578      -0.00240353       0.00183430
O        8.14159947       5.94715696       2.23073457       0.00396483      -0.00547686      -0.00084427
H        7.94033884       5.19789610       2.82354674       0.00552084      -0.00410994       0.00208171
H        9.02416006       5.76198976       1.83044239       0.00274742      -0.00552521      -0.00308177
O        1.30246978       3.44526000       7.94112998       0.01788827       0.00504044      -0.00672284
H        2.09715114       3.96045081       8.14577864       0.02427952      -0.00982193       0.00715154
H        1.65182347       2.55304955       7.75775634       0.00685448       0.00006898      -0.00490778
O        6.40994766      11.74399753       5.92884482      -0.01686484       0.00478569       0.00919783
H        6.31890910      10.78588485       5.88819472      -0.02552073       0.00595906       0.00097605
H        6.63860123      11.95471731       6.86538579      -0.00383499      -0.00698163       0.00875251
O        3.20715433      10.28474699       6.00592853       0.00271128       0.01174682      -0.01697756
H        2.33482679       9.84977960       5.91935162       0.00321041       0.01257758      -0.02017995
H        3.46547175      10.56870815       5.09344733       0.00473332       0.01572345      -0.01525133
O        5.37877742       8.70424381       6.35127675      -0.01290170      -0.00926979      -0.01334643
H        4.98295716       7.95920357       6.86528185      -0.01556519      -0.00603963      -0.00997683
H        4.61353784       9.33037563       6.28399860      -0.01008161      -0.00645254      -0.01893349
O       10.24507608       4.91521791       5.27896271       0.00131669      -0.01706793       0.00335807
H        9.65654524       4.54516950       4.60345895       0.00937812      -0.00790433      -0.00868906
H       10.91813631       5.40308200       4.78888677       0.01496192      -0.02160977       0.01747547
O        1.43476989      -0.39730987       0.84533778      -0.01405863       0.01194998       0.00993556
H        1.44254395       0.38145840       1.44164025      -0.00760432       0.01588266       0.00469892
H        2.24465764      -0.90638146       1.04554941      -0.01500878       0.00945564       0.00722678
O        5.10814694       7.62329228       1.67656268      -0.00918113       0.00676185      -0.00608037
H        5.25716818       7.37377699       2.61152495      -0.00710150       0.00362597      -0.00703438
H        4.80452745       6.82034488       1.21757089      -0.01263899       0.00891976      -0.00755206
O        3.85785565       9.93921244       1.28373199      -0.01466720       0.00135563      -0.01148948
H        4.43734322      10.33502352       0.61309286      -0.02001117      -0.00189506      -0.01828402
H        4.19846967       9.02522966       1.42999981      -0.01186798       0.00293019      -0.00726163
O        6.70569237       1.35421752       3.40923748       0.00172693       0.00433737       0.01070995
H        5.77129174       1.19589959       3.21180330       0.00411604      -0.00814538       0.00746350
H        6.77531580       1.03972692       4.33259034       0.00149181       0.00419537       0.01048977
O        6.84171354       9.84997264       3.62865940       0.00015914       0.00093928       0.00312042
H        7.45741250       9.39867646       4.22583316      -0.00883724      -0.00209180       0.01071941
H        7.28258621      10.66518393       3.34873425       0.00792751      -0.00188056       0.00739749
O        4.76298819       2.57758399       5.84233249       0.00067604       0.01067230       0.01434393
H        5.00279243       1.63341252       5.88626140       0.00836886       0.01193759       0.01323667
H        5.59824272       3.00906590       5.62180254      -0.00702620       0.01619493      -0.00367390
O        6.04136635       4.44649997      10.01675639       0.00425395      -0.00984687       0.01801984
H        6.81192339       3.83898301      10.03881051       0.00710835      -0.00690246       0.01213145
H        6.43628769       5.33032424      10.10750798       0.00110975      -0.00798432       0.01641703
O        0.38689009       8.14705026       1.05453366       0.00517797      -0.00214808      -0.00334616
H        0.73257470       8.28791631       1.98254541       0.00601815      -0.00952626      -0.00261931
H        1.16870187       7.94654204       0.52769722       0.00423114      -0.00098097      -0.00545551
O        7.36586788       6.65279251      11.11259427      -0.00301549      -0.00131546       0.00307515
H        7.34996592       7.61802433      11.25666893      -0.00470177      -0.00117274       0.00345883
H        7.44810764       6.30529077      12.02545115       0.00159048      -0.00140920       0.00273535
O        2.90570031       8.49432888       9.32122378      -0.00175884       0.00478554      -0.00142999
H        3.43886737       9.29860494       9.37710979       0.00002050       0.00372434      -0.00471758
H        3.29339179       7.95045003       8.60463718      -0.00201890       0.00030342       0.00178618
O        2.84513324       2.87883913       0.06715779      -0.02832200       0.02090728      -0.03007640
H        3.43134937       2.19291233      -0.28426574      -0.01881954       0.02648591      -0.02533109
H        2.35710169       2.47598929       0.81582093      -0.01023638       0.02266841      -0.01700008
O       11.64426007       2.15836661       5.22722531       0.00390543      -0.00359687       0.00039165
H       12.41896961       2.63459650       4.86408656       0.00578250      -0.00168957       0.00629138
H       11.08615930       2.87095349       5.57332053      -0.00171976      -0.00457716      -0.00587543
O        7.78776541       3.80551119       3.99190780      -0.02082299       0.01369548       0.00779612
H        7.44002125       2.96855981       3.61173628      -0.01494625       0.01034252       0.00987444
H        7.67622478       3.67123644       4.95431256      -0.00409859       0.01027086       0.00936439
O        5.32314182       6.90368880       4.31087857       0.01456809      -0.00946988      -0.01232404
H        6.01143196       6.28912860       4.58189086       0.03515056       0.00469607      -0.03228232
H        5.32895943       7.63216533       4.97834695       0.00968552      -0.01357827      -0.00754234
