149
Lattice="12.234175455504817 0.0 0.0 0.0 12.234175455504817 0.0 0.0 0.0 12.234175455504817" Properties=species:S:1:pos:R:3:forces:R:3 energy=-167919.765625 stress="0.0011760701891034842 0.0008089580805972219 -0.00020180403953418136 0.0008089580805972219 0.0008303948561660945 -2.964374107250478e-05 -0.00020180403953418136 -2.964374107250478e-05 0.0013128994032740593" pbc="T T T"
Sr      10.64730876      13.24534319      -0.45456716      -0.01644158      -0.01575375      -0.02329667
N        6.32793299      11.44587174       6.44106129       0.05597383       0.00600552      -0.01393493
C        5.30127495      10.88073866       6.46870938       0.04757762       0.02025935      -0.02316435
N        9.79559159       9.76611030      10.67673677       0.04931070      -0.07087646       0.04426386
C       10.13046587      10.87731630      10.75234048       0.06626763      -0.02069307       0.04055338
O        8.50329352       7.12380434       0.68496391       0.01414853      -0.00429815      -0.01261702
C        7.81364182       7.31054834       1.94034936       0.00509112      -0.00637928      -0.01719130
H        6.77963093       7.61480204       1.77488056       0.00822094       0.00183523      -0.02303787
H        8.31534423       8.04999169       2.56874727       0.00593781      -0.01450029      -0.00821811
H        7.84334484       6.35525326       2.45879886      -0.00609472      -0.01016235      -0.02350923
H        8.45543910       7.94718973       0.18443546       0.02970222      -0.00004297      -0.00730863
O        6.70068059       5.31049886       6.96154257      -0.00299478      -0.00279516       0.00876155
C        7.90616719       4.62213838       6.63234023      -0.00254440       0.00051107       0.00362825
H        7.86364567       3.57348771       6.93581709       0.00331999       0.00195134       0.00966784
H        8.76940952       5.10476109       7.09571345      -0.00128180       0.00597437      -0.00448409
H        8.03562007       4.66740610       5.55132045      -0.00946583      -0.00515001       0.00246337
H        6.81765315       5.70854195       7.83124410       0.00710960       0.01237122       0.00048229
O        4.56222793       3.83219574       9.34517715      -0.00421450       0.00687544       0.02867657
C        3.75957713       4.33030934       8.26899275       0.00008535      -0.01465248       0.01581213
H        4.35352382       4.95251982       7.59543988       0.00301298      -0.02973267       0.00471926
H        2.90648705       4.89843596       8.64934188      -0.00120604      -0.00701389       0.00118530
H        3.39672577       3.47178305       7.70381571       0.00091723      -0.02607107       0.03298677
H        5.05959645       4.58951586       9.69571608      -0.00111973       0.01192629       0.01398583
O        9.47368669      11.77003667       7.03625636       0.02039182       0.03598112       0.03740299
C       10.22859397      10.57028556       7.11709382      -0.00589472       0.01821652      -0.01321155
H        9.97900305       9.98983349       8.00981793       0.00062393      -0.00058471      -0.02406797
H       11.28064094      10.85507512       7.18941709       0.00150123      -0.00841281      -0.03614437
H       10.11074479       9.93495872       6.23128140      -0.04426471       0.04595563      -0.02541575
H        8.52911919      11.55431081       6.96644193       0.01759964       0.05562241       0.01136212
O        5.03851762       6.99587998       3.87429573      -0.00698447      -0.00620967       0.00224453
C        5.78937066       7.92160525       4.69035333       0.00159551      -0.00353132      -0.00887933
H        6.18165759       8.68395169       4.02248462      -0.00578611      -0.00563250      -0.01565607
H        6.60802900       7.40695778       5.19141418       0.00716624      -0.00131845      -0.01546083
H        5.14613941       8.41475262       5.42075289       0.00898474      -0.00124083      -0.00398099
H        4.67174187       6.32685378       4.45950422      -0.00557438      -0.00132132       0.00890619
O        1.54827242       2.27557420       3.70177925      -0.00598282      -0.01492658      -0.01339224
C        2.88843864       2.12683708       3.28668441      -0.00135720      -0.00930880      -0.00097874
H        2.94880624       2.36966948       2.22102192       0.00765529      -0.00417414       0.00082120
H        3.25025500       1.10362506       3.41778806      -0.00019305      -0.00917587      -0.00202227
H        3.56974898       2.80802573       3.80785353      -0.00807524      -0.00981364       0.00850654
H        1.39358562       1.70187251       4.47873370      -0.00568813      -0.00619240      -0.00700536
O        1.14937420      12.71059828       5.78792505       0.00867462      -0.00077185       0.00494036
C        2.42921654      12.17446448       6.15402370       0.00944962       0.00319701       0.00828082
H        2.99927633      11.84203995       5.28645098       0.01134305       0.00085650       0.01032129
H        2.33431756      11.32680069       6.83674693       0.00965378       0.00565654       0.01176134
H        2.99470049      12.96063131       6.65143298       0.00758940       0.00604898       0.00594874
H        0.69669925      12.00133007       5.30712901       0.01119938      -0.00370926       0.00651567
O        9.24548860       7.27406443       5.23302968       0.00328904       0.00371906      -0.00158827
C       10.57086146       6.82140998       5.41521750       0.00396633       0.00335729      -0.00606210
H       10.63611780       6.02221661       6.16242772       0.00610960       0.00223392      -0.00730640
H       11.24364217       7.63017138       5.72942605       0.00494546       0.00296026      -0.00623122
H       10.92724428       6.42233676       4.46403835       0.00109778       0.00485331      -0.00785762
H        8.86416121       7.38665025       6.12358134       0.00320797      -0.00393441      -0.00033417
O       10.72615396       7.36676881       9.51093002      -0.01188841       0.01210952      -0.04160798
C       10.12588286       6.14793778       9.93870662       0.00571493       0.01751982      -0.00196018
H       10.62079629       5.33774045       9.40086663       0.00401770       0.00819635       0.01158378
H        9.06197454       6.13040858       9.68436726       0.00211382       0.00541177       0.01631990
H       10.24586832       5.99226449      11.01418771       0.02238876       0.04934118      -0.00017554
H       10.42857742       8.10682232      10.08051676       0.01413497       0.01335452      -0.02767882
O        7.13119940       1.45205447       5.36241900       0.01378495       0.01632143      -0.01836990
C        5.95237896       2.25328648       5.40606844       0.00551704       0.00389323      -0.00216570
H        6.01959158       3.00178732       4.61458350      -0.00621472       0.01195285       0.00484943
H        5.86250286       2.75814944       6.36963511       0.00675753      -0.00781983       0.00393960
H        5.06222172       1.63994692       5.24360817       0.01120508      -0.00404128      -0.00335351
H        6.92066595       0.60275718       5.86677923       0.02708362       0.01200992      -0.02095809
O        1.12895327       6.59467753       8.85545426      -0.02169994      -0.00803602       0.00427258
C        1.36173550       6.98048273       7.51174232      -0.00095929       0.00154133       0.01113069
H        1.00189747       7.99285675       7.30576251       0.00417872       0.00399172       0.01447677
H        0.88225039       6.29434088       6.80164669       0.00716783       0.00858280      -0.00091746
H        2.43718984       6.96207268       7.32977770       0.00143743      -0.00035171       0.02607083
H        0.27052451       6.96236072       9.12344782      -0.02234101      -0.00147515      -0.00546697
O        7.32045107       0.74325123       2.92813210      -0.00691846       0.03090881      -0.02356394
C        6.02708935       0.23173264       2.63194931       0.00266191       0.00248234      -0.01419809
H        6.09780932      -0.44051130       1.77544876       0.01274608      -0.00071138      -0.01082918
H        5.34065442       1.04704725       2.38555893      -0.01377246      -0.01257882      -0.01621038
H        5.63134255      -0.33052407       3.48118335       0.01737291      -0.00045171      -0.00949407
H        7.33058822       1.03126918       3.90313674      -0.00145366       0.02716284      -0.02245368
O       11.10280690       6.89896151       1.48423503       0.00533003      -0.00412738       0.02284130
C       11.25054478       8.22612129       1.97028674       0.00370100       0.00266895       0.00471248
H       10.33237967       8.79395069       1.82596356       0.00298008      -0.00071695      -0.00296661
H       12.06607401       8.73254548       1.44606686       0.00320998      -0.00297526      -0.00138229
H       11.47119144       8.19951805       3.04229533       0.00286230       0.01581879       0.00515902
H       10.19077059       6.82576494       1.13857439       0.01217818      -0.00482070       0.00532103
O        5.38943453       4.61856481       2.27717632      -0.00214519      -0.00092253       0.01349241
C        4.99100545       4.58357733       0.92058254       0.00745270       0.00475499       0.01047108
H        5.77894263       4.94169971       0.24891265       0.01155186       0.01050203       0.01773919
H        4.08423640       5.17156629       0.73285507       0.00762293       0.00390418       0.00677327
H        4.78616617       3.54309295       0.66673310       0.01020439       0.00568753       0.00341355
H        5.49786678       5.53887327       2.55513431      -0.00648229      -0.00172922       0.01898679
O       10.62890695       0.95759213       3.65305032       0.00190204      -0.00178096       0.00995737
C       10.94851727       2.04648429       2.81055973      -0.01862580       0.00730255       0.01347131
H       11.36162474       2.90042228       3.35118249      -0.02035016       0.00688979       0.01468751
H       10.08279733       2.37844601       2.21657298      -0.02822837       0.00294437       0.02660358
H       11.75618704       1.70736095       2.15515281      -0.02469821       0.01702627       0.00219527
H        9.99784588       1.24056350       4.32410080       0.00846910      -0.01119064       0.01968405
O        1.55171793       6.50752313       1.90907909       0.01595527      -0.01675168      -0.01942158
C        2.04552311       5.53686748       2.81382368      -0.01896518      -0.01437059       0.00145057
H        1.87897346       4.51320119       2.46536093      -0.04068804      -0.01508701       0.01546231
H        1.60003017       5.62165838       3.81237768      -0.02866291       0.01311971      -0.00588655
H        3.11917469       5.69114211       2.89748878      -0.01651466      -0.03995081       0.01270985
H        0.59507163       6.38960222       1.80235892       0.01320454       0.00701711      -0.02166804
O        6.75655596       2.13563902       8.88986511      -0.00748670       0.01426581       0.01425013
C        7.75674650       2.71707908       9.67041216       0.00840640      -0.01131172       0.01204285
H        7.58124143       2.57270579      10.75281555       0.00672032      -0.00712808       0.01211220
H        7.87353056       3.79424110       9.48228836       0.03559797      -0.01472309       0.01269624
H        8.70819180       2.24435806       9.39231902      -0.00533800      -0.03544326       0.00649201
H        5.93881587       2.66038658       8.99313564      -0.00003801       0.02360646       0.02786970
O        4.68596954       8.69605956       1.64651295      -0.00431353      -0.01744719      -0.00734591
C        3.62497375       8.75638107       0.70630389      -0.00527534      -0.00097618      -0.00516576
H        2.66471475       8.97164460       1.18164969       0.00034449       0.01963419      -0.00337484
H        3.51169376       7.82080609       0.15117569      -0.02481768      -0.00069055      -0.00096260
H        3.85903592       9.55820804       0.00688472       0.00790320      -0.00785020      -0.00843710
H        4.45934989       8.06660503       2.34680848      -0.01117986      -0.01578066      -0.00810696
O        0.46015783       2.57016331      12.09039902      -0.02865732      -0.01133835      -0.01511534
C        0.15918343       3.95831890      11.82592401      -0.00747412      -0.00412419      -0.00175872
H       -0.92295543       4.06808563      11.90012115      -0.00540879       0.01197458      -0.00178504
H        0.47892202       4.24859345      10.82445149      -0.00027218       0.00048590       0.00197941
H        0.61985235       4.60839454      12.56857143       0.00229225      -0.02056733       0.00590657
H        1.41448285       2.48388680      12.17220580      -0.03115249      -0.02365161      -0.00087385
O        8.35265619       7.63270982       7.88419635      -0.00070024      -0.01298474      -0.00707981
C        7.41282187       8.70679620       7.72938969       0.01938251       0.00375533      -0.00491654
H        7.58855121       9.26707683       6.81228964       0.02960303       0.00225994      -0.00365272
H        7.44055027       9.39723945       8.57334330       0.03088417       0.00211132      -0.00375393
H        6.41984244       8.26490305       7.66832428       0.01140419       0.02216673      -0.00616043
H        9.16379851       7.95878931       8.29969609       0.00722256      -0.03285053      -0.00488535
O       -0.50949990       1.42452455       9.49909225      -0.04019107      -0.02442524      -0.03093046
C        0.91026943       1.47739977       9.20783131      -0.03877172      -0.00666028      -0.01993614
H        1.45648967       0.84933659       9.91391281      -0.03668261      -0.01131995      -0.02521864
H        1.25692644       2.50649061       9.29369795      -0.05062407      -0.00452250      -0.00090374
H        1.08992519       1.11886265       8.19782663      -0.02810600       0.01121194      -0.02422282
H       -0.95492831       1.02082721       8.74375389      -0.03259489      -0.02811527      -0.03431356
O        0.87651398      10.12484500       4.53445472      -0.00268364      -0.00007642       0.01965886
C        1.96014022       9.19324257       4.43502258      -0.00134192       0.00251239       0.00736091
H        2.40437872       9.19539851       3.43685078      -0.00473534       0.01148878       0.00575817
H        1.63264127       8.17643388       4.67058046       0.00213093      -0.00007275       0.00119819
H        2.71436235       9.50434203       5.15513429       0.00104667      -0.00148270       0.00667435
H        0.19702028       9.86295530       3.90762422      -0.00266798       0.00993924       0.01523229
O        6.31731988       5.95090665      10.07225864       0.00310481       0.00113893       0.00371569
C        6.04929982       7.26787413      10.57814666      -0.00972617       0.00167441      -0.00512929
H        6.90073645       7.92551324      10.39647031      -0.01409078       0.00740266      -0.00525257
H        5.81955174       7.24238288      11.64481085      -0.01453649       0.00639316      -0.00598866
H        5.18728399       7.64641045      10.03466584      -0.01019032      -0.00841579      -0.01154372
H        7.05829157       5.59921210      10.57561799       0.00284806       0.00930477       0.00997576
O        8.98739132      12.50653836       1.14658615      -0.00522509      -0.00333962      -0.00726716
C        9.33247485      11.18328458       1.56876305      -0.00475092       0.00428368       0.01605454
H        8.58404378      10.46643830       1.22242915       0.00207731      -0.00405094       0.01842852
H        9.43118353      11.15069112       2.65240557      -0.01870348       0.02152698       0.01748264
H       10.28468638      10.89301274       1.11639113       0.00271884       0.00359795       0.03400584
H        8.32519024      12.83029249       1.85975758      -0.00780478       0.00809825      -0.01370177
