149
Lattice="11.705877559460994 0.0 0.0 0.0 11.705877559460994 0.0 0.0 0.0 11.705877559460994" Properties=species:S:1:pos:R:3:forces:R:3 energy=-178589.53125 stress="0.0013729435158893466 0.0005564045277424157 0.0001892981308628805 0.0005564045277424157 0.00032498364453203976 0.0007027583196759224 0.0001892981308628805 0.0007027583196759224 0.0018015773966908455" pbc="T T T"
Sr      12.55074576      12.06101883      -0.03397162      -0.00087578      -0.00699007       0.00365620
Cl       6.06171931       9.97175172       1.88289399      -0.00076962      -0.00150669       0.00212967
O        7.02858356       9.61574374       0.81437047       0.00152493       0.00028226       0.00563204
O        4.82076715      10.48605201       1.20664362      -0.00145566      -0.01358134      -0.00351202
O        6.62081142      11.11416310       2.66522823      -0.00699598       0.00587142      -0.00198507
Cl      10.04891805      11.04662256       1.80005876      -0.00706947       0.00399986      -0.02063504
O       10.64088978      10.44487136       0.54855877      -0.00557008       0.00435454      -0.01535577
O       10.70112535      12.40891466       1.89172965       0.01017517      -0.00884563      -0.02090904
O       10.51727383      10.24734856       2.94805670      -0.02457166      -0.01595473      -0.01397127
N        9.08373726       7.67411214      11.14017189      -0.00911490      -0.02120204       0.00333393
H        8.76366088       8.45559047      11.70523824       0.00602307      -0.02399614       0.00518306
H        9.83160243       7.23853841      11.67204572      -0.00575452      -0.02878870      -0.00509425
H        8.30921883       7.01261815      11.12587190      -0.01503055      -0.01957067       0.00610612
N        2.42344570       5.26532562       2.00642614      -0.00050199      -0.00640842       0.00127198
H        2.65526156       5.03689424       2.97110394       0.00728509       0.00095021       0.00234865
H        2.11377839       6.24092150       1.96591810      -0.00584841      -0.00826240      -0.00350848
H        3.27151362       5.18543502       1.45831759      -0.00507673      -0.00080670      -0.00335306
N        6.82136622       3.45444367       8.00673155       0.02142967       0.01279563       0.00077488
H        7.67100163       3.02139152       7.66292037      -0.00116439       0.03218239       0.01042428
H        6.40908216       3.94571125       7.22210461      -0.00599339       0.01337442       0.00647696
H        6.17945103       2.71434828       8.26538454       0.00660409      -0.00204652       0.00402036
N        4.27316714       7.60596425      -0.17721991      -0.01750734       0.00751629      -0.01775488
H        3.64492348       7.30087220       0.55818965      -0.03066424       0.01132234      -0.03222388
H        4.45984646       8.58338868       0.02730402      -0.00651490       0.00173920      -0.00587243
H        5.15678155       7.12262197      -0.04472470      -0.02535940      -0.00668207      -0.00066212
N        7.09414473       6.32202594       6.43049437       0.01228321      -0.00107634      -0.00023490
H        7.74814330       5.70272756       6.89950659       0.00038216       0.00962506      -0.00296813
H        6.83327446       7.01329342       7.12856123       0.00198356       0.01243761      -0.00439505
H        7.62305325       6.82868059       5.72158556       0.01463648       0.01151281       0.00044644
N        0.26367264       3.49384289      10.22850262      -0.02844611      -0.01742020      -0.02472770
H       -0.36975944       2.78903799       9.86526424       0.01549770       0.00236420       0.00608297
H        0.55228501       3.28762908      11.17550204      -0.00563876       0.00700808       0.01428897
H        1.08755851       3.54288815       9.64114700       0.00225415       0.00344801       0.00788015
N        0.90117262       8.88955889       5.45502528       0.00114442      -0.00844324       0.00142591
H        0.12199313       9.25000463       4.91433409      -0.00208181       0.01050070       0.00037287
H        1.64329873       8.67682111       4.79674934      -0.01218174      -0.01685032       0.01055258
H        1.23642491       9.65573108       6.03061545       0.00577353      -0.00953219       0.00565832
N        7.17639593      12.21239881      -0.82919852      -0.01366892      -0.00829049       0.00129253
H        8.02542723      12.75941812      -0.93606101      -0.00529304       0.01126591       0.00236750
H        7.43359125      11.27588399      -0.52914243      -0.00178831       0.00736472      -0.00504574
H        6.70518522      12.60747241      -0.02144545      -0.01356445      -0.00462175      -0.00605444
N        2.00372616      10.91443343       2.09269713       0.00371662      -0.01253918      -0.00231934
H        1.29736092      10.51351030       2.70293441       0.00207488       0.01010104       0.00824943
H        2.51615199      11.59404101       2.64741490       0.01279904      -0.01670113      -0.00648186
H        2.68662059      10.18673365       1.89954593      -0.00835805      -0.02516666       0.00831446
N        4.68696436       1.98921344       2.21507443      -0.00492465       0.00494407       0.00700690
H        5.14190368       1.08506877       2.32594912       0.01443404       0.00901673       0.00685380
H        5.10426365       2.62441186       2.89342609      -0.00613341       0.00568940       0.00436579
H        4.97050627       2.33448711       1.30432983      -0.01192750       0.00454297       0.00872463
N        9.32078061       3.90864782       5.83922598      -0.00477487       0.00344952      -0.00208905
H        9.36672569       2.90585382       5.67944050       0.00461175      -0.00007168       0.00806732
H       10.09173743       4.36931072       5.35018477      -0.00271048       0.00120913      -0.00189278
H        8.45940417       4.22501660       5.40937648      -0.00201470      -0.00813162      -0.00887439
N        3.29675181       0.04482073      10.70188729      -0.00526077      -0.01225412      -0.00437531
H        3.73907908       0.79211040      10.17235924      -0.00433320      -0.02091622      -0.01654609
H        3.26159964      -0.73674073      10.05311399      -0.00204418      -0.01639670      -0.00052136
H        3.96966372      -0.23359408      11.41921907       0.00148645      -0.00148072      -0.01021925
N       -0.29456251       5.81652866       4.46483163       0.00870667       0.01131889      -0.00092869
H       -0.85709774       6.23049110       3.72886156       0.00010459       0.01255406      -0.00736606
H        0.63026462       5.69533735       4.06634290       0.00384781       0.01845954      -0.00230666
H       -0.17983926       6.53165450       5.17894702      -0.00145711       0.00966813      -0.00453189
N        2.30042524       3.73605920       4.75793347       0.00223464       0.00336689      -0.00282858
H        2.76743100       3.00615978       4.23001972      -0.00571034       0.00418551      -0.00995118
H        1.31312501       3.67659113       4.53364809      -0.00122350       0.00387525       0.00799397
H        2.39385634       3.47766854       5.74007614       0.01584295       0.00792552      -0.00392261
N       12.57794616       7.80467814       1.44480301      -0.00710928       0.00136295      -0.01204992
H       11.86392159       7.08000955       1.51832775       0.00484835      -0.00423575      -0.00885737
H       12.69328542       7.94510957       0.43853758      -0.02381679       0.02620338      -0.00483368
H       12.11579853       8.64557081       1.77462663      -0.01375776      -0.00470521       0.01717710
N        2.43735159       5.77410023       9.02118218       0.00067125      -0.00139359       0.01208265
H        2.60619561       6.10016434       8.07559189       0.02081596       0.00822033       0.01961908
H        2.87969129       6.44595347       9.64488038      -0.00903930      -0.00508686       0.02300195
H        1.43632613       5.86896048       9.16158687       0.00039853       0.00294017      -0.00837048
N        4.68264034      10.29625083       5.21448409       0.00797340      -0.00691408       0.01392737
H        4.39611555       9.35134529       4.96292870       0.00614970      -0.00465429       0.00641022
H        5.41661039      10.17781997       5.90469160       0.01497383      -0.01993698       0.01304219
H        5.13362184      10.70847228       4.40265572       0.00296097      -0.00280640       0.02131686
N       10.59004399       5.97711169       8.64773806       0.00489043       0.00065286       0.00779180
H        9.85697166       6.51787279       9.09821139      -0.00024904      -0.00565526       0.01529697
H       10.84186907       5.21402290       9.27271220       0.01117106      -0.00047527       0.00673445
H       10.20423436       5.55821638       7.80712071       0.00476929       0.00578661       0.01242772
N        5.34265176       0.55201435       8.30711360       0.00378719       0.00636047      -0.00770652
H        4.76994813      -0.27642886       8.19522280       0.01411500       0.00135878      -0.01774242
H        5.96597501       0.41440748       9.11101921      -0.00522388       0.01246268      -0.00039161
H        5.91805492       0.61290961       7.47408057       0.01662774       0.00894570       0.00051764
N        5.97312879       4.70060797       3.76858797      -0.00522781       0.00084615      -0.00514236
H        6.25022629       5.15669153       4.63759280      -0.00436179       0.01107355      -0.00597589
H        5.06917351       5.09714987       3.53513061      -0.01470682       0.00572284      -0.00508984
H        6.62089089       5.01762128       3.05463379      -0.01677489      -0.00346552       0.00349501
N        1.64240195       2.35623518       1.49829299      -0.00150698       0.00274396       0.00484365
H        2.59718622       2.10550124       1.78674711      -0.00235534       0.00299706       0.01482311
H        1.03650696       2.10412836       2.27624901      -0.00428282       0.01288171       0.00299799
H        1.66516517       3.38139869       1.49559202      -0.00256310       0.00135979       0.00222402
N        9.84303914       1.96072212       8.33808178       0.00403103       0.01173575       0.00098240
H        9.93206486       2.84311960       7.84055537      -0.00465260       0.01160477       0.00642128
H        9.23339777       2.14596083       9.13242613       0.00110931       0.00560417       0.00517207
H        9.36323969       1.34225612       7.68606586       0.00677131       0.00880199       0.00319435
N        7.95016892       8.06622927       3.86417967       0.02147642      -0.00841126      -0.00694597
H        8.11761634       7.51934916       3.02559150       0.01195604       0.01145792       0.01236537
H        8.29233433       8.99856009       3.64929901       0.01296467       0.00728443       0.00657974
H        6.94201191       8.14899701       3.94646513      -0.00136295       0.00635447      -0.00800544
N        3.44972346       3.15529411       7.61563272       0.00077894      -0.00757354       0.00494087
H        3.18831119       3.82758985       8.33771578       0.00124535       0.00188122      -0.00387735
H        4.09664657       3.65312701       7.01323447       0.00163522      -0.01312033       0.00052840
H        3.99264255       2.40486901       8.03781154       0.00791543       0.00238934       0.01253168
N        7.16045593       9.10051079       9.03549058       0.00928827      -0.00173768       0.00647119
H        6.48831213       9.14043991       9.79693736      -0.00110914       0.00432124      -0.00643189
H        7.21999365      10.04787013       8.67683049       0.02643928      -0.00014814       0.00641947
H        8.05053897       8.90180128       9.49177593       0.00052821      -0.01883415       0.01159368
N        9.41262712       9.06310946       6.61845939       0.02226957       0.00570805       0.00710877
H       10.29021683       8.66044206       6.93218058       0.01135933       0.00831726      -0.00406817
H        9.19160103       8.60920972       5.73492418       0.00770722       0.00799459       0.00437924
H        8.69864257       8.74740815       7.26720460       0.01579832       0.00115887       0.01208734
N       10.81649785       5.12389255       1.32777103       0.02832902       0.01214704      -0.00948726
H       11.72259476       4.88310399       1.71931338      -0.02518671      -0.00781016      -0.00110274
H       10.87412085       4.88499788       0.34294863       0.00410616       0.00083536      -0.00592905
H       10.11585572       4.51332692       1.73982264      -0.02306291       0.00025266      -0.01170733
N        8.55029612       3.34074037      10.93123555      -0.00231481      -0.00109270       0.00103478
H        8.53312904       3.41086751      11.94722416      -0.00123816      -0.00404850      -0.00149605
H        7.58908961       3.42616580      10.61528216       0.00142679       0.02513415      -0.00292088
H        8.99410539       4.19057810      10.59659485       0.01931958      -0.00937451       0.00120041
N        6.48238926       6.05997716       9.83499172      -0.00809141      -0.00551368       0.01322801
H        6.77476412       6.89394149       9.33433226      -0.00700946      -0.00467779       0.01744045
H        5.46817436       6.08465327       9.82380248      -0.00644486      -0.00670433       0.00975024
H        6.75263902       5.25362598       9.27255085      -0.00790432      -0.00223358       0.00481130
N        8.87696207       0.40181398       5.46855646       0.00847510      -0.00015341       0.00176610
H        9.59487297       0.50603091       4.75785073       0.00535179      -0.01136765       0.00319211
H        8.01032188       0.32079398       4.94476776       0.00873429      -0.00556298       0.00033314
H        9.04989685      -0.51962330       5.87817217       0.00507890      -0.00309617       0.00450378
N        8.50868666       3.00411407       2.55427148      -0.04212044       0.02011430      -0.00089917
H        7.53125405       2.87955585       2.80139659       0.03727999      -0.01288155      -0.02256818
H        8.97853814       3.22202910       3.42765231       0.00503655      -0.00291552      -0.00467650
H        8.87161045       2.10273621       2.26287576       0.01923144      -0.02515972      -0.01254905
N        0.43643123       8.42083268      10.05374602      -0.02817255      -0.00395966       0.00367275
H       -0.40751400       8.88567396      10.37501954       0.01111598      -0.00708906      -0.01604858
H        0.10739727       7.63508123       9.49323713       0.00133055       0.00052441      -0.01325257
H        0.91679734       9.03712346       9.41053485       0.01141673       0.01500925      -0.01711594
N        3.94696768       7.17050913       5.63341290      -0.02327941      -0.00285789      -0.00585058
H        4.81737256       6.77430435       5.97995079      -0.00858405      -0.00765742      -0.02083787
H        3.37200852       6.39257240       5.32467634      -0.01024934      -0.02577139       0.00240847
H        3.46618713       7.58728544       6.42280396      -0.00501339      -0.01337454      -0.01544426
N        0.15602339      -0.11346012       9.14164806      -0.00308153       0.01845293      -0.00573376
H       -0.42984368      -0.93650950       9.02649685       0.01903433       0.00760940       0.00386877
H       -0.43215751       0.66451854       8.80459793      -0.00835687       0.01321381       0.00578559
H        0.89649097      -0.20766812       8.44031903       0.01637942       0.02126503      -0.00126043
N        2.23645489       0.14728169       6.66957309      -0.00200814      -0.00102608       0.00454450
H        2.55651338       1.07491691       6.94255410      -0.00156890       0.00098592      -0.00011954
H        1.51237517       0.30794619       5.97725043      -0.00348268      -0.00637525       0.00661938
H        3.01300809      -0.29502951       6.17114460      -0.00128481       0.00209206       0.00393843
