139
Lattice="12.18611948997827 0.0 0.0 0.0 12.18611948997827 0.0 0.0 0.0 12.18611948997827" Properties=species:S:1:pos:R:3:forces:R:3 energy=-170815.421875 stress="-0.0005619598086923361 -0.00042394964839331806 0.00040487514343112707 -0.00042394964839331806 -0.0013741523725911975 -0.00040795460517983884 0.00040487514343112707 -0.00040795460517983884 -0.0013933684676885605" pbc="T T T"
Sr      11.08966617      12.45107253       0.13337995      -0.01235758       0.00317858      -0.01442807
O        5.37364204      12.18988048       9.56309141       0.00343311       0.00595340       0.00706768
N        4.36123986      12.35880167       7.38230221      -0.01977706      -0.00838456       0.01177144
C        4.86218430      12.28211140       8.45934044       0.00327387       0.00322301       0.00893831
O        3.10749205      10.68614763       1.48427208      -0.01767278       0.01377222       0.01014815
N        0.98396775      11.64063552       0.94850747      -0.01742399       0.00731862      -0.00234634
C        2.04475324      11.15510232       1.22444053      -0.01684897       0.01026344       0.00356718
O        8.42250902      10.56932594       9.59564524       0.00633270      -0.00401056       0.01080096
N        6.89380521       8.84766668       9.53684868       0.00142950       0.00163960      -0.00389260
C        6.12252115       9.33650523       8.41147346       0.00843777       0.00904432      -0.00543602
C        6.48293260       7.59121665      10.12574271      -0.00906970       0.00324264      -0.00846166
C        7.94069089       9.52743409      10.02288583       0.00113201      -0.00446159       0.00408237
H        5.08121503       9.47279797       8.70406444       0.00867894       0.01670319      -0.00867264
H        6.17536826       8.61945570       7.58772149       0.00700583       0.01036993      -0.00652678
H        6.51213697      10.30066094       8.10585997       0.01679644       0.00604993      -0.00278432
H        5.47532099       7.66473561      10.54273455      -0.00981876       0.00943226      -0.01116429
H        7.17174988       7.30888028      10.92003294      -0.01362030      -0.00367868      -0.00717025
H        6.49058644       6.78798230       9.39164485      -0.01243757       0.00489739      -0.01043177
H        8.37066642       9.01021575      10.90085913      -0.00466570      -0.00997569       0.00356913
O        6.35914222       4.53510966      10.11023772       0.00816792      -0.00437915      -0.00979133
N        7.94304689       2.90828857      10.32893185       0.00591063      -0.00598546      -0.00678701
C        9.04937424       3.80905787      10.09962736       0.00783040      -0.00766482      -0.00243419
C        8.22021367       1.48919329      10.32531729       0.00438297      -0.00602777      -0.00540228
C        6.67895121       3.35813167      10.24638956       0.00633812      -0.00478780      -0.00961593
H        9.46265114       3.62905604       9.10265759       0.00855047      -0.00578950      -0.00234345
H        9.82325944       3.64573791      10.84742042       0.00638744      -0.01123652      -0.00157022
H        8.68014744       4.82993186      10.15935600       0.00997283      -0.00715521       0.00017108
H        8.85417804       1.23697929       9.47196486       0.01030566      -0.00651970      -0.00097305
H        7.29676397       0.91964282      10.21658346       0.00445780      -0.00565009      -0.00962596
H        8.70452819       1.20209083      11.26769410      -0.00297357      -0.00697357      -0.00184417
H        5.94671390       2.53910930      10.31829810       0.00567436      -0.00423670      -0.01182072
O       12.35654113      10.73994595       7.86830117       0.03802895       0.00213003      -0.00238782
N       11.78840608       9.33625368       9.56717677       0.00935335      -0.00447788      -0.00871222
C       11.45436148      10.41843883      10.45046989       0.00852597      -0.01480193       0.00215024
C       11.64329866       7.99427019      10.07609144       0.01556407       0.00100398      -0.01363310
C       12.26464373       9.61801697       8.32752699       0.02740474       0.00572264       0.00578272
H       12.08277709      10.34610919      11.35033945      -0.00217140      -0.01778126       0.01689148
H       10.37975757      10.39866552      10.69036698       0.00307089      -0.01211004      -0.00397330
H       11.67408931      11.34473790       9.90397180       0.01667172      -0.01883878       0.00974011
H       12.21949302       7.86606759      10.99650061       0.00727412      -0.02566916       0.00062215
H       12.00713414       7.28509238       9.33569552       0.01601740      -0.01632795      -0.00620773
H       10.59221054       7.77030649      10.28705579       0.01063618      -0.01803106      -0.00617219
H       12.55763811       8.70927120       7.77622551      -0.00182156       0.02142504      -0.00019899
O        8.94544290       6.86126353       3.92928025      -0.01045078       0.00939250       0.01266348
N        9.79070785       8.14495414       5.62793932      -0.00559121       0.01762885       0.00334533
C       11.03606888       7.41661491       5.74592312      -0.00018010       0.02617482      -0.00544171
C        9.61450384       9.29413994       6.49038884      -0.00935689       0.01330215       0.00813317
C        8.86521690       7.79195126       4.72289466      -0.01030973       0.01049906       0.01139039
H       11.11862284       6.97698713       6.74409422       0.00825381       0.02430642      -0.00736371
H       11.87823065       8.09116963       5.57531144      -0.00653741       0.03303966      -0.00769042
H       11.04781191       6.62371924       5.00820850       0.00072052       0.02849102      -0.00783516
H        9.61126111       8.99590113       7.54166457      -0.00792527       0.00904636       0.00703266
H        8.66311203       9.77280805       6.26994094      -0.01100513       0.01151051       0.01106461
H       10.42528803      10.00818575       6.33826887      -0.01229957       0.01677784       0.01048742
H        7.98807847       8.46370911       4.75205740      -0.01450759       0.00477242       0.01697588
O        1.22326027       9.98697811       4.06640024      -0.02538037      -0.01270711      -0.00102425
N        2.68251465       8.24514506       3.84288249      -0.01188095       0.00089136      -0.00339733
C        1.72991777       7.36949192       3.20429434      -0.00447043      -0.00649647      -0.00384728
C        3.99856911       7.70258721       4.06981834      -0.00892255       0.01218176      -0.00255704
C        2.33843840       9.50621272       4.19553666      -0.02140856      -0.00351459      -0.00206882
H        1.55783274       6.48233306       3.81957766       0.00784108      -0.01037806      -0.00638300
H        2.11305956       7.03592971       2.23624287      -0.00226407      -0.00022681      -0.00504422
H        0.79977722       7.91609581       3.06679834      -0.01083842      -0.01658964      -0.00059987
H        3.93736294       6.80511844       4.68715769      -0.00303280       0.00901136      -0.00780112
H        4.62097904       8.44685299       4.56635616      -0.01382479       0.01323870       0.00173314
H        4.46693452       7.40311109       3.12796405      -0.00474081       0.01864047      -0.00176015
H        3.18610014      10.06556400       4.62801783      -0.02685821       0.00674307      -0.00719160
O        7.58847243       2.57986682       7.42858137       0.01515830       0.00453997      -0.01210615
N        6.13111424       4.27262437       6.92956451       0.00812614      -0.00172843      -0.01208808
C        4.92647142       3.46832041       6.97432146       0.01083215      -0.00528920      -0.00611532
C        5.96381660       5.68694594       6.70900281       0.00253846      -0.00314084      -0.01519502
C        7.34243762       3.75239995       7.18979380       0.01041773       0.00306463      -0.01445156
H        4.35875446       3.61604311       6.05321585       0.00718044      -0.00885122      -0.00378212
H        4.30867932       3.78571262       7.82069788       0.01374921      -0.00596154      -0.00441122
H        5.16774067       2.41402271       7.09745457       0.01418620      -0.00381351      -0.00573772
H        5.59262385       5.87413296       5.69997300       0.00027537      -0.00677468      -0.01511371
H        6.92247210       6.18984350       6.83215690       0.00055596       0.00121951      -0.01749602
H        5.25428785       6.10058843       7.43231982       0.00144786      -0.00418336      -0.01536834
H        8.13284203       4.52302353       7.15640967       0.00787592       0.00563258      -0.01934822
O       10.53657176       2.52683748       0.60437945       0.00507025      -0.00092721       0.01823333
N       10.86894723       4.08725225       2.23496351       0.00358374       0.00224016       0.01446820
C       10.82933763       5.23312499       1.35025995      -0.00161404       0.00023031       0.01270863
C       11.14916835       4.34671607       3.63088445       0.00144567       0.00643656       0.01382568
C       10.72009768       2.86120693       1.79925805       0.00613460       0.00095344       0.01752949
H       11.77603293       5.76893469       1.42264200       0.00067914      -0.00248921       0.00126626
H       10.00752668       5.88055754       1.65650737       0.00355700       0.00317587       0.01970172
H       10.69564815       4.89039882       0.33020661      -0.01397044      -0.00157648       0.01508039
H       12.12579455       4.82895044       3.70802300      -0.00229084       0.01355827       0.01349233
H       11.15642654       3.40861615       4.17586196       0.00905629       0.00742173       0.01532934
H       10.36496942       4.98125156       4.03622063      -0.00242373       0.00216439       0.01317607
H       10.76349583       2.10732670       2.59689804       0.00864382       0.00263758       0.01818940
O        8.55448306       3.09589979       4.08441186       0.00553596      -0.02663362      -0.03898296
N        7.82239515       1.06761655       4.84939792       0.00965170      -0.01833993      -0.01177685
C        9.14151522       0.57465974       5.16830229       0.01043078      -0.01195309      -0.00687290
C        6.69524174       0.30173317       5.33844218       0.00887294      -0.00735857       0.00533631
C        7.65991870       2.33258051       4.42127920       0.00838077      -0.02321893      -0.02462390
H        9.37736641      -0.32671521       4.59611003       0.01265887      -0.01640505       0.00281872
H        9.19597977       0.34664808       6.23526272       0.01183843      -0.00293684      -0.00605464
H        9.86525461       1.35125459       4.93806615       0.00898510      -0.01467881      -0.01674001
H        6.64532548      -0.67169618       4.83795534       0.00418834      -0.01344243       0.01893359
H        5.76806158       0.83685588       5.15241759       0.00918022      -0.00715412       0.00415071
H        6.75942191       0.15485870       6.41610408       0.01181541       0.00760675       0.00687897
H        6.59827578       2.62511683       4.39886779       0.00896633      -0.02161255      -0.02274800
O        9.19770737      11.64924580       1.27048995      -0.00426272      -0.00914009      -0.01253588
N        7.98767233       9.75472896       1.53607962      -0.00447650      -0.00605074       0.00170685
C        9.16482922       8.90178767       1.48580779      -0.00458312      -0.00617462       0.00337929
C        6.68671861       9.11683989       1.64046374      -0.00453407      -0.00430974       0.00769904
C        8.10784644      11.06723945       1.42420172      -0.00417300      -0.00699842      -0.00628470
H        9.38087515       8.59996850       0.45635033       0.00066243      -0.00134215       0.00323528
H        8.97979731       8.01776993       2.08947422      -0.00833790      -0.00825915      -0.00124587
H       10.02322178       9.43978409       1.88104405      -0.00632979      -0.00852063       0.01005536
H        6.50903906       8.48786043       0.76627652      -0.01019952      -0.00356990       0.00839522
H        5.90488383       9.87162717       1.69180597      -0.00305109      -0.00309144       0.01212670
H        6.65850483       8.48801336       2.53003560      -0.00047637      -0.00451592       0.00739783
H        7.16859904      11.62360397       1.48294201      -0.00323959      -0.00550774      -0.00696583
O        1.23411805       3.78768575      12.91552902       0.01558968       0.00942874       0.02270418
N        2.71065189       2.87213840      11.42471992      -0.00110906       0.00580791       0.00916754
C        3.50504575       4.07363015      11.29688999      -0.00026903       0.00314951       0.00179018
C        3.17105239       1.68066835      10.73782429      -0.00889726       0.00871748       0.00158692
C        1.65662106       2.85400602      12.24821248       0.00666368       0.00721508       0.02000403
H        3.81022437       4.21293258      10.26177414      -0.00998802       0.00448945      -0.00037888
H        4.41499608       4.00653467      11.89782905       0.00564519       0.00549901      -0.00766554
H        2.91729166       4.92039303      11.63961062       0.00542179       0.00369026       0.00687486
H        3.19758674       1.83274644       9.65744433      -0.01304032       0.01043442       0.00202551
H        2.50918505       0.84534340      10.96018414      -0.00675632       0.00941180       0.00485921
H        4.17643002       1.40287449      11.05184160      -0.01254156      -0.00201402      -0.00138214
H        1.19665818       1.84653309      12.27972673       0.00410745       0.00810385       0.02640473
O        4.30615668       4.47336600       3.61680889      -0.01508343       0.00151038       0.00439930
N        4.29001581       2.30703719       2.87531465      -0.00883350       0.00230853       0.00173591
C        3.16265257       1.88564124       3.68669731      -0.00673372      -0.00261486       0.00186601
C        4.91370292       1.30233221       2.04497667      -0.00520160       0.00552134       0.00077999
C        4.74897082       3.57337554       2.91736506      -0.01344948       0.00376272       0.00274235
H        3.47206014       1.14517871       4.42875006      -0.00288931      -0.00162506       0.00109184
H        2.39483908       1.44444184       3.04836997      -0.00514102      -0.00526351       0.00205594
H        2.76354241       2.75770489       4.19545292      -0.00976223      -0.00473297       0.00269771
H        5.23507301       0.45758589       2.66102512      -0.00171810       0.00629202       0.00003538
H        5.78068129       1.73148932       1.54276322      -0.00697151       0.00930399       0.00131156
H        4.21638552       0.91513389       1.29980334      -0.00369164       0.00344709       0.00048685
H        5.60613979       3.72642426       2.23787164      -0.01448649       0.00707565       0.00242108
