141
Lattice="12.179118235137448 0.0 0.0 0.0 12.179118235137448 0.0 0.0 0.0 12.179118235137448" Properties=species:S:1:pos:R:3:forces:R:3 energy=-199115.40625 stress="0.0002783894306048751 -0.0007952562882564962 -5.6032546126516536e-05 -0.0007952562882564962 -0.00025922918575815856 -0.0004921113431919366 -5.6032546126516536e-05 -0.0004921113431919366 0.0001928669516928494" pbc="T T T"
Sr      12.12535171      11.93410682       0.73187401       0.00017311      -0.01564548       0.02619823
Cl       5.67810821      11.51317600       9.61924143       0.01202011       0.00258183       0.02599674
O        4.71713653      12.13148034       8.66347643       0.01696754      -0.00110650       0.01863074
O        5.74345449      12.37799137      10.84458863       0.01128180       0.01270044       0.01904714
O        7.02929066      11.52932675       8.98858890       0.01374602      -0.00765017       0.03036773
Cl       2.60210143      10.27159246       1.18369318       0.00796470      -0.00961548      -0.01169729
O        1.29767640       9.76827330       0.60233077       0.00454450      -0.00900847      -0.00437647
O        2.38740950      11.77998413       1.28120334       0.00742599      -0.01101351      -0.00150333
O        3.67132314      10.01603629       0.22638530       0.00053799      -0.00299244      -0.02175623
O        8.70845939       8.09778023       8.94525682      -0.00130010      -0.03504923      -0.01025385
N        6.43957687       8.16180721       9.15019279       0.00053591      -0.01587749      -0.00244869
C        6.25531917       8.71658017       7.81865572       0.00184888       0.00012976       0.00431365
C        5.27768242       7.83755302       9.95247999      -0.00039633      -0.00689802      -0.00067789
C        7.67802196       7.91167026       9.58825520      -0.00067806      -0.03310915      -0.00890219
H        5.19843104       8.93839530       7.68375851       0.00272834       0.00623970       0.00899380
H        6.58229472       8.01225742       7.05338242      -0.00223936       0.00675076      -0.00357734
H        6.82174142       9.64311133       7.72982449       0.00528428      -0.00121546       0.01286369
H        4.59820437       8.68975832       9.99823853       0.01271629       0.00285757       0.01292965
H        5.59680494       7.59222002      10.96314085      -0.00023732      -0.02612012      -0.00568506
H        4.75428346       6.96551582       9.55156859      -0.01429294       0.00548148      -0.00826095
H        7.68740544       7.51349469      10.61718089      -0.00193505      -0.04671161      -0.01469696
O        6.82703422       4.75703933      10.37997883       0.00649592       0.00638890      -0.00157344
N        8.39470972       3.09101993      10.47103432       0.01161107       0.00949936      -0.00191499
C        9.46863268       3.90959819       9.96029442       0.00896601       0.01050690      -0.00589373
C        8.63483491       1.66282997      10.51841025       0.01572939       0.00981054       0.00194485
C        7.14578595       3.58422199      10.55801597       0.01123458       0.00344968       0.00004886
H        9.62904966       3.68369953       8.90150913       0.00930815       0.00601473      -0.00478405
H       10.39017910       3.69103186      10.50197180       0.00994319       0.01673102      -0.00498147
H        9.20548078       4.95879131      10.06962895       0.00528091       0.01020437      -0.01093851
H        8.92268032       1.30128109       9.52972020       0.01450511       0.00738112       0.00265485
H        7.71776507       1.14461774      10.79288857       0.01785368       0.00844552       0.00616926
H        9.42838586       1.45129867      11.24074441       0.01822433       0.01389634       0.00059363
H        6.41487895       2.79881631      10.81561402       0.01338100       0.00463408       0.00244448
O       12.26663631      11.70948430      10.48836846      -0.00718041       0.00003821       0.02236488
N       11.72703966       9.53949252      10.09951223       0.00031312       0.00177866       0.00273693
C       10.66619930       9.55123762      11.08968150      -0.00547677      -0.00798346      -0.00357318
C       12.07797634       8.24781105       9.53741333       0.01067699       0.00635362      -0.00072318
C       12.45205417      10.63195412       9.89312258      -0.00103456       0.00540632       0.01555446
H       11.06470466       9.32893685      12.08592731      -0.00985865      -0.01309966      -0.00309852
H        9.93662462       8.79596574      10.81034759      -0.00179370      -0.00840136      -0.01236526
H       10.17364964      10.52258808      11.08513179      -0.00771028      -0.00931752       0.00060434
H       12.53959357       7.61863550      10.30291080       0.01480646       0.00674877      -0.00244781
H       12.77990140       8.38627607       8.71809524       0.00800303       0.01448292      -0.00144002
H       11.16936085       7.76765778       9.17482542       0.01518023       0.00111870      -0.00456045
H       13.24290012      10.52734170       9.14081520       0.00362995       0.01272602       0.01933677
O        8.73104023       6.86127538       4.50118719      -0.00725336       0.00849164       0.01073277
N       10.03679762       8.22659443       5.79965394      -0.00162765       0.00774461       0.00637661
C       11.11581046       7.28060538       5.95418193      -0.00299619       0.00590192       0.00392350
C       10.17896292       9.50791711       6.45394925      -0.00016542       0.00553901       0.01042809
C        8.94068063       7.91516948       5.08923681      -0.00404179       0.00978267       0.01044893
H       11.23607015       7.01809765       7.00673145      -0.00225412       0.00418913       0.00340542
H       12.04914504       7.71340362       5.58492444      -0.00260842       0.00456132       0.00317367
H       10.87564468       6.38703290       5.39043215      -0.00536627       0.00713003       0.00301401
H       10.35693994       9.36455024       7.51905532      -0.00061956       0.00189328       0.01022190
H        9.25088804      10.06334872       6.35206701       0.00102332       0.00742708       0.01152942
H       10.99715952      10.07641189       6.00240956       0.00071126       0.00605610       0.01257043
H        8.21477401       8.74861916       5.07864382      -0.00316119       0.00985217       0.01195446
O        0.81669973      10.02950401       3.94016014      -0.00206387       0.00662866      -0.02326500
N        2.44540132       8.42466942       4.10169699      -0.00673947       0.00390927      -0.00532684
C        1.81054522       7.47992227       3.20319652      -0.00244126       0.00178149      -0.00617801
C        3.73932417       8.04283242       4.62662721      -0.00822571       0.00571405      -0.00036410
C        1.88480332       9.61709376       4.38022437      -0.00603181       0.00632107      -0.01424564
H        1.77553411       6.49746209       3.67595231       0.00109089       0.00166729      -0.00629908
H        2.38625700       7.38067090       2.27960115      -0.00149471       0.00409953      -0.00581822
H        0.81182966       7.83674800       2.96801888      -0.00347382      -0.00194725      -0.00705413
H        3.65257480       7.14083372       5.23432161      -0.00895645       0.00514653      -0.00134738
H        4.14322449       8.85390112       5.22984603      -0.01171545       0.00575928       0.00190231
H        4.43151211       7.81548858       3.81182350      -0.00457893       0.00745596       0.00224173
H        2.50486531      10.21299981       5.07239403      -0.00948060       0.00801730      -0.01238212
O        7.50753240       2.53229231       7.67243681       0.01347473       0.03513741      -0.01520526
N        6.00327474       4.08411371       6.92132737       0.01173273      -0.00122394      -0.00546467
C        4.83887124       3.23503960       7.03083555       0.01423587      -0.00773793       0.00501173
C        5.79603641       5.43969744       6.47184567       0.00153007      -0.00337788      -0.00784504
C        7.22823924       3.65632468       7.28890670       0.02109003      -0.02523816       0.00097200
H        4.36692082       3.11974038       6.05106177       0.01168808      -0.01529204       0.00731763
H        4.10719698       3.69981143       7.69885626       0.01564133      -0.00481220       0.00409931
H        5.12566050       2.26471431       7.43335579       0.02008559      -0.00197256       0.00980206
H        5.29697221       5.44365638       5.50112883      -0.00730546      -0.00904496      -0.00246069
H        6.76131744       5.93173491       6.37000094      -0.00090986      -0.00140438      -0.01883658
H        5.18324762       5.99426702       7.19073586       0.00745350      -0.00429542      -0.00334194
H        7.98186201       4.45600787       7.19002725       0.01000667       0.00692320      -0.01588691
O       11.19507860       2.01938016       1.02772422       0.01749060      -0.00767368       0.02080256
N       10.94573000       3.84976019       2.38432325       0.00025812      -0.00034080       0.00784072
C       10.53565917       4.78333665       1.35366407      -0.00729803      -0.01087080       0.00159052
C       11.08738475       4.39136315       3.72000704      -0.00720787       0.00855422       0.00475517
C       11.21774028       2.58440944       2.13872802       0.01123235       0.00008428       0.01632017
H       11.32335650       5.52037526       1.19512117      -0.01062489      -0.00973192      -0.00877093
H        9.61763137       5.27299018       1.68131460      -0.00756112      -0.01128918       0.00146492
H       10.37227260       4.24270643       0.42940370      -0.01014559      -0.01952922       0.00724965
H       11.93475411       5.08134330       3.74159021      -0.01435232       0.01722433       0.00228917
H       11.25767712       3.58063472       4.42356171       0.00046229       0.01465607       0.00987497
H       10.17238310       4.91068207       3.99899377      -0.01239601       0.00134164       0.00102014
H       11.47718177       2.02592891       3.04973286       0.01473247       0.00931919       0.02074882
O        8.48138750       2.97249993       4.14342192      -0.00999439      -0.01323473      -0.02624190
N        7.73825081       1.01963048       5.07324044      -0.00291564      -0.00304767      -0.00001749
C        9.05299659       0.57048339       5.46822570      -0.00015236       0.00277535      -0.00213538
C        6.60991772       0.23088940       5.52027912       0.00066763      -0.00085963       0.01258871
C        7.58091249       2.22418739       4.49779046      -0.00751418      -0.01055127      -0.01299760
H        9.35872502      -0.30471853       4.88933845      -0.00042607      -0.00044316       0.00266081
H        9.03892962       0.32133865       6.53086490       0.00463127       0.01060984      -0.00045505
H        9.75859820       1.37783715       5.29322570      -0.00272427       0.00297481      -0.01063187
H        6.63105024      -0.75943144       5.05134118       0.00159090      -0.00544995       0.02280554
H        5.68722457       0.72886646       5.22709352      -0.00166649      -0.00629462       0.01070914
H        6.61886967       0.12019197       6.60777209       0.00505022       0.01039164       0.01354355
H        6.51733663       2.48536797       4.36939669      -0.00832653      -0.01341502      -0.01106492
O       10.01632381      11.27302992       1.68022964      -0.01254487      -0.00668848       0.00138924
N        8.06425835      10.11810825       1.51722466      -0.01336335      -0.00419530      -0.00531881
C        8.67753157       8.82357717       1.75738101      -0.01642999      -0.00444213       0.00006852
C        6.63962195      10.13661683       1.23594938      -0.01192284      -0.00253651      -0.01200610
C        8.78635679      11.23027926       1.50237587      -0.01166868      -0.00519395      -0.00435294
H        8.70928627       8.24868711       0.82888535      -0.01618831      -0.00744779       0.00194538
H        8.09643927       8.26516812       2.48966197      -0.01861989      -0.00082126       0.00126758
H        9.68697017       8.96563109       2.13288727      -0.01695484      -0.00515424       0.00131922
H        6.41629791       9.45538447       0.41470156      -0.00950279      -0.00740680      -0.00864486
H        6.32621916      11.13058746       0.92853789      -0.00806713      -0.00380331      -0.01998486
H        6.07715338       9.81722001       2.11609283      -0.01688879       0.00419670      -0.01273349
H        8.20566321      12.14052640       1.31288973      -0.00935593      -0.00488022      -0.00925678
O        1.16198044       4.29646255      12.36670197       0.00052088       0.00794458      -0.00332487
N        2.67825851       3.14675869      11.09446737      -0.00059038       0.00183701       0.00146402
C        3.73936448       4.11448431      11.26749349       0.00217351      -0.00133488       0.00159054
C        2.98647534       1.94199680      10.34549458      -0.00386599       0.00171934       0.00058857
C        1.48079225       3.34515629      11.66436070      -0.00162324       0.00653499      -0.00073767
H        4.22712303       4.31809986      10.31415542      -0.00115831       0.00292405       0.00067747
H        4.50574528       3.73827854      11.94877807       0.00415969      -0.00693117      -0.00390011
H        3.31685047       5.02826067      11.67681019       0.00593226      -0.00256115       0.00803666
H        3.32179190       2.19071876       9.33904445      -0.00781554       0.00165389      -0.00094172
H        2.09831677       1.31691084      10.27025833      -0.00431955       0.00190388       0.00443051
H        3.78793350       1.37128452      10.81692738      -0.00167850       0.00231779      -0.00251234
H        0.76889206       2.53298276      11.42649498      -0.00301406       0.00761861      -0.00067240
O        4.02273899       4.79061551       3.60269034       0.00140005       0.00458431      -0.00684237
N        4.42672069       2.73438656       2.68766878      -0.00270539       0.00243637      -0.00597478
C        3.31885239       2.08708596       3.35668613      -0.00479873       0.00554265      -0.00674012
C        5.27162950       1.90540952       1.85246616      -0.00568008      -0.00045726      -0.00658957
C        4.67487600       4.04566216       2.88232800       0.00129595       0.00099498      -0.00780004
H        3.68300040       1.38115190       4.10968166      -0.00710832       0.00375935      -0.00732180
H        2.73416847       1.52451203       2.63070281      -0.00675972       0.00807780      -0.00725052
H        2.71300535       2.84881690       3.83867492      -0.00245279       0.00721177      -0.00629832
H        5.74539054       1.12168315       2.45279700      -0.01037333      -0.00383346      -0.00741202
H        6.05419986       2.51763886       1.40659816      -0.00213423      -0.00373968      -0.00472325
H        4.69189919       1.42281058       1.06310272      -0.00714245       0.00347385      -0.00800541
H        5.55369173       4.39400069       2.31444095       0.00139856      -0.00083044      -0.00685000
