150
Lattice="12.091188632310391 0.0 0.0 0.0 12.091188632310391 0.0 0.0 0.0 12.091188632310391" Properties=species:S:1:pos:R:3:forces:R:3 energy=-282314.21875 stress="0.00196159933693707 0.0002929699112428352 -8.809751670924015e-05 0.0002929699112428352 0.0006811830098740757 -0.00021647043467964977 -8.809751670924015e-05 -0.00021647043467964977 4.046386675327085e-05" pbc="T T T"
Sr      13.71214745      12.18889263       1.54778071       0.00006717       0.00561422      -0.01155115
O       12.17840759      11.30333816      -0.04200947      -0.00057021      -0.00238788      -0.00689459
O       12.26078112       8.46233910       0.09999893       0.01585358       0.00049245       0.00408405
O        9.79256906       9.94698518       0.83925571       0.00700939      -0.00797629      -0.00099438
O       12.32336417      10.30029790       2.43461925       0.00356930       0.00812848      -0.00081718
Mo      11.54429937       9.89017145       0.84341860       0.00643933      -0.00031611       0.00022137
O        2.76099879       1.58678263      11.76502263       0.00191835       0.00844496       0.00824243
C        4.14941857       1.50514558      11.42310744      -0.00470411      -0.00731210      -0.01104413
H        4.74524845       2.17076185      12.05104483       0.01055923      -0.00285918      -0.02988462
H        4.30683733       1.76868582      10.37766248      -0.01866366      -0.02543134      -0.01759216
H        4.47436152       0.48028726      11.58589652      -0.01026762      -0.00796118       0.00002605
H        2.41276400       2.35373140      11.28870407       0.00421312       0.01360849       0.00882360
O        4.89012434      10.19334732       7.36021871       0.02768220       0.00297967       0.01409191
C        5.23894473       8.91790951       6.80137099       0.01488784      -0.00516545      -0.01082713
H        4.80081733       8.09477410       7.36739398      -0.00271098       0.00322670      -0.00752024
H        6.32266305       8.78544258       6.74276498       0.01120856      -0.02043493      -0.00163366
H        4.83672062       8.89359783       5.79113461       0.01771961       0.00403833      -0.00603306
H        4.73495629      10.09555345       8.30374594       0.03528053       0.00727522      -0.02282876
O        7.99450850       6.73451189       9.93848133      -0.00187951       0.01267263       0.00229037
C        6.77191805       7.45894870       9.84972881      -0.00630823       0.00532770       0.00186746
H        5.94340133       6.81387257       9.54108470      -0.00258905       0.00017005       0.00253340
H        6.85711408       8.28955681       9.14491530      -0.01121829       0.00518861       0.00087976
H        6.56495411       7.86510047      10.83801792      -0.00840198       0.00516454       0.00162649
H        8.18061313       6.39262136       9.04843422       0.00152013       0.01456646       0.00233987
O        7.24483599       9.67081961       1.73433090       0.01788433       0.00508094       0.00789610
C        7.00788164       8.28504251       1.71557918       0.00356099       0.00788105       0.01289547
H        7.46030321       7.78132574       2.58081592       0.00802460       0.00527808       0.00932232
H        7.39643639       7.81896827       0.80206622      -0.01140517       0.00146773       0.00939935
H        5.92592830       8.12166735       1.73996016       0.00213236       0.01888927       0.02617993
H        8.18556106       9.80656997       1.46378317       0.01889284      -0.00377434       0.00318146
O       12.57693562      10.53157929       7.94881059      -0.00422612      -0.00867605      -0.00061524
C       12.13202761      11.83560030       7.63020266       0.01337692      -0.00262040      -0.00161944
H       11.25524763      11.81898284       6.97117900       0.01792532       0.00854032      -0.00826940
H       12.91432653      12.43553731       7.14987823       0.02451575      -0.01178430       0.00514975
H       11.85241822      12.31762360       8.56762301       0.01212753      -0.00062206      -0.00306669
H       12.86844389      10.10526397       7.13119552      -0.00137208      -0.00946920       0.00100298
O        6.85301244       4.41373341      10.85196032       0.00855595       0.00569542      -0.00210601
C        6.19582014       4.76999634      12.05512903       0.00473274       0.00084775      -0.00262827
H        6.80523244       5.46359168      12.64495211       0.00178365       0.00042057       0.00119594
H        6.03894594       3.87153349      12.65356211       0.00482595      -0.00132564      -0.00574662
H        5.21833436       5.23474923      11.87085231       0.00454926       0.00003339      -0.00338031
H        7.38432455       5.19053150      10.58433759       0.00642741       0.00832619       0.00048427
O        7.17308410       5.28535884       7.75954305      -0.00458874       0.00292802       0.00476921
C        7.20467151       4.61172262       6.50241043      -0.01126436      -0.00452352       0.00899130
H        6.20870341       4.27252144       6.20899444      -0.01204219      -0.01018206       0.01754213
H        7.88350297       3.75487627       6.52224974      -0.00827844      -0.00230163       0.00893061
H        7.56450484       5.32348662       5.76584722      -0.01891397      -0.00736490       0.00191401
H        6.88000313       4.65652407       8.43011726      -0.00000301       0.00580764       0.01103985
O        2.63934175       3.96342711       9.92205673      -0.01374954      -0.00593415       0.02343927
C        3.56341775       4.31156603       8.88458498      -0.00808766      -0.00584905       0.02805474
H        3.65240079       5.39565949       8.77720031      -0.01354524      -0.00580204       0.02414511
H        3.28168914       3.87319137       7.92288176       0.00003780      -0.01155391       0.02812466
H        4.53485914       3.92246846       9.18251494      -0.00804198       0.00054727       0.03638725
H        1.86082498       4.51829877       9.82791419      -0.01577321      -0.01092413       0.01626942
O        8.47564505      10.77860922       7.81234187      -0.01678252       0.00422040      -0.00376794
C        9.35391999       9.65952823       8.06835401      -0.00697193       0.01006031      -0.00783630
H        9.27352561       8.93421067       7.26139058       0.00471483       0.01652628      -0.01536399
H        9.11367436       9.18792400       9.02481233      -0.00923435      -0.00133775      -0.01390314
H       10.37237531      10.03554885       8.10774112      -0.01091990       0.01811326       0.00217772
H        7.61326367      10.42303406       7.57388699      -0.01183861       0.00116497      -0.00697516
O        5.39674976       5.55796385       3.41987659       0.01247478       0.00990415      -0.01614845
C        5.27108665       6.65078744       4.32537650      -0.00189461       0.00144495      -0.00191499
H        4.56136730       6.34552541       5.09386657       0.02259780      -0.02591947       0.00694026
H        4.87981317       7.54330117       3.82760827      -0.03715232      -0.00338599       0.01414077
H        6.22348362       6.90971925       4.79632042       0.00112587       0.02449271      -0.02075827
H        5.94742387       5.85461327       2.68981413       0.04580633      -0.00362027       0.01825142
O        2.38125548       2.00946735       3.40611382       0.00560373      -0.01051196      -0.02631289
C        2.94471871       3.18785777       2.78932484      -0.00173753       0.00439773      -0.00505173
H        3.75924067       2.90784981       2.11714242       0.00895405       0.02292250       0.00052474
H        3.32820566       3.87698301       3.53927226      -0.01903138      -0.00212386       0.00981230
H        2.15914414       3.67864537       2.21840419      -0.00168315       0.00358702      -0.00619712
H        2.84126504       1.87558696       4.24446131       0.00631115      -0.02075841      -0.02813762
O        2.51115199      10.30574553       5.88310258       0.01134910       0.00153741       0.00396234
C        2.79489450      10.83687912       4.61107005       0.01058426      -0.00952232      -0.00080520
H        3.68778739      10.38503939       4.15469442       0.00497869      -0.01968104      -0.00158592
H        2.94641847      11.92370947       4.65799587       0.02016791      -0.01032475      -0.00812894
H        1.93781248      10.60674906       3.97252938       0.00624883      -0.00580335       0.00341108
H        3.26755875      10.46746801       6.47036748       0.01507536       0.00341324      -0.00007439
O        8.54526086       8.41273705       5.04979495      -0.00215244      -0.00469720      -0.00759025
C        9.38211272       7.28576741       5.26223478      -0.00375351      -0.00488251      -0.00220396
H        9.15739637       6.84787134       6.23927472      -0.00801730      -0.00254333      -0.00200772
H       10.43687683       7.56232858       5.24061544      -0.00321424      -0.00625403       0.00068583
H        9.22041207       6.52442275       4.48976410      -0.00196011      -0.00659218      -0.00117210
H        9.12437453       9.11172527       4.68731929      -0.00171808      -0.00535415      -0.00802650
O       10.99105394       6.36906973       8.32219672      -0.00400877       0.01893574       0.00925434
C       11.54176259       6.55598619       9.63462720      -0.00202931       0.01094035       0.01101969
H       12.57929342       6.89902749       9.59239822       0.00494921      -0.00963922       0.01112317
H       11.47012351       5.64063571      10.22836228      -0.02020175       0.01225752       0.01105466
H       10.95709053       7.32673859      10.12561430       0.01309365       0.02235168       0.00984508
H       11.36153910       5.56887724       7.93977031      -0.02209443       0.01348111       0.01240747
O        4.77781067       2.01528888       5.84092670      -0.00155091      -0.02733231      -0.00063252
C        5.73883027       1.88489940       4.80639598       0.00012951      -0.01102434      -0.00100121
H        5.30435806       2.29357912       3.89636355      -0.00428291      -0.01141830       0.00057016
H        6.01479950       0.83321313       4.65357741       0.01210185      -0.00701809      -0.00700990
H        6.66048432       2.42984962       5.01985241      -0.00599059      -0.00145617       0.00158589
H        5.20660226       1.63928806       6.62553123       0.00266686      -0.02738075      -0.00236668
O        0.47496325       7.88529082       6.47190737       0.00246799      -0.00069314      -0.00046360
C        1.72074557       7.33566203       6.82933550       0.00225425       0.00059937       0.00298828
H        1.69632573       6.23641539       6.87389328       0.00165775       0.00078088       0.00884122
H        2.07962919       7.71839736       7.79493926       0.00168686       0.00571759       0.00129712
H        2.43746643       7.63323085       6.06595477       0.00288306      -0.00359125       0.00191849
H       -0.18479946       7.56939872       7.10973858       0.00313938       0.00711675       0.00437056
O        5.11522875       0.22802527       2.17456155       0.00896750       0.00125016      -0.01483911
C        6.47057437       0.62270649       1.90025527       0.00762377       0.00588880      -0.01319256
H        7.17076455      -0.04635503       2.39824838       0.00957564      -0.00021318      -0.02441120
H        6.64106899       1.65923978       2.20125964       0.00722719       0.00224519      -0.00030731
H        6.61870331       0.54153720       0.82780355       0.00444669       0.02050695      -0.01521456
H        5.03386403       0.14896189       3.13051008       0.01046488      -0.00511967      -0.01358944
O        8.40399443      11.85374148      10.52338591      -0.00651199       0.00311148       0.00437665
C        7.52858743      10.78111024      10.80747209       0.00084862      -0.00337407       0.00324813
H        8.05871549       9.82677996      10.86741898       0.00752974       0.00025508       0.00267592
H        6.72723969      10.70779874      10.05627000       0.00213310      -0.00843354       0.00198817
H        7.08239523      10.95280243      11.78294797      -0.00114125      -0.00695545       0.00310197
H        8.74163618      11.68757894       9.63437933      -0.00343876       0.00574154       0.00542442
O       10.76580541       7.71399422       2.41060957       0.01156887       0.00249645       0.00215214
C       10.17145012       6.72335877       1.58496154       0.00180024       0.01257309      -0.00335410
H       10.91223475       6.25148450       0.93516437      -0.00004697       0.00191332       0.00208697
H        9.42712671       7.20702064       0.95744784       0.01387310       0.02446228      -0.00885503
H        9.68202946       5.94851821       2.19043186      -0.01439039       0.01926789      -0.00767219
H       11.66447212       7.38603772       2.59126939       0.01116686      -0.00304426      -0.00624096
O       12.03633804       2.02937754       1.68237235      -0.01399305       0.01298386       0.02385724
C       10.83190035       2.08158835       0.89461531      -0.01702744      -0.01504639      -0.01304976
H       10.44112262       3.09937425       0.86636703      -0.01008688      -0.00790483      -0.02141090
H       10.08196532       1.39180647       1.28242344      -0.01769440       0.00101814       0.01294689
H       11.10204562       1.75545645      -0.10521257      -0.02229473      -0.03098446       0.00452647
H       11.88997644       2.46096457       2.52890833      -0.00478029      -0.00897244      -0.03705454
O       10.46013769      10.31965073       4.43631218      -0.00546795       0.00083846      -0.00023830
C        9.99612204      11.62366251       4.16511911      -0.00676683       0.00057775      -0.00032288
H        9.63428661      11.71406765       3.13421029      -0.00696869       0.00029484      -0.00011405
H       10.78334667      12.37173011       4.32868237      -0.00684777       0.00126252      -0.00065060
H        9.17758098      11.83675194       4.85385304      -0.00660786       0.00017485      -0.00000539
H       11.15006554      10.12275716       3.76391587      -0.00339027       0.00208432       0.00204352
O        1.15331681       6.69930851       1.85399309       0.00604883      -0.00450918      -0.00410825
C        2.26274581       7.17186675       2.59112479       0.00500801       0.00055031      -0.00491685
H        2.14023778       8.21986229       2.88680789       0.00645587       0.00437361      -0.01774157
H        3.19949143       7.06226822       2.03172776       0.00668195      -0.00877077      -0.00024477
H        2.34672801       6.56390047       3.49284193      -0.00044018       0.01103847       0.00279292
H        0.93366432       7.34325822       1.13249713       0.00654577      -0.00545426      -0.00568589
O        6.91941931       1.20438682       7.56801674      -0.00773609      -0.00283998       0.00545849
C        7.10785443       2.04547071       8.70480226      -0.01118922       0.00089395       0.00321899
H        8.01919093       2.64575114       8.61851353      -0.00828066      -0.00307478       0.00610414
H        7.16351745       1.47781234       9.63320800      -0.01797505       0.00406080       0.00567371
H        6.25035302       2.71492063       8.75020304      -0.00903210       0.00423071      -0.00433809
H        7.57829061       0.49721251       7.60117370      -0.01001340      -0.00494742       0.01095513
O        3.50162662      10.57834125       0.97828528      -0.00108653       0.00109863       0.00249311
C        3.68429984       9.52301793       0.03427154      -0.01066987       0.00343552      -0.00186193
H        4.46254736       9.78544557      -0.68791488      -0.02394171       0.00872193      -0.01457727
H        2.73526885       9.36839011      -0.47513539      -0.01831961      -0.00057474       0.01299064
H        3.96898196       8.59806914       0.53820235       0.00203059       0.00399771      -0.00786379
H        4.35472797      10.89217407       1.33167766       0.00266236       0.00167870      -0.00528880
