146
Lattice="12.499736547612816 0.0 0.0 0.0 12.499736547612816 0.0 0.0 0.0 12.499736547612816" Properties=species:S:1:pos:R:3:forces:R:3 energy=-151474.03125 stress="-0.00011787060793722048 0.0002509014739189297 -0.0001641007183934562 0.0002509014739189297 -8.793726010480896e-05 5.690211219189223e-05 -0.0001641007183934562 5.690211219189223e-05 -0.0006458265706896782" pbc="T T T"
Sr      12.74304515      12.32792241      -0.33165619       0.01157001      -0.01118164      -0.00629358
S       11.18670873      12.16674399       1.78981426       0.00864808       0.01430500      -0.01091646
O       10.37026275      12.05495916       2.96066710      -0.00105226       0.04113652      -0.01628387
O       10.61056184      13.00743120       0.67125091       0.02999747       0.01469499      -0.02271605
O       12.55187633      12.78342952       2.03137180       0.01596284      -0.00739032      -0.00633803
O       11.50064362      10.84440995       1.11891408      -0.01198584       0.00423384       0.00566792
C        5.32747651       3.33205330      11.69843586      -0.00369469      -0.01248986       0.01040204
C        6.61232127       4.15235047      11.67108343      -0.00611126      -0.00853837       0.01251637
C        4.05665657       4.17168628      11.76418198      -0.00633599      -0.01690680       0.01696642
C        7.86491078       3.28928239      11.56495405      -0.00328326      -0.00385773       0.00630866
C        2.78037940       3.33029613      11.79326483      -0.00328019      -0.02146861       0.01975041
C        9.15062279       4.10181499      11.50299622      -0.00662437       0.00124294       0.00403259
H        5.29418332       2.69805692      10.80438364      -0.00366178      -0.00792940       0.00719145
H        5.35604700       2.64485026      12.55125242      -0.00089787      -0.01667306       0.00680581
H        6.67175776       4.77559453      12.57181359      -0.00656871      -0.01292886       0.01564533
H        6.58082277       4.84971735      10.82508712      -0.00962772      -0.00453533       0.01586783
H        4.08872966       4.81478023      12.64999481      -0.00591077      -0.01895876       0.01828304
H        4.02895723       4.84802661      10.90417293      -0.01182510      -0.01493369       0.01854452
H        7.90727588       2.60194702      12.41524620       0.00250269      -0.00565544       0.00452107
H        7.78755455       2.66060892      10.67089036      -0.00354555      -0.00191876       0.00494644
H        2.74207191       2.66708090      10.92326981      -0.00251025      -0.01875436       0.01728523
H        1.88225494       3.95111673      11.77603304      -0.00600696      -0.02548870       0.02215630
H        2.74513983       2.71578105      12.69840743      -0.00207539      -0.02209682       0.02002057
H        9.16438345       4.75376966      10.62592353      -0.01224285       0.00395580       0.00611950
H        9.25965934       4.73438161      12.38648440      -0.00653204       0.00003830       0.00478873
H       10.02567307       3.45162926      11.45408526      -0.00394970       0.00523202      -0.00015347
C        4.98781955       8.13650000       3.33867167      -0.00053453      -0.00185958      -0.00494544
C        3.62098074       8.36265361       2.70838516       0.00297111       0.00018787      -0.01185860
C        5.13143809       6.79853268       4.05041843      -0.00311351      -0.00336552      -0.00744834
C        3.53278923       9.70871114       2.00170335       0.00892359       0.00329196      -0.00664572
C        6.52730259       6.58405082       4.62038226      -0.00478807      -0.00335588      -0.00316398
C        2.15472059       9.99063737       1.42265232       0.01351944       0.00979668      -0.01486490
H        5.76258534       8.22103489       2.56802741       0.00356299       0.00060105      -0.00051969
H        5.18776215       8.94602392       4.05082691      -0.00469794      -0.00364491      -0.00171000
H        2.84778852       8.30653546       3.47988636      -0.00150335      -0.00235082      -0.01638284
H        3.40157117       7.55662006       1.99779115       0.00708704       0.00302735      -0.01628944
H        4.39023985       6.73763861       4.85537438      -0.00598215      -0.00507862      -0.01029086
H        4.88587994       5.98935446       3.35389562      -0.00034483      -0.00226244      -0.00977308
H        3.79161279      10.50112267       2.71149737       0.00559763      -0.00081369      -0.00098497
H        4.28925708       9.74969054       1.21129098       0.01449372       0.00620692      -0.00109154
H        7.27261090       6.52986671       3.82468502      -0.00241178      -0.00334512      -0.00098245
H        6.59225588       5.66233681       5.20051098      -0.00633164      -0.00315805      -0.00267003
H        6.81379902       7.41038938       5.27442020      -0.00677331      -0.00300163      -0.00272712
H        1.86031135       9.23608434       0.68758855       0.01638325       0.01450031      -0.02090685
H        1.37864102      10.02702627       2.18789823       0.00842530       0.00846941      -0.01993954
H        2.15956610      10.97962010       0.94231506       0.02187268       0.01229688      -0.00952736
C        3.17276146       2.78125749       3.73454162      -0.00297263      -0.00301586      -0.01076001
C        4.59787952       2.95619287       4.24787489      -0.00333752      -0.00837518      -0.00743216
C        2.11482537       3.18331027       4.75468943      -0.00330763      -0.00646056      -0.00949556
C        5.66511902       2.60417447       3.21858031      -0.00000487      -0.00644356      -0.00482786
C        0.68619383       3.01624883       4.25963439      -0.00242451       0.00036471      -0.01442547
C        7.08576684       2.82083729       3.72236756      -0.00085422      -0.00632291      -0.00196642
H        3.04194258       3.38164993       2.82538397      -0.00146063       0.00290784      -0.00702250
H        3.01203202       1.73786360       3.43816552      -0.00559898      -0.00100780      -0.01666616
H        4.74471685       2.33546455       5.13988065      -0.00774450      -0.01203118      -0.00933838
H        4.73731139       3.99231827       4.57771295      -0.00227777      -0.00981104      -0.00340915
H        2.25663524       2.59146355       5.66314699      -0.00650102      -0.01229587      -0.01261401
H        2.28701228       4.22551226       5.04327365      -0.00108324      -0.00871408      -0.00282068
H        5.53510809       1.55973010       2.91670962       0.00070187      -0.00546211      -0.00811704
H        5.50108394       3.20351512       2.31599169       0.00336246      -0.00475451      -0.00392395
H        0.50399122       3.62713168       3.37275081       0.00135472       0.00735269      -0.01028287
H       -0.03189400       3.32369669       5.02247403      -0.00404304      -0.00353993      -0.01410276
H        0.47340540       1.98132650       3.98974831      -0.00122087       0.00332466      -0.02668508
H        7.27770373       3.87932131       3.90469283       0.00149586      -0.00534846      -0.01077680
H        7.24807129       2.29669495       4.66634233      -0.00645728       0.00353982       0.00436707
H        7.82914729       2.46086644       3.01028000       0.00052239      -0.01395357       0.00305946
C        8.24573294      10.16502680       4.59672886       0.00507769       0.00851122      -0.00508094
C        9.36273746       9.17839974       4.28459881       0.00599015       0.01042632      -0.00800031
C        8.32766428      10.75751207       5.99682357       0.00375187       0.00370973      -0.00291476
C        9.31078775       8.66116307       2.85244608       0.00154674       0.00872169      -0.00720266
C        7.18351404      11.71703826       6.29633193       0.00269961       0.00152037      -0.00002231
C       10.45091738       7.71092363       2.51991940      -0.00232190       0.00448835      -0.00874080
H        8.27964638      10.97378877       3.86279908       0.00544049       0.01107430      -0.00242725
H        7.27708868       9.66784340       4.47332471       0.00536737       0.00828946      -0.00740343
H        9.31651982       8.33290661       4.98474270       0.01116485       0.01151857      -0.00644621
H       10.32692807       9.67117666       4.44819982       0.00545064       0.01318315      -0.01279768
H        8.32607796       9.94711620       6.73280973       0.00418702       0.00125960      -0.00547244
H        9.28472550      11.27613041       6.11022961       0.00317988       0.00435114      -0.00064726
H        8.35049361       8.16451385       2.68186054      -0.00076884       0.01267810      -0.00538219
H        9.34815177       9.51526852       2.17316360       0.00415947       0.00814766      -0.00768274
H        7.18539158      12.54927645       5.58988624      -0.00025450       0.00209464       0.00071999
H        7.24849955      12.13164498       7.30446552       0.00412351       0.00098893       0.00005437
H        6.21741055      11.21406998       6.20566457       0.00330471       0.00007743       0.00186097
H       11.40611817       8.23407832       2.58721968      -0.00070857       0.00189890      -0.01279830
H       10.47989626       6.86100031       3.20743882      -0.00257936       0.00560223      -0.00736009
H       10.36571289       7.31709420       1.50541240      -0.00646940       0.00293114      -0.00780492
C        2.12972075       9.71757432       7.40264267      -0.00418264      -0.00220481       0.00442857
C        1.95495958       8.87518083       6.14685344      -0.00396371       0.00197724       0.00143534
C        3.19517221      10.79632802       7.25617047      -0.00339624      -0.00217749       0.01002872
C        0.90805822       7.77771396       6.29081444      -0.00171211      -0.00051887      -0.00052381
C        3.43553539      11.57604400       8.54060984      -0.00315352      -0.00897186       0.01424795
C        0.76210350       6.92748934       5.03783031       0.00059310      -0.00051583      -0.00085828
H        1.16982922      10.18194532       7.66571613      -0.00409958      -0.00260681       0.00548607
H        2.39536927       9.06202749       8.24152256      -0.00517184      -0.00563763       0.00204617
H        2.92025051       8.42343036       5.88649792      -0.00328660       0.00473833      -0.00073497
H        1.68938531       9.52574258       5.30529596      -0.00613575       0.00411996       0.00383881
H        4.13168446      10.32780342       6.94210090      -0.00387025      -0.00100811       0.00675367
H        2.91489807      11.48067062       6.44822291      -0.00314997       0.00276268       0.01424420
H        1.17420822       7.14132661       7.14267776      -0.00076884      -0.00040472      -0.00077862
H       -0.05667947       8.23333459       6.53872338      -0.00297412      -0.00307320      -0.00076991
H        2.53791631      12.13512635       8.82764593      -0.00291350      -0.00868686       0.01500898
H        4.24295202      12.29972645       8.42860611      -0.00168531      -0.00981101       0.01898291
H        3.69156051      10.90663146       9.36562515      -0.00601637      -0.01270628       0.01213400
H        0.46950973       7.53918323       4.18347805      -0.00053483      -0.00120346      -0.00097656
H        1.70449624       6.43683536       4.78408159       0.00152521       0.00120688      -0.00060813
H        0.00591730       6.14993882       5.15925458       0.00235721      -0.00226834      -0.00087824
C       10.66097135       7.28933213       9.01757996       0.00758415       0.00076169       0.00703961
C        9.93087606       6.40305027       8.01463065       0.00628692       0.00189751       0.00703758
C        9.94129968       8.61169246       9.25899803       0.01045495       0.00273159       0.00468004
C       10.62072276       5.07364853       7.73002099       0.00442737       0.00134948       0.00527671
C       10.67640993       9.54717251      10.21253334       0.01199946       0.00304553       0.00319999
C        9.83170234       4.20348226       6.75896428       0.00274211       0.00413606       0.00417730
H       10.77138849       6.75393904       9.96771065       0.00520995       0.00137144       0.00767729
H       11.67599333       7.48862006       8.65818129       0.00847420      -0.00207241       0.00785302
H        9.80319598       6.95154910       7.07247487       0.00633024       0.00264403       0.00747436
H        8.91865454       6.20581285       8.38383883       0.00618944       0.00281389       0.00752288
H        9.78867767       9.11593861       8.29947544       0.01193561       0.00140941       0.00370654
H        8.94260074       8.40897501       9.65871322       0.00978431       0.00560544       0.00448553
H       11.62259028       5.26302957       7.32963304       0.00455779       0.00045571       0.00511414
H       10.76694980       4.53441682       8.67168927       0.00399343      -0.00027172       0.00441438
H       10.81030222       9.09891919      11.19869859       0.01088181       0.00510637       0.00423574
H       10.12007968      10.47886802      10.35121173       0.01383334       0.00451896       0.00094137
H       11.66862912       9.78738917       9.81131499       0.01260158       0.00002839       0.00275452
H        8.83252895       3.99317680       7.14920513       0.00313894       0.00368898       0.00485267
H        9.70670113       4.70236233       5.79483627       0.00188684       0.00658207       0.00558330
H       10.32269691       3.24718151       6.57431583       0.00185025       0.00434437       0.00098787
C        4.77994606       4.63652275       8.09982537      -0.00637144       0.00455773       0.00345578
C        4.76145208       6.15731168       8.14598119      -0.00650376       0.00471681       0.00156280
C        3.38451525       4.02810615       8.11361101      -0.00601017       0.00341159       0.00355612
C        6.14681555       6.78060653       8.23161243      -0.00668889       0.00506271       0.00557204
C        3.40393731       2.50900558       8.14577643      -0.00453964       0.00320578       0.00177556
C        6.11623304       8.29783223       8.14016210      -0.00627472       0.00492114       0.00238222
H        5.31358918       4.30393666       7.20111908      -0.00596131       0.00370156       0.00400564
H        5.35568139       4.25090889       8.94903097      -0.00655314       0.00565703       0.00412402
H        4.16211915       6.48943514       9.00256840      -0.00922315       0.00583687      -0.00079805
H        4.24613420       6.53805644       7.25548158      -0.00359495       0.00356954      -0.00065514
H        2.83588589       4.40721100       8.98212248      -0.00581418       0.00204385       0.00439954
H        2.83251228       4.37348417       7.23550596      -0.00703293       0.00378300       0.00423712
H        6.62379744       6.47337515       9.16839177      -0.01052063       0.00698560       0.00812849
H        6.77159659       6.37836261       7.43054846      -0.00333115       0.00358072       0.00879726
H        3.93128252       2.10150422       7.28106158      -0.00621215       0.00493707       0.00000104
H        2.39640542       2.08648120       8.14492934      -0.00415570       0.00235746       0.00355687
H        3.92139140       2.14423240       9.03565700      -0.00202558       0.00273351       0.00018981
H        5.66206768       8.61721684       7.19909522       0.00373493       0.00315371      -0.00298229
H        5.52760398       8.73099292       8.95235223      -0.01528269       0.00618599      -0.00482611
H        7.11640339       8.72821778       8.18618968      -0.00706574       0.00574157       0.01238911
