150
Lattice="12.895523613702247 0.0 0.0 0.0 12.895523613702247 0.0 0.0 0.0 12.895523613702247" Properties=species:S:1:pos:R:3:forces:R:3 energy=-205067.015625 stress="-0.00025219048256985843 -4.730298314825632e-05 -0.0001557771538500674 -4.730298314825632e-05 0.0005369808059185743 -0.00012191667701699771 -0.0001557771538500674 -0.00012191667701699771 9.825252345763147e-05" pbc="T T T"
Sr      12.58723293      13.51341942      -0.30539881      -0.01839681       0.01678491       0.00680646
P       11.46027945      11.93382161       5.50314134       0.00095261      -0.01047775       0.00126506
F       12.59839313      13.07484798       5.64094358       0.00280976      -0.01139176      -0.00438149
F       12.58767166      10.79632058       5.74156946      -0.00044662      -0.01107508       0.00610226
F       11.18644097      11.98509392       7.10447276       0.00139622      -0.00251160       0.00069547
F       11.71697690      11.87128477       3.89891391       0.00084775      -0.01825311       0.00124168
F       10.34455288      10.77480418       5.35172932      -0.00147289      -0.00944984       0.00663285
F       10.33695085      13.07263665       5.28099711       0.00251800      -0.00975472      -0.00407347
P        1.99663366      12.09346252       7.79442268      -0.00238618       0.01404471       0.01235275
F        3.20298782      12.06544372       8.77174894      -0.00561112       0.00576597       0.01693761
F        1.51055998      10.68954277       8.33946321      -0.00087501       0.00731926      -0.00377968
F        0.18347135      12.15779138      11.06331308      -0.04650002       0.00149678       0.00952574
F        2.50302711      13.49620692       7.23111785      -0.00293630       0.02213731       0.03134914
F        2.18692556      11.47827139       6.39136117       0.00392067       0.03095810       0.00650072
F        0.70147830      12.75804644       8.28422022      -0.00677985       0.00550959       0.01297300
C        5.02479073       5.03542260       8.53603441       0.00268470      -0.01223540       0.00508255
C        6.38756631       5.30814196       8.41134404      -0.00094707      -0.01067802       0.00149965
C        4.58380563       3.73581841       8.28408696      -0.00011134      -0.01198639       0.00265008
C        4.05344571       6.12106881       8.89088289       0.00173312      -0.01444495       0.01229184
C        7.28129339       4.31415991       8.03384786       0.00163350      -0.00928318      -0.00618476
C        5.47404774       2.73831888       7.90266363       0.00275695      -0.01011533      -0.00468891
C        6.82858855       3.02485060       7.77593738      -0.00191230      -0.00848493      -0.00841160
H        6.75616423       6.30795098       8.61672359       0.00102109      -0.01163392       0.00360566
H        3.52998949       3.50109583       8.39061773       0.00232470      -0.01328177       0.00538457
H        3.13392468       5.70531114       9.30346039       0.00291069      -0.01635908       0.01240161
H        4.47493339       6.82169994       9.61291918       0.00363004      -0.01782231       0.01468007
H        3.78127004       6.69657091       8.00349569       0.00012095      -0.01007025       0.01553124
H        8.33381974       4.55165324       7.94760455      -0.00091705      -0.00794187      -0.00898881
H        5.10881818       1.73711269       7.70602072       0.00067262      -0.00978115      -0.00649032
H        7.52555013       2.24767766       7.48834140      -0.00016395      -0.00722069      -0.01379055
C        5.70642369      10.44436218       6.84992148       0.00633997      -0.00776914       0.00328050
C        7.02287466      10.62353688       7.27905040      -0.01074551       0.00334216      -0.00396085
C        5.22533269      11.27296359       5.83831353      -0.00686494      -0.00152165      -0.01197964
C        4.84358054       9.38651677       7.47188810      -0.00230139      -0.00749281      -0.01073799
C        7.82898153      11.60669295       6.72384408       0.00036769      -0.00133985       0.01091553
C        6.02576191      12.26770346       5.28696200       0.00538384      -0.00448481       0.00272809
C        7.33052712      12.43916213       5.72719907      -0.01245999       0.00474280      -0.00465970
H        7.42363382       9.96921519       8.04682835      -0.00383815       0.00061197       0.00499678
H        4.21852180      11.13100243       5.47332534       0.00307579      -0.00838843      -0.00753477
H        3.93607952       9.21122700       6.89421701       0.00056002      -0.00668625      -0.01116769
H        5.38432281       8.44311583       7.55436777       0.00077261      -0.00803570      -0.01347142
H        4.54106280       9.66899781       8.48418231      -0.00268265      -0.01328840      -0.00851789
H        8.85738246      11.71107613       7.03868358      -0.00885364       0.00654496       0.00723079
H        5.62548135      12.89996121       4.50172333      -0.00207020      -0.00227054      -0.00556190
H        7.97963612      13.18645631       5.29188656      -0.00451178       0.00295350       0.00490028
C        0.78314549       7.52104480       4.37874050      -0.00572111      -0.00271062      -0.00295851
C        0.94415889       7.67448441       5.75848331      -0.00449442       0.00053954      -0.00458324
C        1.09531659       6.28418236       3.81390828      -0.00223107      -0.00225503      -0.00245038
C        0.28347774       8.65771317       3.54331735      -0.01164742      -0.00628459      -0.00521106
C        1.38188200       6.61727499       6.54374094       0.00112445       0.00279102      -0.00227830
C        1.54052567       5.22491553       4.59792209       0.00346170       0.00008386       0.00002103
C        1.68054709       5.38480555       5.97005689       0.00473724       0.00360037      -0.00185913
H        0.70854949       8.62998257       6.21304120      -0.00685518       0.00002590      -0.00501687
H        0.98041307       6.15173730       2.74281529      -0.00293767      -0.00468552      -0.00124262
H        0.16919774       8.35976433       2.50217143      -0.00371494      -0.00612173      -0.00609690
H       -0.67203783       9.03183533       3.91202650      -0.01732463      -0.01580225      -0.00979300
H        0.97086499       9.50389413       3.58263819      -0.02012563       0.00044113      -0.00047248
H        1.46847729       6.75123097       7.61465795       0.00239475       0.00534124      -0.00329638
H        1.77070576       4.27050500       4.13916179       0.00625578       0.00071870       0.00040491
H        2.01662763       4.55814537       6.58322130       0.00953484       0.00565646      -0.00028372
C        3.05068483      10.15389466       1.61826394      -0.00048546       0.01164842      -0.00421665
C        1.91279403      10.10204920       0.81467901      -0.00133806       0.00437206      -0.01032108
C        3.15734222      11.18540635       2.55494757       0.00705644       0.00473027      -0.01600131
C        4.11126704       9.10027709       1.51221629      -0.00303724       0.00562996      -0.01240316
C        0.87505526      11.00905046       0.99065894      -0.00352675       0.01701856       0.00074080
C        2.13785308      12.11114762       2.72209676       0.00200259       0.01296471      -0.00455754
C        0.98259052      12.01597994       1.94793975       0.00494470       0.00890653      -0.01281597
H        1.81232699       9.31120491       0.07976612      -0.00548024       0.01153432      -0.00522083
H        4.04000983      11.23141409       3.18162783       0.00083058       0.00322841      -0.00708366
H        4.82634729       9.16866777       2.33073429       0.00595768       0.01129653      -0.01977152
H        3.66577391       8.10274827       1.52893242      -0.00128454       0.00585544      -0.00243069
H        4.67333964       9.18990520       0.58120173      -0.01249848       0.00175613      -0.01834497
H       -0.02734001      10.86962393       0.39973136      -0.00210606       0.01087984      -0.00355855
H        2.20420195      12.86494444       3.49684920       0.00608908       0.00650522      -0.00700267
H        0.13316057      12.63377550       2.22953685       0.00203086       0.00930120       0.00141248
C       10.41303519       8.39841690       9.67298225       0.00214976       0.00039665       0.00606442
C       11.09037053       8.00455542       8.51597602      -0.00282118       0.00481604      -0.00041249
C        9.84297748       7.40672302      10.47429536       0.00811976       0.00755557       0.00801221
C       10.28126255       9.85234644      10.02172894       0.00614758       0.00310773       0.00307457
C       11.19701595       6.66154515       8.17650738      -0.00748786      -0.00400845       0.00259851
C        9.94856900       6.06065530      10.13883572       0.00369633       0.00001013       0.00950015
C       10.63294216       5.68350407       8.98971298      -0.00189573       0.00566705       0.00447644
H       11.52897533       8.76222036       7.87535725      -0.00788102      -0.00099029      -0.00236462
H        9.31203848       7.69721875      11.37423135       0.01301746       0.00508303       0.01156353
H        9.94972758       9.98373199      11.05247130      -0.00512452       0.00395627      -0.00035909
H       11.22101887      10.39079884       9.88707823       0.00960681      -0.00048345       0.01570067
H        9.54666121      10.33856486       9.37448318       0.01554462       0.00538918      -0.00577587
H       11.72417987       6.37841763       7.27469789      -0.01161888      -0.00077625      -0.00120081
H        9.48699800       5.30609393      10.76584762       0.00757614       0.00489400       0.01206492
H       10.71587660       4.63627754       8.72140849      -0.00529114       0.00083745       0.00573972
C        7.95294077       7.72548402       1.76430495      -0.00733047       0.00737053      -0.03070963
C        7.57276432       8.67220216       0.81299874       0.01325810      -0.00401385       0.01022458
C        8.28833876       8.17006913       3.04358482       0.00007430      -0.00193100       0.01356959
C        8.01104159       6.26615085       1.41825042       0.00175489       0.00071165      -0.00603367
C        7.52801298      10.02456030       1.13145672       0.00178840       0.00468970      -0.02736093
C        8.24103000       9.51858511       3.37166909      -0.01115622       0.00455463      -0.02604391
C        7.85741034      10.44890634       2.41203133       0.01154722      -0.00581658       0.02136794
H        7.28942426       8.34165420      -0.18026089       0.01047948       0.00453582      -0.01472814
H        8.58822765       7.44755539       3.79543468      -0.01304082      -0.00020561      -0.00865661
H        7.85427554       5.64875308       2.30175743      -0.00690750       0.00076772      -0.01341793
H        7.25589244       6.00317243       0.67651736       0.00538687       0.00504474      -0.01658401
H        8.98625242       5.99230370       1.00606568       0.00296539       0.00152132      -0.00314477
H        7.21594841      10.74440490       0.38313610       0.01574901       0.00117394      -0.00244907
H        8.50743798       9.85063223       4.36480477      -0.00569376      -0.00161917       0.00486457
H        7.80773509      11.49677237       2.67778160       0.00455440       0.00059651      -0.00498793
C        7.62958777       0.83385823      10.90356383       0.01230602       0.00153844      -0.00092407
C        8.30460053       1.55763986      11.88660856       0.01060636       0.01639485       0.00907472
C        8.36430656       0.32848687       9.82856920       0.00365619       0.01146664       0.01291676
C        6.14055555       0.65206003      10.95352800       0.01224300      -0.00077889       0.01704743
C        9.66588273       1.82919542      11.76261795       0.01332710       0.01629843      -0.01312276
C        9.72425674       0.57173741       9.70260175       0.00914594       0.01043828      -0.01058888
C       10.37274463       1.34804763      10.66059202       0.00399927       0.02685487       0.00258004
H        7.75828756       1.94343027      12.74019679       0.01506478       0.01126239       0.00183583
H        7.85048722      -0.24272944       9.06519882       0.00734535       0.00105551       0.00879172
H        5.81352093      -0.12875928      10.26651985       0.01448531      -0.00510290       0.01825462
H        5.79223231       0.40115274      11.95715653       0.01899091      -0.00024215       0.01786080
H        5.64007427       1.57678433      10.65107355       0.00617658      -0.00528562       0.01470306
H       10.14080715       2.45465944      12.51471019       0.00880982       0.02642139      -0.00618996
H       10.27419381       0.18353235       8.85445204       0.00225249       0.01480363       0.00030656
H       11.40904557       1.62622313      10.47421696       0.00672425       0.02101508      -0.01099962
C        8.92196654       2.81022440       3.26747773       0.00623378      -0.00540360      -0.00747550
C        9.91635498       3.78206028       3.39917173       0.01677054      -0.00061423      -0.01266220
C        9.26140529       1.60118845       2.66414099       0.01704957      -0.00398280      -0.00162892
C        7.53206651       3.05571592       3.78030869       0.01006091      -0.00073139      -0.01007900
C       11.20651731       3.55861424       2.93964422       0.00395463      -0.00551783      -0.00438811
C       10.55994267       1.35444221       2.23217777       0.00447170      -0.01042318       0.00458222
C       11.53809101       2.33500028       2.36152564       0.01805022      -0.00489049       0.00204557
H        9.68100953       4.71792711       3.89361174       0.00832581       0.00127841      -0.01596224
H        8.51622601       0.81976036       2.58163452       0.01005699      -0.00802661       0.00214978
H        7.05276437       2.12747259       4.09033828       0.00918423      -0.00070730      -0.00924092
H        7.53570780       3.73062021       4.63655433       0.00866779       0.00029750      -0.01138544
H        6.89870239       3.50627124       3.01030217       0.01035772      -0.00322741      -0.01174122
H       11.96278854       4.32108467       3.07455448       0.01271402      -0.00324304      -0.00586758
H       10.78731504       0.34590664       1.89112159       0.01332809      -0.01015912       0.01212186
H       12.58251890       2.15492755       2.10843839       0.01178484      -0.01099604       0.01040458
C        1.56025772       4.44663045      11.73382969      -0.00433506      -0.00212441       0.01020271
C        2.65488068       4.00233593      12.47886173      -0.02028613      -0.00647850       0.00803858
C        0.91587345       3.53025167      10.89638478      -0.01319960       0.00135661      -0.00277318
C        1.11810014       5.87772046      11.78454633      -0.00920941      -0.00104639       0.00520249
C        3.09435217       2.68539098      12.40113883      -0.01765724      -0.01137969       0.02087945
C        1.36934555       2.21518572      10.79046136      -0.00587524      -0.00177372       0.00401751
C        2.45336390       1.77959296      11.55838543      -0.02435295      -0.00493860       0.00406077
H        3.17428038       4.70442807      13.12130620      -0.01730415      -0.00728401       0.01553855
H        0.07682148       3.86786220      10.29622399      -0.00369214       0.00286285      -0.00152642
H        0.04674903       5.97308123      11.60880215      -0.00710151       0.00228889       0.00199929
H        1.36135326       6.33432308      12.74410452      -0.01122305      -0.00234814       0.00772285
H        1.62349022       6.46154060      11.00970731      -0.00411767      -0.00067867       0.00883853
H        3.95284122       2.36868978      12.98100732      -0.03772180      -0.01955278       0.02542045
H        0.90002779       1.52090291      10.09950211      -0.01049441       0.00224999      -0.00348415
H        2.80803965       0.75822741      11.46700798      -0.02300085      -0.00742821       0.01436189
