143
Lattice="12.234651194201719 0.0 0.0 0.0 12.234651194201719 0.0 0.0 0.0 12.234651194201719" Properties=species:S:1:pos:R:3:forces:R:3 energy=-199504.09375 stress="7.042975630611181e-05 -0.0011075996444560587 0.00017781426140572876 -0.0011075996444560587 -0.00017808726988732815 -0.0007657615933567286 0.00017781426140572876 -0.0007657615933567286 -0.0001864686782937497" pbc="T T T"
Sr      14.34458842      13.66719039      -0.33564136       0.00278106       0.00921496       0.00833936
O        7.08258765      12.24897755       9.08855892      -0.00911452       0.01623267       0.00156367
O        5.79406287      11.85962147      10.88378300       0.00006688      -0.00665838       0.00311369
C        7.79779606      10.67188153      10.77285314       0.00423700       0.00133282      -0.01771474
C        6.88627294      11.68091873      10.14399891      -0.00274199       0.00321507      -0.00144023
H        8.05746464      11.01290593      11.77629773       0.01631086      -0.00231813      -0.01977992
H        8.69170906      10.53966276      10.17262044      -0.00293653       0.00397091      -0.02844329
H        7.27388805       9.71814460      10.86632821       0.00533557       0.00117096      -0.01514125
O       12.66128744      12.38057213       0.90252631       0.00335065       0.01193237       0.00743836
O       12.70128951      10.18073365       0.59407143      -0.00114253       0.01426178      -0.00373718
C       10.81259560      11.13648629       1.72633048       0.00241756       0.00854687       0.00289389
C       12.14428307      11.22063206       1.02412660       0.00226140       0.00869033       0.00098222
H       10.05820002      10.79227094       1.01811358       0.00471044      -0.00463130       0.00759931
H       10.51942953      12.10714078       2.11481158      -0.00355234       0.00942959      -0.00510311
H       10.86575223      10.40792899       2.53355678       0.00938776       0.01530902       0.00858879
O       11.83927958       4.89906401       1.57028933      -0.00981349       0.01284863      -0.01425040
O       12.83715330       3.33705819       0.32729378       0.00315424       0.00884154      -0.00337829
C       10.82659755       2.79674045       1.54577383      -0.00291836       0.01149070      -0.00583944
C       11.93016408       3.66871515       1.08329710      -0.00805786       0.01392931      -0.00350508
H       10.85687303       2.73888362       2.63452372      -0.00352259       0.01291572      -0.00541392
H        9.86633685       3.24931419       1.29903916      -0.00408155       0.00986695      -0.00583282
H       10.90522263       1.81356004       1.09980289      -0.00177840       0.01056936      -0.00324276
H       12.58522659       5.42621554       1.24182496      -0.00782359       0.01505718      -0.01365268
O        7.53139060       2.67640541       3.55143888      -0.01780462      -0.01377022       0.00941992
O        9.55100986       2.87149361       4.52275193      -0.00683552      -0.01450568      -0.01326485
C        8.28808959       0.84150418       4.78947387      -0.00244625      -0.01549464      -0.00215733
C        8.54410092       2.23065626       4.28280564      -0.00900513      -0.01496691      -0.00216565
H        7.35391522       0.82933815       5.35239329       0.00144196      -0.01946254       0.00388160
H        8.16721509       0.15966851       3.94669958      -0.00544717      -0.01470320      -0.00239119
H        9.10355141       0.51198927       5.42565465       0.00318004      -0.01377086      -0.00851060
H        7.66207007       3.60918633       3.23900072      -0.01939216      -0.01511616       0.00598730
O        1.71106737       0.64433431       3.29942756       0.00626838       0.00143885       0.00543433
O        2.89313546       1.89720340       1.88642286       0.00355495       0.00819708       0.00356904
C        3.54161643       1.88231804       4.17887403      -0.00070372       0.00538662       0.00910664
C        2.69107655       1.49448743       3.02366521       0.00089675       0.00075749       0.01381665
H        2.99763219       1.83113813       5.11767388      -0.00225355      -0.00007265       0.00830585
H        4.38744260       1.19184496       4.23312372       0.00338611       0.01040082       0.00880379
H        3.94282781       2.87609585       3.99660390      -0.00596760       0.00780281       0.01273935
H        1.22399752       0.45240291       2.45764355       0.00479414       0.00223677       0.00567496
O        5.91198551       6.95923323       2.86233538       0.00341290      -0.00239392      -0.00722772
O        7.21209989       5.16007116       2.61063635      -0.01641718      -0.01389998       0.00436911
C        6.62494271       5.87433399       4.83240429      -0.00780193      -0.00038634      -0.00148278
C        6.63124786       5.93722020       3.34464599      -0.00412798      -0.00986901      -0.00482333
H        6.57698047       6.86638606       5.27496018      -0.02150927      -0.00011620      -0.00555468
H        5.72027342       5.35398596       5.15408746      -0.00082928      -0.01231140      -0.00158228
H        7.50458505       5.34356277       5.18269898      -0.00225565       0.01055981       0.00159164
H        5.90802491       6.89949063       1.89324989       0.00526157      -0.00638694      -0.00723922
O        8.37470483       1.77554701      11.87654810       0.00613528      -0.00528133      -0.00849909
O        7.80137301       3.40595327      10.44566956       0.02285612       0.01619506       0.01492047
C       10.04195341       2.57377936      10.39338503       0.00828928      -0.01083937      -0.00906253
C        8.62115181       2.63222237      10.88892065       0.00928473       0.00538921      -0.00088729
H       10.56800334       3.46303251      10.74543133       0.01720981      -0.01141828      -0.02185972
H       10.56077666       1.68953247      10.75868730       0.00362553      -0.01216044      -0.00686073
H       10.05306209       2.61085629       9.30580471      -0.00073888      -0.01947259      -0.00926599
H        7.41395477       1.90960585      12.17110225       0.00741151      -0.00045018      -0.00547331
O        9.89419445       5.74268746       5.87683244       0.00641908      -0.01264918       0.03007037
O       11.33872164       6.62517798       7.35397974       0.01501042       0.01621860       0.00175053
C        9.79898494       8.07423306       6.20396384      -0.00747293      -0.00915718       0.00360666
C       10.43510566       6.76890530       6.56281925       0.00637579      -0.00031653       0.01173806
H        9.91472226       8.24345867       5.13140322      -0.01051467      -0.01515101       0.00240162
H        8.73487442       8.04704859       6.44266752      -0.00653404      -0.01689155       0.00596382
H       10.27631977       8.87479676       6.76100995      -0.01320986      -0.00094418      -0.00348936
H       10.32719727       4.92072753       6.15957337       0.01855880      -0.00466046       0.03496316
O        2.74662487       7.11828758       3.14936674       0.00273392      -0.00063725       0.00140905
O        3.38751722       5.06594384       2.50979164      -0.00383258      -0.00039172       0.00840709
C        2.25555133       6.50211825       0.94047211       0.00905091       0.00134459       0.00569814
C        2.85399465       6.12446014       2.26392012      -0.01364556       0.02358925      -0.00900266
H        1.37873636       7.13754787       1.07788723       0.00011060       0.00831065      -0.00613156
H        2.97507128       7.11919142       0.40075683       0.00620747       0.00648363      -0.00074239
H        2.04767070       5.61003291       0.35209512       0.00440467       0.00581396      -0.00334791
H        3.23897110       6.88157882       3.96092866      -0.01259178       0.01106095      -0.00205651
O        4.61217694      10.73223831       8.41777178      -0.00236419       0.00448692      -0.00579543
O        6.13418592       9.09972825       8.16975954       0.01148391       0.01537162       0.00310922
C        3.99741037       8.56070953       9.13421667       0.00983721       0.00034535      -0.00793904
C        5.03333957       9.45139781       8.52070051       0.00495505       0.00811394      -0.00221422
H        4.28125494       8.39702009      10.17683660       0.00526551       0.00258609      -0.00657308
H        3.00697611       9.00837464       9.10007001       0.00672817      -0.00694948      -0.01352943
H        4.01365042       7.59294664       8.63794573       0.01967768       0.00055519      -0.00785031
H        5.38399247      11.28023694       8.18140592      -0.00549620       0.00962903      -0.00288786
O        2.91021759      11.17956884       0.41715936       0.00230289       0.00938386      -0.00145301
O        3.87648857       9.20319260       0.84096258       0.01315329      -0.01598316      -0.02206612
C        4.99710761      11.20210941       1.55798157      -0.00010395       0.00755090       0.00257176
C        3.91591440      10.40572674       0.90836782       0.01458095       0.04324919      -0.00345083
H        5.40192975      11.94882658       0.87605958      -0.01634843       0.03759193       0.02592719
H        4.58028488      11.74441201       2.40776818      -0.00018904      -0.02844203       0.02491279
H        5.78080262      10.53066134       1.89802339       0.01693539       0.01575221      -0.02189569
H        2.07340966      10.62573620       0.34177493       0.00826633       0.01106066      -0.00385546
O        4.24705921       1.96209832      10.99820489       0.00305492       0.00207496       0.00367475
O        5.90208818       1.98645198      12.48027895       0.00739008      -0.00086975      -0.00398743
C        5.04877723       4.09114724      11.73193462       0.00717532       0.00033104       0.00442295
C        5.10012224       2.58937519      11.75056464       0.00640288      -0.00156307       0.00121130
H        5.17489104       4.45603650      10.71369228       0.00292940       0.00278856       0.00467364
H        4.07525531       4.41959668      12.10557988       0.00929296       0.00028554       0.00968879
H        5.82739258       4.50948559      12.36187070       0.01070155      -0.00260246       0.00145298
H        5.28385758       0.42807104      10.62184487      -0.00151832      -0.00617889       0.00978321
O        2.41156975       9.20418574       5.61568302      -0.00615245       0.00997442       0.01150848
O        3.86954824       7.50787148       5.60520010      -0.01443226       0.00806564       0.00460003
C        4.67668273       9.74267071       5.23366709      -0.00553310      -0.00069511      -0.00122262
C        3.64831137       8.69951325       5.51771733      -0.00939237      -0.00072920       0.00560604
H        4.73916586       9.83597833       4.14711809       0.00338472      -0.01779063      -0.00164968
H        4.39110166      10.70501415       5.65041372      -0.00654896       0.00479698      -0.01667167
H        5.64204193       9.42420875       5.61642546      -0.00925666       0.00228019       0.00979823
H        1.79641993       8.45970577       5.70258045      -0.00871328       0.01175821       0.01758067
O        7.65234721       6.18182698       8.66170015       0.00146899      -0.00122893       0.00187570
O        6.70970946       6.90175378      10.57376266      -0.00033247      -0.00330469       0.00298667
C        9.06015678       7.24562701      10.20166178       0.00061727      -0.00116748       0.00318354
C        7.67828600       6.78179525       9.85364205       0.00295341      -0.00223352       0.00167525
H        9.59537861       6.40002679      10.64051473       0.00525068      -0.00348465      -0.00710235
H        9.61723497       7.54953238       9.31811034      -0.00319543       0.00972922       0.00446515
H        9.03089183       8.03942276      10.93883122       0.00068194      -0.00781266       0.01008657
H        6.79302586       5.71518236       8.52654441       0.00231324      -0.00100555       0.00218137
O       10.81325555       8.27188275       0.62270017       0.00413275       0.01974908      -0.00504082
O       11.03725439       8.01098276       2.84319867       0.01504242       0.01072624      -0.00705379
C        8.83992226       7.97194506       1.86831974       0.01540238      -0.02947953      -0.00464192
C       10.33473037       8.06619944       1.85804685       0.01111507       0.00260304      -0.00859976
H        8.41879388       8.83093690       1.34254839      -0.00423472      -0.03833373      -0.00159073
H        8.50601483       7.07864583       1.33936835       0.03423206      -0.03368811      -0.00779411
H        8.47844357       7.94800768       2.89156222       0.02134903      -0.04232059      -0.00351153
H       11.69079382       8.72709618       0.67769114      -0.00047395       0.03152349      -0.00378011
O        5.45466474       2.38749710       7.18055839      -0.01156282       0.00925244      -0.01623449
O        5.67227849       4.44776706       8.00882901      -0.00519341       0.00321531       0.00024635
C        7.65126515       3.20336849       7.43054182      -0.00875604      -0.00669365       0.00365385
C        6.18614067       3.42115519       7.59042010      -0.00681692       0.00017178      -0.00537351
H        7.90312415       2.16860682       7.65315835      -0.01722790      -0.00880724       0.00415402
H        7.91861358       3.40961064       6.39320476      -0.00052828      -0.00765057       0.00548762
H        8.19606182       3.88611827       8.07252679      -0.00863896      -0.01140772       0.00852253
H        4.50481874       2.59183528       7.32657470      -0.01098531       0.01265424      -0.01765884
O        1.28500451       2.50798833       9.34074567       0.00249645      -0.01731348       0.00357747
O        2.75942068       2.56988993       7.66697221      -0.01612177       0.00800293      -0.00457699
C        2.53789842       4.52140496       9.05819204      -0.00890359      -0.00921685       0.01235121
C        2.26018830       3.13816656       8.60797628      -0.00535390      -0.00941315      -0.00400403
H        1.80342834       5.16258832       8.55930776      -0.01492044      -0.00706045       0.02448118
H        2.40155325       4.63861568      10.13086212      -0.00099601      -0.02072082       0.01375550
H        3.54143287       4.80696783       8.75302823      -0.01160169      -0.00407857       0.00815954
H        0.94454448       1.80998650       8.76041240       0.01085931      -0.02287942       0.00425625
O        0.42667461       2.94639829       4.49688510      -0.00785357       0.00048578       0.00265700
O       -0.04058149       3.41811861       6.63490780      -0.02899760       0.01612663      -0.00669748
C        1.08201469       5.06420927       5.27169510       0.00412405      -0.00283462       0.00092806
C        0.43261259       3.75562753       5.57187464      -0.01215434       0.00477012      -0.00014067
H        2.11975956       4.89830269       4.97661547      -0.00002402      -0.01281678      -0.00550424
H        0.57824053       5.53285745       4.42412237       0.00455765       0.00629970       0.00611591
H        1.02252034       5.70879471       6.14212176       0.01513972      -0.00491841       0.00354967
H       -0.05083611       2.14223989       4.75145972      -0.02540621       0.00957489      -0.00112119
