144
Lattice="12.911091693082637 0.0 0.0 0.0 12.911091693082637 0.0 0.0 0.0 12.911091693082637" Properties=species:S:1:pos:R:3:forces:R:3 energy=-164060.296875 stress="3.945082789869048e-05 -0.00019566457922337577 0.00023133615468395874 -0.00019566457922337577 -6.842509174020961e-05 -1.799455549189588e-05 0.00023133615468395874 -1.799455549189588e-05 -0.0003431907098274678" pbc="T T T"
Sr      12.15582604      14.05185870      -1.02107909      -0.00038078      -0.00388293       0.00441646
O       10.75482055      12.54000153       4.55897245       0.03110671       0.01608974       0.02655602
O       12.18711787      12.57624318       6.30582993       0.02158862       0.01117355       0.01467633
C       11.86990270      12.71247188       5.10222787      -0.01746637       0.00120696      -0.01405793
H       12.71012719      13.03237656       4.41992657       0.01161265      -0.01141265      -0.00239271
O        1.36903772      13.34566056      -0.02472134       0.01875898       0.01427579      -0.03190312
O       -0.14205744      11.76633838      -0.48735177       0.01149774       0.00206485       0.01301622
C        0.88360564      12.18571620       0.11757009       0.01748075      -0.00330189      -0.01107630
H        1.36910626      11.51008942       0.84267507       0.03633027       0.01447204      -0.02479991
C        5.48184829       2.40962728      11.80210717      -0.00449723      -0.00129727       0.00669290
C        6.29190700       3.54688097      11.77046753      -0.00581844      -0.00212507       0.00244557
C        4.09840336       2.58051700      11.73643981      -0.00521967      -0.00417210       0.00809322
C        6.08283575       1.03813263      11.91864586      -0.00327218      -0.00088286       0.01139210
C        5.74384613       4.81803118      11.66589005      -0.00704569      -0.00120509      -0.00108491
C        3.54640942       3.85308017      11.62669481      -0.00609297      -0.00323097       0.00522983
C        4.36539610       4.97522950      11.58430873      -0.00766224      -0.00450446       0.00055607
H        7.37018684       3.43638443      11.81791010      -0.00559872       0.00014072       0.00297492
H        3.45049838       1.71198553      11.77955935      -0.00445117      -0.00355780       0.01314578
H        5.38926809       0.27254253      11.57122026      -0.00443502      -0.00315115       0.01927883
H        6.99698331       0.95210922      11.32686582      -0.00610052      -0.00401260       0.00752378
H        6.33681812       0.81017412      12.95830358       0.00194323       0.00543464       0.01148394
H        6.38790514       5.68716038      11.62135117      -0.00820720      -0.00175667      -0.00371366
H        2.46926618       3.96891446      11.57392423      -0.00663747      -0.00500272       0.00747673
H        3.94326101       5.96657428      11.48249767      -0.00867108      -0.00402464      -0.00111886
C        8.78684145      11.02774949       7.94587935      -0.00039782       0.00726957      -0.00239010
C        8.14976212      11.09863489       9.18818005      -0.00142863       0.00525656      -0.00289354
C       10.07080525      10.48496108       7.89213839      -0.00024888       0.00480902      -0.00080144
C        8.12143759      11.53934076       6.70137388       0.00181356       0.00773692      -0.00251141
C        8.77529136      10.64347038      10.34434208      -0.00441982       0.00252459      -0.00305746
C       10.69435428      10.01942525       9.04479250      -0.00315422       0.00250244      -0.00135203
C       10.05513655      10.10009588      10.27686341      -0.00423578       0.00048159      -0.00189683
H        7.14876475      11.51518246       9.24733223      -0.00158219       0.00574885      -0.00400658
H       10.60227985      10.48929906       6.94834355       0.00028051       0.00522050      -0.00077061
H        8.81805779      11.54525792       5.86258653       0.00737563       0.02278070       0.00227948
H        7.24768608      10.93053423       6.44925795       0.01235318      -0.00237964      -0.01255126
H        7.76812729      12.56349278       6.84156355      -0.01377960       0.00138335       0.00218510
H        8.26106286      10.70443990      11.29671305      -0.00545220       0.00101248      -0.00372863
H       11.69865921       9.61607464       8.98412968      -0.00297089       0.00126914      -0.00005296
H       10.55623485       9.76291886      11.17607302      -0.00681915      -0.00150995      -0.00189927
C        3.36748723      10.72135035       5.01300150      -0.00879357      -0.00388731      -0.00452849
C        3.87970792       9.42638461       4.94011736      -0.00570261      -0.00324416       0.00206052
C        2.24516746      10.95488404       5.81026838      -0.01271735      -0.00492516      -0.00701361
C        4.00230451      11.84219541       4.24505152      -0.00982358      -0.00450698      -0.00482300
C        3.29110517       8.38773767       5.65316926      -0.00382113      -0.00167155       0.00281839
C        1.65426643       9.91981223       6.52074526      -0.01047917      -0.00345699      -0.00679564
C        2.17805438       8.63283512       6.44849702      -0.00807637      -0.00324078       0.00003843
H        4.74343946       9.23136560       4.31336733      -0.00290516      -0.00233511       0.00464052
H        1.80108951      11.94252621       5.87285360      -0.01451121      -0.00562480      -0.01102575
H        4.29935614      12.65345882       4.91247118      -0.00032555      -0.00853561      -0.00422142
H        4.88698654      11.50376048       3.70626506      -0.01598740      -0.00661953      -0.01341044
H        3.30771657      12.26315445       3.51413902      -0.01349822       0.00165913       0.00273570
H        3.70635846       7.38906207       5.58960335      -0.00130377      -0.00098690       0.00807454
H        0.77469399      10.13444936       7.11471656      -0.01324655      -0.00443698      -0.00889322
H        1.71751111       7.82477570       7.00449989      -0.00639236      -0.00212619       0.00083133
C       11.59212090       3.19935884       1.05263920       0.00024022      -0.00043771       0.00264924
C       11.96467299       2.07726697       1.80789759      -0.00189912      -0.00041182       0.00359356
C       10.43042545       3.11163917       0.27065438       0.00336890       0.00027190      -0.00112517
C       12.37918011       4.47752774       1.10474224       0.00129077      -0.00097945       0.00537084
C       11.20566583       0.90621608       1.79086073      -0.00377266       0.00010769       0.00343613
C        9.67535501       1.93746111       0.23591439       0.00047532       0.00140619      -0.00081790
C       10.06398517       0.83102842       0.99246675      -0.00268956       0.00216308       0.00147814
H       12.85045243       2.12588392       2.42966681      -0.00342527      -0.00063421       0.00568557
H       10.11158898       3.97636231      -0.29731438       0.00686833      -0.00043642      -0.00416367
H       11.83831314       5.23313148       1.68047082       0.00791354      -0.00195612       0.01281232
H       13.34971034       4.32731958       1.57499290       0.00371653      -0.00546550      -0.00114700
H       12.53928345       4.88797246       0.10498793      -0.00558812       0.00242206       0.00599560
H       11.45920120       0.07905948       2.44245811      -0.00867849       0.00228235       0.00805357
H        8.76707677       1.89581843      -0.35053726       0.00059474       0.00271894      -0.00078500
H        9.46369578      -0.06938401       0.99701589      -0.00661457       0.00468941       0.00396772
C        5.98558422       3.19861105       2.86268286      -0.00123209      -0.00516011      -0.00215003
C        7.28698982       3.68775933       2.75193587      -0.00094621      -0.00770742      -0.00317387
C        5.81182729       1.88924008       3.31017402      -0.00382759      -0.00320232       0.00360129
C        4.80895325       4.06281931       2.51644936       0.00001359      -0.00545567      -0.00735003
C        8.37677257       2.90201259       3.10111234      -0.00206104      -0.00705072       0.00117366
C        6.90390641       1.10055768       3.65787317      -0.00481787      -0.00271796       0.00788514
C        8.19650958       1.60351935       3.56536622      -0.00425054      -0.00536133       0.00696465
H        7.44301761       4.71103043       2.42729850       0.00108836      -0.00946288      -0.00851980
H        4.80715009       1.49277706       3.39766522      -0.00413512      -0.00151711       0.00382482
H        3.89186853       3.67866509       2.96412120      -0.00201386      -0.00596793      -0.01217014
H        4.95754173       5.08522066       2.86972967      -0.00190200      -0.00566174      -0.00570592
H        4.65865511       4.10857019       1.43457503       0.00561208      -0.00438556      -0.00796011
H        9.37569508       3.31673898       3.03962290      -0.00143878      -0.00929939      -0.00012786
H        6.75003678       0.09064831       4.01718793      -0.00669312      -0.00137858       0.01175708
H        9.04596485       0.99385920       3.85948391      -0.00469518      -0.00442010       0.01016642
C        5.82479545       5.09290918       8.32506515      -0.00269625       0.00068572      -0.00233768
C        7.17209329       5.26585788       8.64659169      -0.00238720       0.00096124      -0.00280176
C        5.00871115       6.22008282       8.28273452      -0.00258496       0.00083354      -0.00204631
C        5.28447790       3.72380855       8.04040292      -0.00296400       0.00068340      -0.00112879
C        7.68687348       6.52369345       8.92008051      -0.00243235       0.00086232      -0.00315669
C        5.51678391       7.48482657       8.56187842      -0.00267370       0.00066608      -0.00250423
C        6.85810266       7.64009543       8.88451543      -0.00246529       0.00099137      -0.00295589
H        7.82349203       4.39879317       8.65494981      -0.00242781       0.00088300      -0.00269942
H        3.96033306       6.10630684       8.02868708      -0.00283174       0.00066072      -0.00159887
H        4.23690927       3.76366742       7.74341770      -0.00210208       0.00114334      -0.00447671
H        5.84578544       3.23586660       7.24013054      -0.00115326      -0.00171441       0.00164863
H        5.35690843       3.08708759       8.92592975      -0.00659277       0.00257699       0.00047293
H        8.74206214       6.65153891       9.13201023      -0.00230773       0.00092210      -0.00351331
H        4.86488463       8.34862933       8.51127864      -0.00269384       0.00068469      -0.00242767
H        7.26615851       8.62094731       9.08754798      -0.00266885       0.00092892      -0.00314147
C       11.33949988       1.95455579       9.32456345       0.00698470      -0.00068885      -0.00361279
C       12.61203974       2.54269958       9.21485370       0.00728378      -0.00365470       0.00230935
C       10.26912249       2.77356151       9.70169499       0.00619701      -0.00221692      -0.00839674
C       11.15316263       0.49393834       9.06095734       0.00841432      -0.00333422      -0.00110834
C       12.79588227       3.90025877       9.46716642       0.00807548      -0.00198755       0.00520307
C       10.44981399       4.13573915       9.92970814       0.00660937      -0.00085659      -0.00524233
C       11.71267481       4.70373426       9.81821444       0.00657098      -0.00284955      -0.00046573
H       13.44300128       1.93279498       8.87405650       0.00963509      -0.00386780       0.01027972
H        9.27906868       2.33745011       9.78337935       0.00571352      -0.00073131      -0.01025370
H       10.15408351       0.15116604       9.33051919       0.00997990      -0.00398467       0.00573204
H       11.32323169       0.26580986       7.99525705       0.00267628      -0.00668091       0.00116372
H       11.88880959      -0.14556394       9.57421647       0.01417524       0.00279812      -0.00172846
H       13.78144072       4.33605608       9.35915989       0.00935242      -0.00549020       0.01468183
H        9.59913916       4.75193700      10.19265165       0.00645800      -0.00259330      -0.00338752
H       11.85072545       5.76361978       9.98758614       0.00630051      -0.00149351      -0.00108371
C        9.66691066       4.93365236       5.78869432       0.00605714       0.00527319      -0.00345980
C       10.33248960       6.16183441       5.75555846       0.00658417       0.00471438      -0.00379585
C        8.28290252       4.93569551       5.62893632       0.00568971       0.00554134      -0.00426929
C       10.42135466       3.65317636       6.00385276       0.00545475       0.00518695      -0.00280720
C        9.63756837       7.35021732       5.57383419       0.00758537       0.00515406      -0.00526723
C        7.58293466       6.12044305       5.43500502       0.00687179       0.00621329      -0.00537341
C        8.25594177       7.33279295       5.40960386       0.00713977       0.00550151      -0.00573828
H       11.41052276       6.18294813       5.87733325       0.00673971       0.00443614      -0.00230999
H        7.74901049       3.99377420       5.64794374       0.00527483       0.00617871      -0.00349830
H        9.81270947       2.78021372       5.77071917       0.00211228       0.00501280       0.00784251
H       11.31928499       3.60914221       5.38501541      -0.00068621      -0.00004204      -0.01106423
H       10.75056458       3.56134801       7.04117955       0.01551849       0.01103225      -0.00571385
H       10.16972327       8.29248149       5.56401659       0.00789829       0.00464979      -0.00622372
H        6.50530433       6.09320158       5.32590812       0.00668401       0.00667438      -0.00634204
H        7.71142493       8.25951503       5.27940647       0.00801002       0.00596124      -0.00615930
C        3.74790630       8.15207211       0.80166530      -0.00241998       0.00059505       0.00384856
C        5.11103637       7.90256467       0.95673798      -0.00048064       0.00065722       0.00553618
C        3.34776751       9.44037898       0.44443631      -0.00155589      -0.00201756       0.00184321
C        2.72314554       7.08205949       1.04248668      -0.00084960      -0.00054178       0.00614445
C        6.04575209       8.91739518       0.78093384      -0.00299677       0.00187953       0.00413774
C        4.27480253      10.46085634       0.27741862      -0.00414257      -0.00065333       0.00014723
C        5.63090454      10.20154455       0.44896102      -0.00192502      -0.00036050       0.00203169
H        5.44096903       6.90138433       1.20966112      -0.00091167       0.00193834       0.00767350
H        2.29227955       9.63637059       0.29407616      -0.00292768      -0.00233935       0.00117189
H        1.92969663       7.12093019       0.29354594      -0.00221407      -0.00068241       0.00742580
H        3.16900636       6.08886915       1.01908255      -0.00105540      -0.00038986       0.00590570
H        2.25238244       7.21700954       2.02030602       0.00061912       0.00017218       0.00680891
H        7.10057569       8.70341170       0.90420371      -0.00159881       0.00249762       0.00537522
H        3.93827488      11.45819162       0.01779838      -0.00295079      -0.00178124      -0.00169915
H        6.35741340      10.99526250       0.32372044      -0.00398139       0.00090526       0.00133580
