147
Lattice="11.634645219045112 0.0 0.0 0.0 11.634645219045112 0.0 0.0 0.0 11.634645219045112" Properties=species:S:1:pos:R:3:forces:R:3 energy=-158677.625 stress="0.0008105472661554813 -0.0003425797913223505 0.0006671987648587674 -0.0003425797913223505 0.0004369856615085155 0.0002204535048804246 0.0006671987648587674 0.0002204535048804246 0.0011874150950461626" pbc="T T T"
Sr      12.74291927      11.84374860       0.64026857      -0.01135805       0.00827228      -0.00206824
P       10.35984667      10.09897343       0.67556532      -0.02978270       0.01277018      -0.02837100
O        9.35549325       8.90029904       1.04232468      -0.00412220      -0.01330125      -0.01617922
O       11.74097871       9.49823114       0.35847669       0.00767344      -0.00300258       0.00349610
O       10.54826747      11.02246504       1.88832766      -0.01216025      -0.01033354       0.01653361
O        9.76045754      10.85892940      -0.49972310       0.01168162      -0.01059049       0.02773988
H        9.86812355       8.08835122       1.29985316      -0.00911810      -0.00108078      -0.00308213
N        8.75714932       6.08436263       3.63765582      -0.00240098      -0.00409237      -0.00354547
H        9.18938977       6.50502276       2.81996890       0.00489249      -0.00535291       0.00117378
H        8.87959817       6.75402717       4.39423308      -0.00427747      -0.00759389       0.00053947
H        7.75484770       6.05054883       3.45568207      -0.00239179      -0.00198756      -0.00934222
N        4.27030011       2.98585244       0.57435687      -0.00942282      -0.00066867      -0.00601156
H        3.28533087       2.94385048       0.80962885      -0.00510837      -0.00353108       0.00182342
H        4.75241562       2.45635651       1.29705059       0.00057528       0.00818209      -0.00515338
H        4.38794773       2.47704765      -0.29387716      -0.01154650      -0.01126933      -0.00218904
N       10.24425855       1.98179600       0.81474000       0.01650614      -0.01561159       0.00238800
H        9.88262782       1.25020885       0.19754170      -0.00021769      -0.01935948       0.00255359
H       10.08163023       1.59549220       1.73958807      -0.00060644      -0.00400010      -0.00075366
H        9.63890174       2.78861659       0.71104782       0.02872077      -0.01183841      -0.01568575
N        8.79204482      11.45519299       4.12812408       0.00596794      -0.00007323       0.00611818
H        8.23026782      12.27135980       3.91417466      -0.00151490      -0.00238047       0.01002312
H        8.14716741      10.69249137       4.29445796       0.00189426      -0.00232181       0.01303390
H        9.33956302      11.22865868       3.28550722      -0.00319948      -0.00192543       0.00835134
N        3.05154709       7.18246616       2.61486178       0.01492113      -0.00252253      -0.00288634
H        3.98000606       7.55425184       2.44741797       0.01500468      -0.00018613      -0.01124920
H        2.49603943       7.96160617       2.94333788       0.01475449      -0.00304933      -0.00929224
H        2.69262632       6.90450841       1.69636648       0.01478470      -0.01092198      -0.00055881
N        5.46792355       3.05918748       8.21169920      -0.00798856       0.00872737       0.00006233
H        5.50676493       3.60672261       7.35829041      -0.00858234       0.02226491       0.00826040
H        6.43115087       2.96147611       8.53387386      -0.00800437       0.00079159      -0.00092872
H        5.00561462       3.65912577       8.88773966      -0.00572954      -0.00033136       0.00908082
N        3.31176799      10.22376596       0.28814851      -0.01031032       0.01174152      -0.00044538
H        4.10991855       9.98922677       0.87266236      -0.00632514       0.00449120      -0.00375281
H        3.66554857      10.23305696      -0.66287322      -0.01097539       0.01582113      -0.00322253
H        2.69924332       9.40968501       0.32305166      -0.00972208       0.01744699      -0.00211369
N        6.39493050       6.59430315       6.81198485       0.00070467       0.00101656      -0.00989735
H        5.95351852       6.71997204       7.71574362       0.01454882       0.00157325      -0.00268477
H        6.04711319       7.33664814       6.21057703      -0.00274286       0.00588945      -0.00061272
H        7.38283655       6.79190665       6.94157928       0.00445029      -0.00459716      -0.02316111
N        1.25144011       1.87695635      10.14626356       0.00809660       0.00167125      -0.00861490
H        0.46579759       1.50851849       9.60310886       0.00239417       0.01000722      -0.01135030
H        2.08087634       1.63862165       9.61355259       0.00486030      -0.00482147      -0.00606255
H        1.14050746       2.88632994      10.11587892       0.01579227       0.00280966      -0.00606671
N        2.03252397       8.82991330       6.43520129       0.00112204      -0.00558692       0.00682157
H        1.82668319       9.57710229       5.78066359      -0.00287750       0.00499867       0.02086625
H        1.27418523       8.15931606       6.33448565      -0.00006863      -0.00492197      -0.00157640
H        2.84950218       8.36286881       6.05222057      -0.00090154       0.00213488      -0.00525422
N        5.78345396       7.55027510      11.70491764       0.00784811       0.00583745       0.01201116
H        6.23327871       6.64235498      11.73960774      -0.00308968       0.00199748      -0.00041882
H        5.99301453       7.99137074      12.59403773       0.03108641       0.00244835       0.00695043
H        6.28019738       8.11326105      11.01313256       0.00523132       0.00381845       0.00272229
N        2.92703453       6.13650498      -0.28576903       0.01101033      -0.01403890      -0.00003480
H        2.63459939       6.00624101      -1.25347759       0.01473346      -0.00782164      -0.00213904
H        3.31368579       5.24561953       0.01668932       0.01334388      -0.01557674      -0.00729293
H        3.73622101       6.75873751      -0.31999213       0.00736287      -0.00848027       0.00785369
N        6.74844048      10.40509167       1.34200265       0.00145417       0.01084189      -0.00291690
H        6.33004956      11.16570314       0.81730274       0.01101335       0.01501226      -0.00572523
H        7.21718776       9.81477665       0.66118909      -0.00109839       0.00585549      -0.00460657
H        7.51606403      10.82924583       1.85665307       0.00050836       0.00253657       0.00039614
N        1.54555946      10.44107435       2.99018121      -0.00272147      -0.00255686      -0.00122762
H        2.27331762      10.34184286       3.68926745      -0.01210493      -0.01148503      -0.00183986
H        1.30755542       9.54360279       2.58269381      -0.00379235      -0.00049460      -0.01482822
H        0.69149679      10.77768824       3.42338943      -0.01037854      -0.01027852      -0.00365734
N        5.08092915       0.75120562       2.92343715       0.00368869       0.00891471      -0.01014632
H        4.35902513       0.34863039       2.33283206       0.01353379       0.00711757      -0.01980437
H        4.62681768       0.94778835       3.80919613      -0.00861151       0.00914462      -0.01690315
H        5.71214418      -0.02455161       3.09794001       0.00301131       0.00901331      -0.00051197
N        8.31346362       3.90368771       6.00047680      -0.00698310      -0.00448552      -0.00345811
H        7.98505422       2.94787869       5.95318687      -0.00102464      -0.00306048      -0.01005579
H        8.43719488       4.25226721       5.05385222      -0.00467855       0.00229391      -0.00198204
H        7.57257534       4.46213781       6.41211329      -0.01350696      -0.00907187      -0.00440386
N        1.17469652      -1.15209029       9.53929448       0.01065364       0.00100143      -0.00159168
H        0.71995662      -1.81451280      10.17264113      -0.00700536       0.00684681      -0.01717290
H        1.66768717      -1.69431682       8.83550999       0.01747558       0.00062802       0.00421591
H        0.42006005      -0.68305097       9.04827405       0.02160236       0.01120738      -0.01981359
N        0.29729155       6.74708799       4.76464090      -0.00697044       0.00912095       0.00163686
H       -0.22874565       7.46774320       4.28320757       0.00094226       0.00780509      -0.00681354
H       -0.05956251       5.84886148       4.43325479      -0.01149881       0.00776513       0.00693520
H        1.25449859       6.80007104       4.43317755      -0.00566454      -0.00072892       0.00380144
N        2.51890022       4.37286924       4.10232188      -0.00557381      -0.00028446      -0.01129821
H        2.72148168       5.28875061       3.70818442       0.00050448      -0.00443059      -0.01348815
H        2.93486334       4.31744117       5.02520019      -0.00562865       0.00069278      -0.01049788
H        1.51161503       4.32913692       4.24054499      -0.00701542       0.00585437      -0.01054246
N       11.13433718       6.84896249       1.42915903       0.00182992       0.00450435       0.00117849
H       11.73407347       7.53939739       0.97252722       0.00179562      -0.01009914       0.00395992
H       11.06453873       6.05984072       0.79683262      -0.01487030       0.00278033      -0.00503710
H       11.60840825       6.51382953       2.25976234       0.00719854      -0.01677069      -0.00413489
N        2.41549549       5.84816133       8.12155809      -0.00033422      -0.01919567      -0.00102806
H        2.53110273       4.99366456       7.58056525      -0.01265399      -0.02020835      -0.00556346
H        3.19983713       6.45389697       7.91245534      -0.00305518      -0.02153031      -0.01845885
H        1.59537697       6.31609043       7.75548014      -0.00453304      -0.01705775       0.01434113
N        4.00477231      11.04416073       5.69788565       0.00081745      -0.00795166       0.00340676
H        4.61667420      11.77688299       6.03977496      -0.00865515       0.00729568      -0.01106517
H        4.61373190      10.32062203       5.31841580       0.01309979      -0.00133069       0.00508965
H        3.56624598      10.64763876       6.52281827       0.02157333      -0.00746931       0.01241735
N       10.53291100       5.58992073       7.43205907      -0.01262164       0.00636159       0.00132116
H        9.91248459       4.89087529       7.01773258      -0.01097763       0.00577714      -0.00093047
H       11.04711921       5.12035298       8.17245578      -0.00980575       0.00497268      -0.00116520
H       11.19678817       5.84519728       6.70542985      -0.01218806       0.01096792       0.00390508
N        5.70458235       5.42987404       3.66094783      -0.00051686       0.00194773       0.00147475
H        4.73013653       5.60876501       3.44374449       0.00129049       0.00417670       0.00064172
H        5.77094380       5.33934047       4.67098521      -0.00047190       0.00316693       0.00210806
H        5.90927572       4.51751854       3.26879591      -0.00042346       0.00042690       0.00316047
N        1.82393017       1.75883801       2.75852841      -0.00468632      -0.00494511      -0.00366360
H        1.02518008       1.64428064       3.38803597      -0.00152540      -0.00250434       0.00079505
H        2.18033410       2.69878500       2.97171610      -0.00297377      -0.00474153      -0.00216854
H        2.51451699       1.13145514       3.15973195      -0.00469392      -0.00711692      -0.00923073
N       10.23191556       0.66152829       8.54746678      -0.00190583      -0.00523287       0.00397782
H        9.96386182       0.17470405       9.40828934      -0.00459224      -0.01755308       0.01146124
H       10.09707634       0.00262821       7.78809832       0.01340497      -0.00447583       0.00852030
H        9.55310998       1.39984993       8.39138611      -0.00750629      -0.01902149       0.00893361
N        6.25142215       8.62090590       4.17050283      -0.00242367       0.00303617       0.00611222
H        7.19045598       8.60478692       4.56481512      -0.00366658       0.00391425       0.00791957
H        6.31536797       9.18138163       3.32032347      -0.00026289       0.00034445       0.00330274
H        6.10247733       7.66319073       3.85090299      -0.00489957       0.00234523       0.00922739
N        2.57978860       2.71670031       6.85134453      -0.00269854       0.00935259       0.00634775
H        1.81506456       2.47048964       7.46877521      -0.00551764       0.00783803       0.00278738
H        3.43650461       2.36484822       7.27122586      -0.00140774       0.02066582       0.01676157
H        2.42411796       2.20985211       5.98659958       0.00891836       0.00114239       0.01067042
N        7.40481156       9.64871833       9.72029586       0.00337401      -0.00911541       0.00145286
H        7.69797502       9.07021192       8.94184488       0.00085358      -0.00661840       0.00880349
H        8.25415343      10.01091243      10.16979517       0.01027779      -0.00687338       0.00394360
H        6.92583965      10.44499803       9.31652539       0.01162675      -0.00377250      -0.00104973
N        9.39114004       8.41812567       6.02258961      -0.02532893       0.01154388       0.01187575
H        9.03440788       9.01160954       6.76234336      -0.02142882       0.01646112       0.01321794
H       10.02402465       9.00148937       5.48676164      -0.02566300       0.00757724       0.00948768
H        9.94911686       7.69417076       6.47272871      -0.02803759       0.01082896       0.01254040
N       11.24866304       4.62122235      -1.16806304       0.01243132      -0.00407022       0.00364289
H       10.36915842       5.13628976      -1.19949136       0.00730567      -0.01435281       0.00843894
H       12.00279814       5.28972427      -1.04725844       0.00363291      -0.00389348       0.01189158
H       11.23265198       4.01589545      -0.35413291       0.01233628      -0.01407381       0.00387603
N        8.33194383       3.00870358       9.79372495      -0.00391173       0.00379655      -0.00423521
H        9.32963228       3.14684456       9.66252936      -0.00339544      -0.00219245      -0.01114136
H        8.22633650       2.23285940      10.43705490       0.00266160       0.00542000       0.00707577
H        8.01422674       3.84914045      10.26583084       0.00307919       0.00177377      -0.00818107
N        8.58743173       6.30437187       9.80885302       0.01232579       0.00495017       0.01396814
H        7.60474644       6.23450520       9.57475164       0.01653414       0.00933509      -0.00664194
H        9.11793651       6.28465691       8.93539533       0.02390236       0.01311636       0.02013117
H        8.71733643       7.21412039      10.23932132       0.00339964       0.00193834       0.02308142
N       11.48965066       0.88467151       5.30576618       0.00027864       0.01029295       0.00111285
H       11.31060016       1.37872602       6.17452583      -0.00604637       0.01933423      -0.00171046
H       12.13029069       0.13972451       5.55912048       0.00281633       0.01652818       0.01294664
H       10.60278467       0.44778618       5.03631749       0.00438784       0.00630596       0.00255183
N       11.00627994       3.91532113       3.63501901      -0.00326589      -0.00029388      -0.00229129
H       11.20207096       3.53888649       2.71446567      -0.00856158      -0.00057641      -0.00456010
H       10.12030953       4.42156492       3.59393067      -0.00299118      -0.00177684       0.00469212
H       10.89903862       3.12028770       4.25659666       0.00179882      -0.00172180      -0.00240100
