136
Lattice="13.384442102588379 0.0 0.0 0.0 13.384442102588379 0.0 0.0 0.0 13.384442102588379" Properties=species:S:1:pos:R:3:forces:R:3 energy=-597789.0 stress="-0.0002867185976356268 -6.85634913679678e-05 -8.476348739350215e-05 -6.85634913679678e-05 -0.00048497531679458916 9.524023698759265e-05 -8.476348739350215e-05 9.524023698759265e-05 -0.0005096160457469523" pbc="T T T"
Ta      14.15238892      12.34703322      -0.15284853       0.01161460      -0.00499041       0.00022198
P        2.45325994      13.21823956       4.18950779      -0.00882643       0.01695615      -0.01069614
F        1.81875276      11.86910482       3.81074583      -0.01618424       0.01217264       0.00502813
F        3.62577480      12.47749908       4.95792297      -0.02431090       0.01683405       0.01326320
F        3.51110680      13.90318706       3.29053254      -0.00159484      -0.00471044      -0.00310642
F        1.31526471      14.00096806       3.41218558      -0.00016728       0.00761287      -0.02696703
F        1.98969684      13.85937186       5.51686041      -0.01629943       0.03783804      -0.02120131
F        2.19421838      12.21048556       1.03965489       0.01108760      -0.00762815      -0.00433230
P        8.85146874       8.43913320       3.49370784      -0.00371576      -0.00955179      -0.00433894
F        9.46884699       7.25172249       4.41605622      -0.00518823      -0.01496685      -0.01035762
F        9.10469291       9.49182453       4.71288463       0.00244802      -0.01465791      -0.00140917
F        8.22117186       9.62906249       2.60671795      -0.00434071      -0.00528193       0.00243241
F        8.57405105       7.38113417       2.30534930      -0.01130292      -0.00415492      -0.00675511
F        7.37385381       8.11567970       4.11169141      -0.00361395      -0.00782156       0.00030154
F       10.31648506       8.75758088       2.90880682      -0.00594711      -0.01231742      -0.00668603
P       11.29627312      12.59000653       4.82235977      -0.00756106      -0.01625952      -0.01725295
F       12.72878368      12.49432685       5.42099990      -0.00595677       0.00247653      -0.00318764
F       10.86371307      11.53694210       3.80007826       0.00274403       0.00833496       0.00945580
F       10.75503604      11.71357521       6.02308011      -0.00068705      -0.00447186      -0.00240418
F       11.86242524      13.52042295       3.66788886      -0.00944436      -0.00165499      -0.00060010
F       12.86688401      11.61991144       0.95625159       0.01058841      -0.01147878      -0.00637448
F       10.33339771      13.73015682       5.24206592      -0.00691050      -0.00585690       0.00051138
P        2.07756359       9.74803143      10.40684217       0.00122555      -0.00546509      -0.00238729
F        1.85883678      12.02865427      11.72218643       0.01053917       0.01104405      -0.00604844
F        0.66608982      10.28153114       9.97606118       0.00299534       0.00295017      -0.00058140
F        2.70440463      10.68989516       9.31993476       0.00148389      -0.01374146      -0.01023990
F        1.41016329       9.25544167      11.75260198       0.00280657       0.00681564       0.00218891
F        2.16308395       8.40231936       9.67711234      -0.00931291      -0.00690073       0.00447199
F        3.44007666       9.81084849      11.17466670       0.00280431      -0.00466743      -0.00631732
P        9.71511045      12.22459698      11.21543709       0.00398650       0.00859734       0.01197068
F        9.89406646      13.31950373      10.13668217       0.02520712      -0.00350380       0.00203627
F       10.20231252      12.46924092      12.65605941      -0.00399289       0.00499153       0.00436687
F        8.29824917      12.83289589      11.58002441       0.01481619       0.03334646      -0.00649497
F       11.13123104      11.62470184      10.82636398      -0.00636652      -0.01751754       0.01885638
F       13.03488287      13.54914333      12.35448433       0.00721031      -0.00249040       0.01158237
F        9.04857070      10.87586240      10.86812730      -0.01763269       0.01758373       0.00690620
C       11.86680439       8.27866869       8.05534928      -0.00406595      -0.00259018      -0.00406989
C       12.08598251       7.57774701       6.72067639       0.00274886      -0.00459957      -0.00175566
C       11.56236880       7.31179268       9.19457160      -0.00171771      -0.00135672      -0.00249380
C       12.42778484       8.52776408       5.57850769      -0.00297364      -0.00575298      -0.00404063
C       11.39147284       7.99287435      10.54660708      -0.00768911       0.00140229      -0.00461113
C       12.83167965       7.79199423       4.30916857       0.00233767      -0.00601700      -0.00199708
H       12.75877009       8.86275673       8.30778122      -0.00753713       0.00241268      -0.00303498
H       11.05063712       9.00355734       7.95981714      -0.00701731      -0.00734001      -0.00783820
H       11.18825215       7.01455713       6.44842224       0.00738755      -0.01159585      -0.00091884
H       12.89235488       6.84200606       6.83427344       0.00761002       0.00139023       0.00121810
H       10.65626745       6.74955345       8.94935905       0.00064003      -0.00542204      -0.00289106
H       12.36560908       6.56914773       9.25555795       0.00039548       0.00227831       0.00089732
H       11.55813361       9.15483728       5.36731861      -0.00693402      -0.01223075      -0.00624166
H       13.23689302       9.19762049       5.89728261      -0.00797167       0.00044157      -0.00566286
H       12.30093384       8.51467410      10.84667307      -0.00910181       0.00405970      -0.00369381
H       11.14494068       7.27569015      11.33121652      -0.00755723       0.00257786      -0.00373673
H       10.59010446       8.73258389      10.51092781      -0.00862330      -0.00042468      -0.00821375
H       13.71026393       7.16431316       4.48067760       0.00538066      -0.00090621       0.00001048
H       12.01583893       7.16133892       3.95998782       0.00623375      -0.01148498      -0.00132233
H       13.06198427       8.48991248       3.50313849      -0.00031124      -0.00695863      -0.00310923
C        7.04151281       4.95943393      10.31313765      -0.00131959      -0.00138962       0.00344144
C        8.39874080       4.43944346       9.85351014      -0.00050491      -0.00128299       0.00602491
C        7.09686969       6.36625885      10.90161683      -0.00216889      -0.00075948       0.00201708
C        8.33569364       3.08871122       9.14543513       0.00009373      -0.00166973       0.00681777
C        5.72292621       6.92431790      11.25085051      -0.00289780      -0.00099871      -0.00043675
C        9.67694250       2.66835063       8.55802172      -0.00024292      -0.00048048       0.00518125
H        6.35671065       4.95884354       9.45706383      -0.00003153      -0.00256485       0.00294244
H        6.61047014       4.27030420      11.04855197      -0.00176594      -0.00072573       0.00389737
H        9.08050643       4.37387309      10.70931576      -0.00173253      -0.00041969       0.00637105
H        8.84538806       5.17400515       9.17390730      -0.00005287      -0.00154516       0.00588563
H        7.73367829       6.36794563      11.79092070      -0.00367211       0.00050829       0.00311512
H        7.58370956       7.03025945      10.18026408      -0.00160855      -0.00170341       0.00202274
H        7.97821793       2.32240972       9.84183465       0.00223864      -0.00173038       0.00828689
H        7.59161633       3.14263877       8.34399201      -0.00067347      -0.00323588       0.00830838
H        5.08898428       6.98372515      10.36304278      -0.00174074      -0.00274437      -0.00177231
H        5.78835861       7.92627561      11.67567483      -0.00388699      -0.00037131      -0.00236757
H        5.21321715       6.29347648      11.98068982      -0.00357953       0.00018956      -0.00042698
H       10.03822749       3.41346953       7.84659717      -0.00292105      -0.00148977       0.00261101
H       10.43468991       2.56283172       9.33744162       0.00131138       0.00257334       0.00338963
H        9.60807761       1.71514423       8.03142933       0.00037965      -0.00170600       0.00717849
C        6.92491607       9.44369548       7.69721403       0.00538701       0.00243132      -0.00072658
C        7.46914237       8.07233131       7.31710007       0.00741965       0.00290830       0.00033483
C        8.00022688      10.52247039       7.70710261       0.00484467       0.00326800       0.00126718
C        6.37455128       7.03529115       7.11109800       0.00831991       0.00209894      -0.00083284
C        7.46100136      11.90112095       8.06452810       0.00289987       0.00147420       0.00444773
C        6.89974604       5.70842009       6.58556567       0.01039584       0.00280377      -0.00108565
H        6.15485452       9.72814204       6.97055368       0.00661516       0.00193781      -0.00144252
H        6.42364441       9.39745280       8.67388266       0.00497268       0.00218424      -0.00107074
H        8.16865421       7.72572468       8.08838254       0.00641459       0.00375520       0.00126493
H        8.04581795       8.16268253       6.39668290       0.00831968       0.00353064       0.00124544
H        8.79158035      10.23472034       8.40760460       0.00517537       0.00282621      -0.00011101
H        8.46736588      10.55077055       6.72165203       0.00420856       0.00584822       0.00097919
H        5.82357020       6.88329950       8.04705903       0.00831202       0.00107662      -0.00133047
H        5.65421407       7.43300282       6.39293683       0.00859606       0.00139503      -0.00112915
H        6.67054779      12.19855197       7.37171481       0.00446066       0.00377058       0.00479507
H        8.24068898      12.66409634       8.01387837       0.00303619       0.00236264       0.00714040
H        7.03150684      11.92123848       9.06945700       0.00209259      -0.00109086       0.00364269
H        7.33417995       5.84148001       5.59403549       0.01254813       0.00403152       0.00018233
H        7.67613590       5.30053206       7.23539770       0.00891113       0.00249337       0.00031541
H        6.10060090       4.96793041       6.51904963       0.01081929       0.00267947      -0.00376470
C        4.05428958       9.57587470       2.95240406      -0.00747609       0.00021297      -0.00047824
C        4.08950622       8.82489250       4.28185702      -0.01149336      -0.00524461      -0.00375880
C        5.10620967       9.08489234       1.96469217      -0.01160300      -0.00229821      -0.00354618
C        2.92917574       9.17707194       5.20575189      -0.00789312      -0.00075278      -0.00115640
C        5.24763833       9.97732268       0.74105806      -0.00916498       0.00311589       0.00161815
C        2.93559920       8.43919307       6.53733426      -0.00961520      -0.00478655      -0.00357389
H        3.05345552       9.49709550       2.50916944      -0.00842050       0.00942281      -0.00082541
H        4.22252028      10.64170259       3.14221910      -0.00099179      -0.00199407       0.00453132
H        5.04593869       9.02912788       4.77145748      -0.00992346      -0.01648301      -0.00217563
H        4.08369206       7.74575434       4.08746040      -0.02071052      -0.00387356      -0.00853022
H        6.06748229       9.02275265       2.46986673      -0.01070356      -0.01044897      -0.00639513
H        4.85640241       8.06534391       1.65354949      -0.01919691       0.00119874      -0.00662636
H        2.94563199      10.24814592       5.40767550      -0.00250117      -0.00141487       0.00157370
H        1.98881409       8.97938189       4.68388690      -0.00947174       0.00508073      -0.00004834
H        4.32865986      10.01328317       0.15164072      -0.00966847       0.01387509       0.00399579
H        6.05518997       9.62796564       0.09509778      -0.01273721       0.00535399      -0.00328702
H        5.49315269      10.99876362       1.03973077      -0.00586818      -0.00143395       0.01166436
H        2.99445610       7.35744689       6.40048976      -0.01202234      -0.00441326      -0.00691883
H        3.78629133       8.73753338       7.15315590      -0.00880931      -0.00919154      -0.00317099
H        2.02684950       8.64986323       7.10254950      -0.00835177      -0.00456911      -0.00177079
C        5.15249044       4.11183886       3.09072381       0.00982106       0.00233382       0.00344475
C        5.26062418       3.18261302       4.29217617       0.00787145       0.00064537       0.00222574
C        6.45160221       4.20290061       2.29880742       0.00885427      -0.00187969       0.00169174
C        4.02421725       3.17353841       5.18236882       0.00938821       0.00568914       0.00414780
C        6.33604080       5.07633614       1.06023498       0.01034198      -0.00058299       0.00244558
C        4.20516827       2.31472593       6.42791910       0.00852042       0.00835574       0.00585255
H        4.34343395       3.76929475       2.43375760       0.00759080       0.00663462       0.00421533
H        4.86690151       5.11417322       3.42785084       0.01446893       0.00276762       0.00538383
H        6.12785573       3.47625767       4.89033935       0.01024264      -0.00364406       0.00120062
H        5.46551419       2.16310289       3.94692234       0.00306109       0.00043461       0.00121491
H        7.23746456       4.60203244       2.94493474       0.01101789      -0.00544956       0.00085258
H        6.76280842       3.19192020       2.01355102       0.00465360      -0.00276268       0.00047822
H        3.78414405       4.20052042       5.47721313       0.01227921       0.00696433       0.00186552
H        3.16104002       2.82884325       4.60220149       0.00807500       0.00657867       0.00613923
H        5.55965440       4.70084219       0.38924094       0.00859317       0.00270101       0.00291476
H        7.27532633       5.10953549       0.50921976       0.01011229      -0.00373890       0.00173383
H        6.08915445       6.10293760       1.33130504       0.01474032      -0.00007001       0.00364113
H        4.49537181       1.29462641       6.16904391       0.00226266       0.00618508       0.00896448
H        4.99482331       2.71849193       7.06372761       0.01225030       0.00649706       0.00248310
H        3.29273636       2.25995203       7.02253518       0.01007141       0.01539852       0.00902470
