146
Lattice="13.446850284791292 0.0 0.0 0.0 13.446850284791292 0.0 0.0 0.0 13.446850284791292" Properties=species:S:1:pos:R:3:forces:R:3 energy=-918686.625 stress="0.0007494474411942065 9.724311530590057e-05 0.00040288282616529614 9.724311530590057e-05 0.001262409845367074 -9.617659816285595e-05 0.00040288282616529614 -9.617659816285595e-05 -0.002088397042825818" pbc="T T T"
Ta      15.57138521      12.63063332       0.35548007      -0.00025320       0.00230166      -0.00564907
Br       3.29038733      12.43689556       3.05648327      -0.00480777       0.00462842      -0.00385201
O        1.87516307      13.20475037       2.28922805      -0.00500429       0.00226519      -0.00677277
O        2.66348884      11.14980596       3.77086169      -0.00312945      -0.00082928      -0.01116821
O        3.79788601      11.96310695       1.47307221       0.00125515       0.01134539      -0.00445500
O        2.48910028      14.09319159      -0.44214748      -0.00495680       0.00222021      -0.00832050
Br       4.31470069      11.08495487      11.75233290       0.00202537      -0.00043022      -0.00262827
O        3.89610490      11.08321930      10.20991363       0.00088689      -0.00019860      -0.00256044
O        2.76490573      11.19709361      12.58165597       0.00196716       0.00061686      -0.00293919
O        4.86748510       9.67532155      12.26760595       0.00072691      -0.00045663      -0.00169367
O        5.11004872      12.37851384      12.24417266       0.00315070      -0.00064749      -0.00355887
Br      12.52698969      12.44101095      12.19689610      -0.00297631      -0.00927315       0.00283208
O       13.48930751      12.54352609      10.91945276      -0.00529116      -0.02194128       0.00075376
O       13.66956431      12.21915088      13.55585266      -0.00079761      -0.00360454      -0.00044644
O       11.74519162      13.78312982      12.55322019       0.00505835      -0.00310659      -0.00865200
O       11.66653878      11.10231554      12.28589732      -0.01005197      -0.00506312       0.02368796
Br       6.49792478      12.89123312       4.30408809      -0.01277191       0.01223491      -0.00707961
O        6.81124803      12.63979740       5.86521088       0.00984511      -0.00021887      -0.01396906
O        5.66964258      14.26904134       4.07710301      -0.02650708       0.00667322       0.01768744
O        7.85486413      12.87151681       3.43969079      -0.02477813       0.03338602      -0.02540815
O        5.48888450      11.66786217       3.77772154      -0.00856608       0.00868058      -0.00708836
Br       7.98716356      12.33463872      10.07210287      -0.00182188      -0.00764387      -0.00327337
O        9.34467566      11.91760885       9.28724633      -0.00256991      -0.00796556      -0.00545406
O        8.36980232      13.24757865      11.35948579       0.00022769      -0.01967263       0.00365686
O        7.00037203      13.19143049       9.09624170       0.00403976       0.00346255       0.00180209
O        7.20593677      10.98032559      10.54054350      -0.00769854      -0.00786686      -0.01499373
O        6.34067475       5.91104627       3.17232894       0.00165083       0.00060850       0.00050791
O        4.69994558       7.27452592       2.82694396       0.00575536       0.00485830      -0.00064105
O        6.81028782       8.09682056       2.81032419       0.00595582       0.00132895       0.01974164
C        7.76633931       5.65377890       3.23989218       0.00126085      -0.00263691       0.00715563
C        7.95307081       4.27890470       3.82021417      -0.00539807      -0.00690526      -0.00112593
C        6.02922597       7.18587210       2.92227519       0.00746191       0.00409883       0.00759707
C        4.21309282       8.60296958       2.55100960       0.00901999       0.00652982       0.00306754
H        8.17202796       5.74100447       2.23039850       0.00694709       0.00260688       0.01021624
H        8.22765501       6.42361869       3.85657959      -0.00096348      -0.00768691       0.01447839
H        9.01568469       4.03310720       3.81815554      -0.00593635      -0.00879054       0.00384532
H        7.61152860       4.24485342       4.85270082      -0.01282418      -0.01343477      -0.00396934
H        7.42103959       3.51936504       3.24851315      -0.00279169      -0.00184105      -0.01003833
H        4.67449232       9.32532714       3.21956634       0.00645036       0.00321960       0.00813460
H        3.14396459       8.55977405       2.72832202       0.00809816       0.00687166      -0.00218283
H        4.42838407       8.86916694       1.51620251       0.01381740       0.01074915       0.00525165
O       10.75887560       6.29281759       5.63112686      -0.00043482       0.01714402       0.00380460
O        9.25289164       7.83694812       5.58332286       0.01094735       0.01176355       0.00511752
O       11.36630267       8.40498109       6.18537958       0.01580846       0.02104032       0.01061630
C       12.10708658       5.85994048       5.89430504      -0.00616736       0.00356895      -0.00038113
C       12.15022226       4.36565435       5.71275275      -0.00423223       0.00598621      -0.00401830
C       10.54374966       7.60883676       5.82531472      -0.02746195      -0.01500142      -0.00768188
C        8.83632270       9.21005961       5.74150752       0.00067264       0.00885884       0.00146693
H       12.78092483       6.38805574       5.21588908      -0.00196576       0.00685811       0.00197768
H       12.36857294       6.13543300       6.91438877      -0.00308235       0.00174870       0.00233930
H       13.15545139       4.00741001       5.93772245      -0.00667417       0.00345116      -0.00609629
H       11.45517617       3.88835989       6.39944836      -0.00678897       0.00503784      -0.00574481
H       11.90248527       4.08254617       4.68930627      -0.00659773       0.01008264      -0.00552808
H        8.83025964       9.48025241       6.79604299       0.00172445       0.01187280       0.00247848
H        7.83280406       9.24365875       5.32856644       0.00302666       0.01375700       0.00056629
H        9.49984711       9.86012501       5.18126299       0.00458372       0.01018028       0.00222018
O        3.71025772       9.72438836       6.26953929      -0.00689098       0.00167269       0.00170386
O        3.10985047       7.80563063       5.46709698      -0.00626159       0.00190045      -0.00071135
O        4.54490299       7.84540636       7.21227905       0.00041091       0.00276715      -0.01073182
C        4.54271102      10.53179676       7.16054651      -0.00181843       0.00025946      -0.00126895
C        3.99293362      11.92946854       7.16140564      -0.00246894      -0.00020200       0.00462828
C        3.85841141       8.41929708       6.39922916       0.00025249      -0.00165719       0.00088215
C        3.21356591       6.37601528       5.48774802      -0.00354744       0.00152025      -0.00335030
H        4.52506200      10.08180862       8.15001906       0.00449849      -0.00184217      -0.00227505
H        5.56323791      10.50557708       6.77612826      -0.00455892       0.00185924      -0.00795171
H        4.62117282      12.54445129       7.80546646       0.00401710       0.00036235      -0.00214106
H        4.01931553      12.35348186       6.15920184      -0.01514508      -0.00011068       0.00478402
H        2.96793116      11.95062332       7.53121090       0.00129826      -0.00024146       0.01432273
H        4.25427283       6.06241069       5.45229048      -0.00338447       0.00338475      -0.00543681
H        2.69400984       6.04015255       4.59582541      -0.00452250       0.00279099      -0.00338313
H        2.74338047       5.96755109       6.38156198      -0.00196524      -0.00058559      -0.00367028
O        9.80403825       6.27880815       9.82927774      -0.00267492      -0.00426412       0.00221333
O        9.26578209       4.24633764      10.27657702      -0.00026596      -0.00732610       0.00046104
O       10.74150643       4.63174312       8.59017175      -0.01014829       0.00240356       0.01346016
C       10.28522986       7.26325158       8.88073280      -0.00179710      -0.00540668       0.00238650
C       10.17907891       8.65671630       9.44490279      -0.00525547      -0.00522572       0.00172558
C       10.00307994       5.00280106       9.47094939       0.01216608      -0.01233813      -0.01412767
C        9.37891257       2.81244628      10.15238684       0.00599328      -0.00760412      -0.00152973
H       11.31125887       7.01279742       8.61182482      -0.00046265      -0.00361398       0.00553037
H        9.66151665       7.14572295       7.99468631       0.00110665      -0.00707013       0.00082231
H       10.44264357       9.36245364       8.65663423      -0.00303586      -0.00539079       0.00157228
H        9.17522964       8.90152663       9.78684258      -0.00662830      -0.00539658      -0.00272722
H       10.86519261       8.82661085      10.27117250      -0.00872289      -0.00373231       0.00359577
H        8.37534181       2.41477654      10.02700452       0.00650680      -0.01077281       0.00366083
H        9.80349956       2.42854924      11.07661784       0.01162159      -0.00516094      -0.00303763
H       10.00102750       2.55805371       9.29893115       0.00233147      -0.00459230      -0.00391901
O        9.10427947       9.23036590       1.32217159       0.00714439       0.00174835       0.00477976
O       10.14531395       7.38041124       1.65467609       0.00271871       0.00622654       0.00338247
O       10.42048781       9.04098154       3.16254851       0.01513195       0.01336282       0.01329708
C        8.57697228      10.49959600       1.80279294       0.00333992       0.00376269      -0.00356999
C        7.58539603      10.97592900       0.78012889       0.00600731       0.00296567      -0.00587976
C        9.92518652       8.61624645       2.14680882      -0.00827089      -0.00216132      -0.02504843
C       11.06970898       6.58596007       2.39066536      -0.00059195       0.00080487       0.00027717
H        8.11558122      10.31240937       2.77085975       0.00178921       0.00907676      -0.00178218
H        9.41010328      11.18756313       1.94492303       0.00529546       0.00413996      -0.00353153
H        7.12922256      11.89917800       1.13453267       0.00661756       0.00413604      -0.01164240
H        8.05446958      11.17542096      -0.18214655       0.00980040      -0.00267244      -0.00553590
H        6.80086346      10.23381357       0.64070628       0.00640063       0.00157700      -0.00487866
H       12.02620705       7.10082872       2.48963624       0.00169635       0.00008431      -0.00016648
H       11.17610780       5.67174611       1.81124391      -0.00057216       0.00113547       0.00264141
H       10.68411494       6.36435549       3.38289971       0.00153832       0.00126339       0.00234020
O        8.03798737       6.69036254      12.52462957       0.00545347      -0.00249010       0.00279544
O       10.04014938       7.44420317      12.33673913       0.00587612      -0.00211817       0.00120318
O        9.75792773       5.31676038      13.06862807       0.00469881       0.00120831      -0.00204712
C        7.09823916       5.62590114      12.76981925       0.00665170      -0.00412881       0.00225421
C        5.72619502       6.24611344      12.78726487       0.00615478      -0.00502664       0.00197107
C        9.32412268       6.37252192      12.67823927       0.00803885      -0.00804514       0.00352585
C       11.45041622       7.26853975      12.37327146       0.00564602      -0.00440896      -0.00013060
H        7.20713886       4.88302386      11.97743762       0.00740772      -0.00303450       0.00127530
H        7.34404162       5.14214696      13.71610492       0.00721532      -0.00447345       0.00147736
H        4.97409523       5.47956185      12.97370848       0.00682828      -0.00613789       0.00119272
H        5.65833477       7.01034450      13.56172193       0.00471893      -0.00582716       0.00258277
H        5.49631279       6.71685831      11.83311458       0.00614181      -0.00482857       0.00224331
H       11.75216176       6.70850333      13.25393131       0.00678691       0.00082162       0.00229681
H       11.86899850       8.27070750      12.39242772       0.00658707      -0.00452736      -0.00674126
H       11.78055879       6.73533380      11.48003009       0.00346605      -0.00985941       0.00226283
O        7.29544872       5.17224330       8.15042426      -0.00175196       0.00038368       0.00202265
O        7.94387471       3.33755026       7.19879814      -0.00227320      -0.00056496       0.00365645
O        5.76261740       3.54897953       7.77117496      -0.00469851      -0.00033343       0.00270759
C        6.25887903       5.89834398       8.86813732      -0.00158438       0.00168502      -0.00020543
C        6.78783621       7.26552066       9.19689229      -0.00107631       0.00173378      -0.00065127
C        6.89069245       3.97457113       7.71435685       0.00151777       0.00103876       0.00219793
C        7.65512920       1.99861813       6.73306673      -0.00215882      -0.00039107       0.00377094
H        5.37566452       5.94467520       8.23679112      -0.00098449       0.00198908      -0.00110114
H        6.01479243       5.32358783       9.76224517      -0.00324346       0.00277621       0.00025761
H        6.00369220       7.86384047       9.65986004      -0.00102292       0.00305246      -0.00234982
H        7.62395355       7.20948636       9.88837754      -0.00223789       0.00140212       0.00095305
H        7.09337731       7.78745551       8.29090249       0.00105510       0.00034726      -0.00049064
H        7.43521462       1.34034383       7.57271160      -0.00097592      -0.00065091       0.00400591
H        8.55930590       1.67186518       6.22711407      -0.00288346      -0.00055694       0.00250582
H        6.81528313       2.01524031       6.04277379      -0.00330025      -0.00057125       0.00489438
O        3.39650058       5.28410853      10.35263041       0.00082985      -0.00140190       0.00224316
O        4.34220341       3.34996715      10.55140311       0.00219554      -0.00182196       0.00296330
O        2.61165926       3.56650476       9.09768192       0.00745702       0.00127935       0.01391685
C        2.42531691       6.13531789       9.72347914      -0.00111678      -0.00291979       0.00134146
C        2.64037073       7.53430094      10.23868070      -0.00036414      -0.00231278       0.00027901
C        3.37917778       4.00517264       9.91406876      -0.01000780      -0.00748122      -0.00730735
C        4.48436243       1.96067497      10.16832995       0.00034730      -0.00212109       0.00224861
H        2.55949973       6.07962946       8.64231670      -0.00201023      -0.00391967       0.00167179
H        1.42619464       5.75900156       9.95453775      -0.00005251      -0.00282809       0.00320509
H        1.89529365       8.20542295       9.80887102      -0.00157921      -0.00289610       0.00067055
H        2.55205702       7.57257604      11.32403756       0.00093371      -0.00158116       0.00026277
H        3.62435740       7.90619513       9.95850164      -0.00125328      -0.00180909      -0.00135563
H        3.63364753       1.39322601      10.53823114       0.00199282      -0.00167185       0.00579956
H        5.39966418       1.61996529      10.64227065       0.00232932      -0.00120986      -0.00052908
H        4.56638352       1.89124121       9.08852481      -0.00351277      -0.00242674       0.00245214
