149
Lattice="12.486968331071234 0.0 0.0 0.0 12.486968331071234 0.0 0.0 0.0 12.486968331071234" Properties=species:S:1:pos:R:3:forces:R:3 energy=-629299.625 stress="-0.0018177999882027507 -0.0005298078758642077 0.0009111867402680218 -0.0005298078758642077 -0.00011307398381177336 -0.0015453258529305458 0.0009111867402680218 -0.0015453258529305458 -0.0016307249898090959" pbc="T T T"
Ta      12.47510041      11.89176251      -0.33996839      -0.00474384       0.00514297      -0.01418000
S        2.07301538      12.12396188       6.45598289      -0.00302947       0.02253431      -0.00819141
F        4.64341507      11.74447787       5.88672012       0.00401026       0.02637655      -0.00204182
F        4.23368981      13.58352377       6.95984271       0.00085971       0.02454019       0.00250930
F        3.75183697      13.42560609       4.85100124      -0.00900355       0.02614802       0.00442594
O        1.32777068      13.35885602       6.61776222      -0.00247109       0.02306318      -0.00816489
O        2.32286909      11.36226555       7.66517498      -0.01559931       0.01573753      -0.01138043
O        1.72796794      11.33493342       5.28994690       0.01018173       0.02761686      -0.01607275
C        3.76567615      12.73730262       6.02973422       0.00034714       0.02345943       0.00312412
S        1.85044777       9.66595880       1.33158964      -0.01691842      -0.00254735      -0.00741005
F        4.27349009      10.42058685       0.78072005      -0.01433682      -0.00246778       0.00286430
F        3.31737850       9.22201870      -0.75896062      -0.00743847       0.00118015      -0.00314590
F        4.00887833       8.28612670       1.06662897      -0.01843035      -0.00246483      -0.00138044
O        1.02568094       8.55731692       0.96815425      -0.01656060      -0.00135608      -0.01204740
O        1.39819926      10.92534119       0.44677802      -0.01286507      -0.00063473      -0.00609171
O        2.01614865      10.10012511       2.66823055      -0.02232724      -0.00419237      -0.00671127
C        3.50403583       9.38899199       0.54307411      -0.01427007      -0.00120850      -0.00214425
S        6.12703954      11.66929675      10.30198395       0.00568593       0.01112843       0.00687195
F        7.12982429       9.36586581       9.42140525      -0.00514168       0.00640726       0.00476229
F        4.97177144       9.42120831       9.46057808      -0.00399601       0.01640657       0.00972265
F        6.09179658       9.21215617      11.31098554      -0.00118462       0.01170093       0.00702369
O        4.91028781      11.92489815      11.06180888       0.01253891       0.01387307       0.01530290
O        6.12809852      12.16223366       8.94687714      -0.00215070       0.01145220       0.00683784
O        7.35637379      11.85828088      11.05293691       0.01095939       0.01008496      -0.00079334
C        6.07899111       9.82496963      10.09723903      -0.00112185       0.01135826       0.00727111
S       11.03530598      10.60527901       9.29479553       0.01624247       0.00149244      -0.02571815
F       12.88832118       8.83915533       9.94830792       0.01901266      -0.00187186      -0.03466557
F       11.54540078       8.19058971       8.38792560      -0.01060526      -0.01947063       0.00282630
F       10.85921113       8.25412442      10.42978175       0.02903385       0.00651685       0.01477271
O        9.62983756      10.60197456       9.41187239      -0.00293583      -0.01429193       0.00662771
O       11.79161099      11.24722365       8.28965412      -0.02723008      -0.02360392      -0.01066795
O       11.61644162      11.09794906      10.72850639       0.00257868      -0.00293189      -0.01506275
C       11.62716272       8.85286818       9.51293601       0.01080328      -0.00402999      -0.00784044
S        9.13404170       8.76967382       6.14420242      -0.01335299      -0.01357985      -0.00550018
F        6.67949985       9.70555346       6.46394192      -0.00749695       0.00135598      -0.00229415
F        7.90832722      10.83829219       5.08432232       0.00004759      -0.00410819      -0.00028825
F        8.22650128      11.02649092       7.20649461       0.00121231      -0.01006579       0.00008988
O       10.40969234       9.44577887       6.08477278      -0.01100564      -0.02187216      -0.01014991
O        8.72820325       8.10314279       4.90983606      -0.02284759      -0.01153100      -0.00327063
O        8.89267533       7.97584881       7.33795101      -0.01451394      -0.01188874      -0.00367880
C        7.91403752      10.16347219       6.25154914      -0.00468957      -0.00649452      -0.00168045
O        4.18720839       8.60718482       4.71998959      -0.00153923       0.00757174      -0.00452185
N        2.06311827       8.11493422       5.38916558      -0.00271046       0.01353440      -0.00449446
C        1.73832359       7.32604558       4.22967308       0.00329015      -0.00232960       0.00526620
C        1.00860162       8.34509511       6.34623068      -0.00419331       0.01833896      -0.00716466
C        3.26352541       8.73056850       5.50574133      -0.00377107       0.01512963      -0.00752771
H        0.90569108       7.78096935       3.68846831       0.00068456      -0.01480171      -0.00066307
H        1.42058607       6.32059379       4.52615268       0.01033197      -0.00055310       0.01770385
H        2.61477707       7.25898179       3.58650338       0.00408128      -0.00434422       0.00675066
H        0.17192285       8.88815808       5.90441165      -0.00667638       0.00930193      -0.01272887
H        1.39853423       8.93390690       7.17561739      -0.00822817       0.02860352      -0.01288319
H        0.63653254       7.38379729       6.71354433       0.00014080       0.02053452       0.00201193
H        3.32508960       9.35032378       6.41371638      -0.00614642       0.02440619      -0.01434326
O       10.60181797       6.15859923       3.28588923      -0.01936841      -0.01825628      -0.00061798
N        9.44179501       7.13429626       1.57977100      -0.01652621      -0.00755754       0.00404671
C       10.62607698       7.54104321       0.86532757      -0.01575311       0.00001948       0.00995839
C        8.17251309       7.29504281       0.89758302      -0.01498199      -0.00639761       0.00195830
C        9.54723141       6.51499890       2.77939462      -0.01830709      -0.01602229      -0.00039423
H       10.53277628       8.58100460       0.54927472      -0.01923869       0.00091404       0.01426355
H       10.77752031       6.94222907      -0.03596311      -0.01049726       0.00468716       0.00804842
H       11.48948363       7.44145694       1.51385720      -0.01749304       0.00059376       0.01208085
H        8.04423832       8.32373964       0.55889447      -0.01246191      -0.00647533       0.00155676
H        7.34911244       7.04102554       1.56287327      -0.01645237      -0.00408529       0.00088456
H        8.13131494       6.65029503       0.01283031      -0.01451983      -0.00673848       0.00218147
H        8.57141244       6.34012861       3.25173501      -0.01941621      -0.02070628      -0.00444365
O       11.92044352       0.98748965       0.64419811       0.01866555       0.01165491      -0.00829464
N       11.00967498       3.00156275       1.17944917       0.00455260       0.00450766      -0.00965241
C       10.52234809       2.60117256       2.48843760       0.00133729      -0.00129579      -0.01279801
C       10.79830416       4.38160609       0.78575078      -0.00319865       0.00216711      -0.00977139
C       11.63856716       2.21214467       0.36814460       0.01436847       0.01081698      -0.00735313
H        9.43840416       2.71274554       2.51229056       0.00027210      -0.01778931      -0.02086498
H       10.95631533       3.26843230       3.23270991      -0.01414604       0.00734344      -0.01260027
H       10.78630586       1.57343347       2.70113879       0.01563959       0.00377029      -0.00794529
H        9.72799789       4.57572610       0.71711220      -0.00362048      -0.00556283      -0.00865057
H       11.26764984       4.55787366      -0.17769036      -0.00584966       0.00403348      -0.01016088
H       11.21783018       5.03188814       1.55299146      -0.00662898       0.00356172      -0.01060617
H       11.96546444       2.61860060      -0.57736090       0.02101653       0.01524589      -0.00332799
O        9.74708855       0.71328328       4.63103949       0.00426584       0.00345016      -0.00864387
N        8.27323256       2.25478177       5.45349305       0.00298595      -0.00245389      -0.00001578
C        7.07858568       1.58389330       4.97958003       0.00378157      -0.00511852       0.00240064
C        8.09948134       3.54373678       6.07507299       0.00154439      -0.00317861       0.00146673
C        9.49662406       1.71495191       5.27772741       0.00366929       0.00201774      -0.00662410
H        6.60943607       2.15477234       4.17369999      -0.00050184      -0.00452086       0.00553849
H        6.37612953       1.47914419       5.80653809       0.00690037      -0.00966857       0.00424170
H        7.35138879       0.59623740       4.62269623       0.00572482      -0.00318867      -0.00112666
H        7.60339167       4.23589491       5.38843677      -0.00403988      -0.00479877       0.00370872
H        9.07036216       3.95883425       6.33751298       0.00164521      -0.00085756      -0.00254963
H        7.48722865       3.46158820       6.97669419       0.00553900      -0.00565378       0.00402442
H       10.28736109       2.30510333       5.77629162       0.00360066       0.00372589      -0.00955802
O        6.21647346       9.55167637       2.72719563       0.01201320      -0.01284394      -0.01464644
N        7.95444047      10.90490519       2.11369036       0.00476557       0.00398678       0.00314385
C        7.12596808      12.02561017       1.72845020      -0.00198798      -0.00078072       0.00432094
C        9.37460740      10.98631256       1.89203005       0.00582799       0.01728511       0.01576889
C        7.40682812       9.77854545       2.62189127       0.01095176      -0.00265786      -0.00573710
H        7.04377482      12.10901033       0.64008041       0.00074394       0.00248002       0.00460684
H        7.55727622      12.94829954       2.12352619      -0.01010633       0.00092298       0.00849934
H        6.14280205      11.87266133       2.16586677      -0.00244763      -0.00921433       0.00014469
H        9.58947878      11.02381985       0.81474024       0.01557585       0.02710015       0.01790762
H        9.85898879      10.11371608       2.33177707       0.00910085       0.01804820       0.01322873
H        9.78632354      11.87651295       2.37268970      -0.00578078       0.01686111       0.02576983
H        8.17488397       9.06594407       2.95249129       0.01417828       0.00195223      -0.00438440
O        5.70763729       2.67116986      10.61587384       0.00970936       0.02454311      -0.01399804
N        3.59433942       3.41176556      10.99921178       0.00723189       0.00565004       0.00224540
C        4.01426733       4.77316200      11.23925552      -0.00225835       0.00673036       0.00972428
C        2.18305051       3.14705576      10.97795978       0.00950818      -0.00486965       0.00888505
C        4.51511767       2.45135033      10.68677791       0.01153183       0.01476058      -0.00933794
H        3.58127463       5.15019264      12.16749810      -0.00331062      -0.00393276       0.01342544
H        3.71126799       5.43180561      10.41949178      -0.01047754       0.00925714       0.01544374
H        5.09731511       4.77965859      11.32288762      -0.00234982       0.01386110       0.00681546
H        1.72349308       3.51581978      11.90117505       0.01467086      -0.01267579       0.01433328
H        1.99785755       2.07214155      10.90046189       0.01609943      -0.00466168      -0.00248101
H        1.69148352       3.64722166      10.13461912       0.00017065      -0.00580531       0.01393616
H        4.08206608       1.45471513      10.51898171       0.01802585       0.01289237      -0.01450653
O        5.65065322       2.94139950       1.88244295       0.01285481      -0.01492447      -0.00441158
N        3.48590093       2.22539353       2.01710607       0.00933203      -0.00367671       0.00088425
C        3.76029830       0.90110457       1.50890182      -0.00040334      -0.00358026      -0.00393055
C        2.14741964       2.49160427       2.47972627       0.01378341       0.00109359       0.01102632
C        4.47499631       3.14138139       2.14074713       0.01482999      -0.00993274       0.00079620
H        3.12675700       0.69005267       0.64283619      -0.00819615       0.00149407       0.00082454
H        3.57551173       0.14888990       2.27879575       0.00163411      -0.00460887      -0.00454539
H        4.79257043       0.86288519       1.17788414      -0.00345713      -0.00817786      -0.01233772
H        1.43644239       2.36517051       1.65844645       0.00773090       0.01016071       0.01505145
H        2.08048586       3.51863872       2.83909622       0.02226997      -0.00087079       0.01758821
H        1.86463618       1.80890461       3.28564680       0.01507471      -0.00190786       0.00846067
H        4.11911032       4.11892226       2.50194646       0.02163361      -0.00954998       0.00580534
O        4.93578324       6.06696580       2.96119691      -0.00135148      -0.00281233       0.00218272
N        5.47783954       5.97218294       5.18187742      -0.01106840      -0.00367999       0.00371611
C        4.44399693       5.03077172       5.52962509      -0.00805230      -0.00872314      -0.00196745
C        6.16189534       6.63079692       6.27389078      -0.01718141      -0.00478251       0.00790744
C        5.55563549       6.48576709       3.92875301      -0.00607485      -0.00222242       0.00487649
H        3.69393220       5.51588712       6.16402404      -0.01269969      -0.01343834      -0.00418118
H        4.85388199       4.17678969       6.07351499      -0.00634582      -0.00746247      -0.00153327
H        3.96349966       4.67797714       4.62168170      -0.00290109      -0.00957959      -0.00408426
H        5.49655548       7.30777486       6.81459637      -0.02143732      -0.00905976       0.00796041
H        6.99720218       7.20215564       5.88304644      -0.01845729      -0.00062558       0.01222515
H        6.55180990       5.88702843       6.97214341      -0.01655046      -0.00534737       0.00686544
H        6.26488984       7.32173573       3.86151956      -0.00755364      -0.00100875       0.00824715
O       10.71072106       1.59455458      10.32100768       0.03690824      -0.00822258       0.00061262
N        9.79342645       3.52154673       9.49528940       0.01900873      -0.01481503       0.00650853
C        8.46060696       3.25807101      10.02169569       0.02360392      -0.02247798       0.01338656
C       10.05901044       4.85183295       8.97212455       0.00303545      -0.01469299      -0.00091255
C       10.78513595       2.63181839       9.66096056       0.02596843      -0.00766212      -0.00076738
H        7.72430525       3.71040693       9.36185357       0.01756534      -0.03699607       0.01109418
H        8.31988024       3.69400272      11.01465235       0.02213500      -0.01190664       0.00825784
H        8.27474338       2.19013006      10.08152056       0.03448385      -0.02334219       0.02631745
H        9.30954635       5.15297829       8.24184622      -0.00629014      -0.02587836       0.00446752
H       11.03775109       4.87406963       8.49639134      -0.00161099      -0.00656842      -0.00909755
H       10.04194842       5.59835397       9.77230399       0.00166209      -0.01135485      -0.00413185
H       11.71659884       2.92563370       9.14970322       0.01971012      -0.00228921      -0.00849441
