139
Lattice="12.43150547304593 0.0 0.0 0.0 12.43150547304593 0.0 0.0 0.0 12.43150547304593" Properties=species:S:1:pos:R:3:forces:R:3 energy=-390426.1875 stress="-0.0006741856341250241 0.00032533140620216727 0.0005040652467869222 0.00032533140620216727 -0.0021461413707584143 0.0002643767948029563 0.0005040652467869222 0.0002643767948029563 -0.00034467506338842213" pbc="T T T"
Tb      11.51405421      11.67174399       0.31084842       0.00302517      -0.00022806      -0.01035843
O        0.93447160      11.43731299      -0.50189738      -0.02094561       0.02262166      -0.01005268
H        1.86077357      11.20712912      -0.44531417       0.01812026       0.01800555      -0.04097352
O       -0.45753349      11.38917737       2.32375728      -0.01588100      -0.01448138      -0.04094326
H       -0.34443555      11.45412808       3.27102583      -0.02178865      -0.03395604       0.00336364
O       10.42020829      12.43517809      10.93620260       0.00415677       0.00223210      -0.01707900
H       10.92469987      13.02901472      10.37099720       0.01212637      -0.00220656      -0.01346809
O        5.72385750       4.60416427       9.53959855      -0.00028172      -0.00117239       0.00802827
C        4.64831471       4.68046411      10.47612080      -0.00184608       0.00459659       0.00500695
C        4.63092536       6.02706647      11.17745810       0.00064070       0.00617158       0.00162527
C        3.32354780       4.34953702       9.80722780      -0.00104165       0.00615461       0.00303137
H        4.87715146       3.90415253      11.21200587      -0.00552140       0.00569138       0.00745511
H        3.86134177       6.05617803      11.95015534      -0.00076108       0.01069035      -0.00027241
H        5.59660130       6.22220547      11.64347611       0.00007285       0.00454093       0.00278911
H        4.41937359       6.82772832      10.46303772       0.00439806       0.00468784      -0.00119172
H        2.51630275       4.30436858      10.54077611      -0.00256611       0.00884840       0.00153250
H        3.38720814       3.38668541       9.30017740      -0.00119877       0.00558899       0.00426282
H        3.06709112       5.11189683       9.06736050       0.00183077       0.00567989       0.00174757
H        5.69335023       5.38528138       8.97868597       0.00468922      -0.00058539       0.00674116
O        9.52895630       9.76870552       9.21868328       0.01146221       0.01130092      -0.00463563
C       10.58668715       9.07985743       9.87691176       0.00881827       0.00730537      -0.00532615
C       11.94707855       9.52185382       9.36893863       0.00972992       0.00301796      -0.00508451
C       10.43357996       9.30126891      11.38457971       0.00753039       0.00630274      -0.00496215
H       10.42832342       8.02360095       9.64113650       0.00552885       0.00814986      -0.00537625
H       12.74317960       8.92745803       9.82310320       0.00703968      -0.00245456      -0.00853757
H       11.99252672       9.40423999       8.28627122       0.00782214       0.00557071      -0.00549796
H       12.12747783      10.56797065       9.62485075       0.01564221       0.00099382      -0.00292291
H       11.37321691       9.12558261      11.93358631       0.00966476       0.01883337      -0.00497317
H        9.65059220       8.67657964      11.81025974       0.01660098      -0.00205365      -0.00294679
H       10.09351970      10.33749813      11.46557143      -0.00733099       0.00089520      -0.00559724
H        9.63695766      10.70582402       9.43870840       0.01521616       0.01027138      -0.00763345
O        8.96460385       5.65830097       7.40558577      -0.01615918       0.00384471      -0.01129406
C       10.29157767       6.08162081       7.09548380      -0.01364756       0.00361775       0.00182629
C       10.94773058       5.10112163       6.13923872      -0.00264508       0.00060725       0.01335502
C       10.29645216       7.49747494       6.53795492      -0.00777188       0.00108624      -0.00321302
H       10.82322973       6.06737821       8.05206257      -0.02450401       0.00744754       0.00745451
H       11.96039462       5.41000756       5.87237814       0.00028525      -0.00019082       0.02570782
H       10.97727295       4.09650853       6.56188510      -0.00831225       0.00219902       0.01704349
H       10.36290382       5.06100786       5.21848501       0.00932391      -0.00206580       0.00648017
H       11.31716319       7.83511333       6.34317485      -0.00654341       0.00010825       0.00378599
H        9.82146965       8.19560328       7.22697871      -0.01284006       0.00414890      -0.00951150
H        9.75152465       7.52110267       5.58973498       0.00012702      -0.00224427      -0.00732030
H        8.48070845       5.61107247       6.56938511      -0.00537048      -0.00223635      -0.01718528
O        3.13113666       8.87232251       5.65493696       0.00054765       0.00313753      -0.00348246
C        3.02649653       8.68758579       4.23790131       0.00021091       0.00790009      -0.00396413
C        1.57799684       8.60210000       3.80423954       0.00036448       0.00577579      -0.00304091
C        3.77744298       9.77235890       3.48632484      -0.00299552       0.01258725      -0.00052944
H        3.50733612       7.71987827       4.06332373       0.00301328       0.00998390      -0.00728769
H        1.50807814       8.41274993       2.73185343      -0.00002932       0.01231875      -0.00427942
H        1.05502044       7.80335983       4.32835555       0.00361070       0.00077559      -0.00714080
H        1.06690696       9.55072624       3.98744493      -0.00211028       0.00257942       0.00329126
H        3.75935836       9.57468125       2.41233893      -0.00606835       0.01812821      -0.00165407
H        4.81424923       9.84808376       3.81386793      -0.00244193       0.01185447      -0.00328615
H        3.30063864      10.74360064       3.64194455      -0.00353068       0.01096711       0.00539394
H        2.72597886       9.71912697       5.86702118       0.00409462       0.00423336      -0.00115877
O        8.78190037       1.12117590       8.54581479       0.01156259      -0.00660467       0.02765730
C        7.90754884       2.07966084       9.15237534       0.00606683      -0.00408939       0.01310635
C        6.77977749       1.36923295       9.88439151       0.00551522      -0.00047520       0.01501945
C        8.68665408       3.02430112      10.05117494      -0.00268263       0.00782484       0.00757384
H        7.48217805       2.65501524       8.32666852       0.00708026      -0.01261973       0.00779825
H        6.10261275       2.09186972      10.34000498      -0.00274012       0.00119813      -0.00034530
H        6.21327791       0.73975839       9.19642886       0.01469161      -0.01377537       0.02063014
H        7.19471312       0.73169414      10.66994103       0.00272319       0.01438613       0.02678832
H        8.03030168       3.78761881      10.46764286      -0.00800858       0.01038264      -0.00647485
H        9.46995342       3.52074894       9.47722753       0.00078477       0.00355070       0.00878076
H        9.14261505       2.46169395      10.86857474      -0.00805377       0.02004556       0.01710308
H        9.18638738       0.63216375       9.27883948       0.01024045      -0.00116237       0.03392599
O       11.89015969       6.38137490       2.32395641      -0.01243860      -0.01471443       0.00346839
C       10.58217460       6.95837260       2.41652576      -0.01139411      -0.01235050       0.00083686
C       10.67616084       8.44533308       2.68605930      -0.00954980      -0.01364338       0.00488079
C        9.76422823       6.62037769       1.17896160      -0.00732833      -0.00384159      -0.00443095
H       10.13749810       6.46992151       3.28961696      -0.01640937      -0.01649512      -0.00447395
H        9.68654964       8.89592660       2.77793207      -0.00959231      -0.01288496       0.00566092
H       11.22881087       8.64430922       3.60236029      -0.00951709      -0.01303754       0.00425355
H       11.20454929       8.95859242       1.87828384      -0.00981786      -0.01143040       0.00627835
H        8.84048098       7.20109920       1.14588074      -0.00536899      -0.00124057      -0.00447162
H        9.50377299       5.56471825       1.15243566      -0.01049710      -0.00298366      -0.01196036
H       10.33824009       6.85482381       0.28116118      -0.00284867      -0.00054707      -0.00037760
H       12.36477186       6.86467126       1.63997356      -0.00517577      -0.00573698       0.01491962
O        9.29408824       3.36044256       1.82674536       0.00671899       0.00033343       0.02634656
C       10.71326299       3.15967706       1.72114283       0.00463367      -0.00167716       0.01183598
C       11.39477927       3.39411084       3.04981380       0.01687589      -0.02304058       0.00831461
C       10.99672995       1.77042356       1.18409013      -0.00313979       0.00663316      -0.01268619
H       11.04093339       3.91036780       0.99934829       0.00051275       0.00797865       0.02150241
H       12.47472687       3.28659051       2.95471064       0.01481514      -0.03059702      -0.00200853
H       11.19825470       4.39963724       3.40375187       0.02784701      -0.02540833       0.02088419
H       11.04087720       2.67296482       3.79074455       0.01762210      -0.02823560       0.00286056
H       12.08229857       1.63524168       1.02930015      -0.00506249       0.00721671      -0.02080052
H       10.45692841       1.60752359       0.24515992      -0.00755601       0.02314584      -0.01149042
H       10.68490646       1.04056179       1.94252390      -0.00130983      -0.00394326      -0.02240741
H        8.95750916       2.73328241       2.47666390       0.00625374      -0.02030969       0.00545573
O        6.12142760       2.99633149       4.68056233       0.00602588      -0.00416845      -0.00086018
C        7.06280555       1.91416463       4.78986294       0.00370678      -0.00543493       0.00319096
C        8.39004608       2.40182153       5.33716066       0.00280911      -0.00905600       0.00774398
C        6.44221613       0.82704468       5.63873838      -0.00310278      -0.00271475       0.00196105
H        7.22687680       1.51139626       3.77967296       0.00447656      -0.00661492       0.00427479
H        9.09109306       1.57249351       5.43564563      -0.00142867      -0.01114324       0.01325170
H        8.83392335       3.15533448       4.68295084       0.00916097      -0.01239404       0.00832669
H        8.26784769       2.84626335       6.32480510       0.00053730      -0.00686558       0.00636643
H        7.09878253      -0.04102676       5.67671891      -0.00783040      -0.00627095       0.00342301
H        5.48501861       0.51671003       5.21899539      -0.00374880       0.00315968      -0.00018035
H        6.28696462       1.19157368       6.65404485      -0.00411383      -0.00207876       0.00128159
H        6.61183977       3.83316485       4.76202846       0.00400256      -0.00478061       0.01621184
O        6.71953867      11.70109760       2.73464375      -0.00910592       0.00744534      -0.02225566
C        7.42265598      10.77921877       1.90465267      -0.00535798       0.00306102      -0.01409084
C        6.61597854      10.42590058       0.66950232      -0.00029975      -0.00435196      -0.01470441
C        8.80140454      11.32657726       1.56493639      -0.00427705       0.00143015      -0.01090325
H        7.53819873       9.89123860       2.53164649      -0.00710544       0.00685176      -0.00866401
H        7.13495245       9.68996136       0.05223181       0.00519450      -0.00281928      -0.01163533
H        5.64460971      10.02398662       0.95555871       0.00109808      -0.00852828      -0.01626702
H        6.45461456      11.31695668       0.05729309      -0.00342536      -0.00679599      -0.01731478
H        9.36466303      10.54381346       1.04122633       0.00050574      -0.00234240       0.00091027
H        9.34719386      11.58841994       2.47257336      -0.01008490       0.01006731      -0.01063785
H        8.71138577      12.20489409       0.91208399      -0.00127333      -0.00421652      -0.01900276
H        6.60061171      12.50934102       2.22405788      -0.01713288      -0.00001021      -0.03153089
O        4.83778461       3.59089281       2.27796192       0.00421762       0.00401229       0.00021619
C        3.94464505       2.68743210       1.63586032       0.00301474       0.00217479       0.00502057
C        3.74268538       1.40827042       2.42971159      -0.00544420       0.01025254       0.01476097
C        2.62482242       3.39993443       1.39177038       0.00790477       0.00667185      -0.00550287
H        4.37935644       2.42524979       0.65895045       0.00457737      -0.00847523       0.00855988
H        3.06388354       0.73426325       1.90267211      -0.00550252       0.00876342       0.01727393
H        4.68288929       0.87843722       2.58835306      -0.00813103       0.00845566       0.02362211
H        3.31378491       1.63249605       3.40884660      -0.01119258       0.01881754       0.01026919
H        1.95176485       2.77690957       0.79837759       0.00573181       0.00504357      -0.00090227
H        2.79059159       4.33889239       0.86351597       0.01453139       0.00030068      -0.01411173
H        2.14906431       3.63031668       2.34607293       0.00693065       0.01882471      -0.00943235
H        5.18684873       3.20821974       3.10468996       0.01026130       0.00277731      -0.00271541
O        7.46285363       5.46743119       4.70918367       0.00055403      -0.00521374      -0.00757945
C        6.34533447       6.36178591       4.42860782       0.00367367      -0.00491610      -0.00053599
C        6.19909688       7.28177645       5.61709568       0.01168134      -0.00869605       0.00314522
C        6.59779653       7.07764690       3.12176628      -0.00314724       0.00153831       0.00171727
H        5.45023993       5.73767106       4.32597096       0.00183463      -0.00201720       0.00392050
H        5.33116288       7.93053067       5.50627343       0.01090780      -0.00989830       0.00999973
H        6.06263090       6.70263381       6.53106543       0.02091913      -0.01072507       0.00341934
H        7.09123663       7.89828058       5.73761142       0.01086131      -0.00674845      -0.00049827
H        5.76929313       7.74260980       2.87711717      -0.00530347       0.00222012       0.00763400
H        6.70347810       6.35922027       2.30552197      -0.00650921       0.00577080      -0.00187990
H        7.50897814       7.67641834       3.19505468      -0.00469357       0.00261911      -0.00010517
H        7.94531211       5.32239937       3.88644008      -0.02392139      -0.03240883      -0.01688606
