136
Lattice="12.703773693868303 0.0 0.0 0.0 12.703773693868303 0.0 0.0 0.0 12.703773693868303" Properties=species:S:1:pos:R:3:forces:R:3 energy=-431054.75 stress="-8.330622222274542e-05 0.00014668406947748736 0.00041204708395525813 0.00014668406947748736 -9.987840167013928e-05 0.0003091517137363553 0.00041204708395525813 0.0003091517137363553 -0.0004223950963933021" pbc="T T T"
Tb       9.87252066      11.57256566       1.46142117      -0.00914285      -0.01223714       0.01175551
O        9.98599939      12.29010231       4.90093522      -0.01798105      -0.02469295      -0.00523126
O       10.58707858      10.84467207       3.35659595       0.00239629      -0.02661157       0.00588882
O       11.11904222      10.41967974       5.49836442      -0.00156224      -0.00964177       0.01109517
C       10.62412022      11.08956888       4.62604283      -0.00534749      -0.01949817       0.00344715
H       10.03196368      12.41737558       5.85634049      -0.01808975      -0.01366854      -0.00653061
O        1.10507224      11.73205670       1.96717261      -0.02371521       0.00059122       0.02315199
O        0.71468800      13.64978199       0.90334305      -0.00033563      -0.02683640      -0.02988493
O       -0.84538140      12.03644241       0.90888273      -0.01365107      -0.01147059       0.00178415
C        0.31853949      12.55125954       1.21428144      -0.01151677      -0.01316249      -0.00457528
H        0.57811598      10.95990652       2.20932789      -0.03071913       0.00963858       0.03655812
O        7.10744529      10.26809454      11.79337231       0.02261628      -0.02012074      -0.01102346
O        7.32957664      12.19313513      10.70019658      -0.00288457      -0.00979769       0.00288069
O        8.85569213      11.58124327      12.24204317      -0.00382257       0.00574645       0.01007348
C        7.77872212      11.43303171      11.52487250       0.00448995      -0.00754416       0.00171345
H        7.66774150       9.75698360      12.38981915       0.02433912      -0.01045673      -0.00352083
O        8.58533132       9.13605128       1.43789037      -0.00990620       0.00431991       0.00877032
O        9.93099793       7.55910031       0.75182930      -0.00842735       0.01678264       0.00259957
O        7.87085094       6.98364349       1.49009396       0.00784871       0.00371116       0.01324107
C        7.32216758       9.46858114       2.12465383      -0.00970119       0.00173962       0.00904632
C        7.35579327      10.94316059       2.42474042      -0.01296182       0.00036728       0.01000372
C        8.72342679       7.79021557       1.24952978       0.00104660       0.00219989       0.00706097
C       10.17016814       6.15624121       0.46550851       0.00532658       0.01722503      -0.00292045
H        6.49909882       9.19137414       1.46846562      -0.00862652       0.00001157       0.00758889
H        7.29272330       8.87704875       3.03216518      -0.00811583      -0.00008324       0.00795367
H        6.42234303      11.22243250       2.91620062      -0.01288550      -0.00000773       0.00810117
H        8.15471624      11.18518812       3.13791940      -0.01349265       0.00217118       0.01176342
H        7.41259483      11.55384164       1.51441702      -0.01050156       0.00169556       0.00986952
H        9.93724735       5.55595340       1.34235440       0.01592576       0.01507992      -0.00137097
H       11.22406073       6.08321733       0.22273555       0.00276414       0.02556740      -0.01080703
H        9.54713916       5.83687202      -0.36651569       0.00092241       0.01383496       0.00139603
O       10.06914972       2.84404278       3.08114145       0.01062042      -0.00328565      -0.00786127
O        7.95332356       2.51851505       3.19210072       0.01029666       0.00007546      -0.00753963
O        9.23490720       0.92291567       2.25044432       0.00821864      -0.00572740       0.00113608
C       11.43595518       2.39360933       2.80608088       0.00998628      -0.00474918      -0.00873539
C       12.35285398       3.52003219       3.18605689       0.01102039      -0.00542107      -0.00916687
C        9.10292973       2.01220874       2.80795365       0.00944145      -0.00325680      -0.00458795
C        6.80345672       1.66374640       3.10816283       0.00870036       0.00193560      -0.00679220
H       11.60579402       1.49544998       3.40197523       0.01000770      -0.00452712      -0.00854295
H       11.51870367       2.13761877       1.75336783       0.00832478      -0.00510363      -0.00891411
H       13.37532402       3.23277454       2.94676732       0.01089145      -0.00595070      -0.00929740
H       12.12156587       4.42284608       2.62095010       0.01148508      -0.00519274      -0.00887915
H       12.28098340       3.74606824       4.25056731       0.01191329      -0.00545559      -0.00909965
H        6.56402910       1.44443167       2.06869468       0.01056596      -0.00077661      -0.00662190
H        6.00392648       2.22989998       3.57180336       0.00886108       0.00487937      -0.01030791
H        6.98772037       0.75067609       3.66889629       0.00626271       0.00370827      -0.00315070
O        5.55045661       7.03636902       4.89701877      -0.00406586      -0.00587771       0.00638231
O        7.15229399       5.58906749       4.86508944      -0.00411029      -0.00596049       0.00170061
O        7.68573303       7.78060354       4.71650342      -0.00502110      -0.00597596       0.00822379
C        5.05343562       8.38317480       4.71349765      -0.00330389      -0.00471362       0.01023167
C        3.72049325       8.49000703       5.40496997      -0.00509408      -0.00690073       0.00728309
C        6.87138980       6.89021365       4.81170280      -0.00374788      -0.00445193       0.00560291
C        8.53349959       5.26612381       4.60963007      -0.00359193      -0.00464919       0.00206457
H        5.77757327       9.08744513       5.12162311      -0.00419804      -0.00654903       0.01488407
H        4.95491412       8.54111880       3.63649278      -0.00138880      -0.00147282       0.01042295
H        3.29580491       9.47683971       5.21610632      -0.00491855      -0.00661594       0.00819591
H        3.02659944       7.73774108       5.02854542      -0.00414149      -0.00607090       0.00416111
H        3.83680416       8.36506676       6.48069095      -0.00743132      -0.00930036       0.00709146
H        8.72108432       5.34336128       3.54004564      -0.00289680      -0.00232662       0.00238928
H        8.66113110       4.24250001       4.94088999      -0.00368493      -0.00547746      -0.00029458
H        9.18835501       5.94983293       5.14499755      -0.00459221      -0.00583619       0.00414206
O        9.77968022       2.46356544       8.34560458       0.00628617       0.00777210      -0.00322641
O        7.86143283       1.49211968       8.31314203       0.00633094       0.00694981       0.00443672
O        8.76344856       2.15995522       6.34332363       0.01050541      -0.01724768      -0.00039864
C       10.88555404       3.08087368       7.66650709       0.00768480      -0.00052959      -0.00873315
C       11.85051911       3.53800285       8.73059076       0.00921276       0.00541204      -0.01274776
C        8.77924675       2.04846094       7.54953557       0.00795902      -0.00207550      -0.00137246
C        6.69327549       1.00124448       7.62740584       0.00697326      -0.00015163       0.00847618
H       11.33575100       2.35801956       6.98238154       0.00576413      -0.00696096      -0.00307927
H       10.51472875       3.91317176       7.06607722       0.00936632      -0.00432619      -0.01514331
H       12.67935436       4.08088975       8.27609553       0.01094186      -0.00142246      -0.01760974
H       11.34873756       4.19796094       9.43874004       0.01167972       0.01319216      -0.01847143
H       12.25343018       2.69018982       9.28358852       0.00645702       0.00900272      -0.00540331
H        6.11461914       1.84606081       7.25930364       0.00505109      -0.00396231       0.00316052
H        6.15205381       0.42911092       8.36963871       0.00827265       0.00451362       0.01289967
H        6.98886517       0.35187936       6.80508020       0.00733466      -0.00535937       0.01301983
O        8.36627809       3.73630525      11.37672895      -0.00123751       0.00599319      -0.00389408
O        7.08097813       5.45797177      11.15269065      -0.00301459       0.00485161       0.00011794
O        6.22229204       3.58731159      12.09965362       0.00187194       0.00508171       0.00436705
C        8.56467530       2.32606629      11.69224699       0.00503767       0.00745089      -0.00055090
C       10.04437799       2.10317867      11.83777625       0.00663406       0.01477318      -0.00608899
C        7.13432525       4.19216344      11.59143345      -0.00081086       0.00441432       0.00081161
C        5.80812830       6.09706404      11.36579328      -0.00200028       0.00511470       0.00457756
H        8.02073751       2.10554149      12.61120106       0.00945157       0.00832195       0.00221246
H        8.13412281       1.73029542      10.89071853       0.00403836       0.00374901       0.00259954
H       10.23470515       1.05483557      12.07049680       0.01342869       0.01662405      -0.00347262
H       10.56325828       2.32660341      10.90919313       0.00142829       0.01593431      -0.00872543
H       10.46612408       2.72319554      12.63069234       0.00610936       0.01955184      -0.00971320
H        5.01527055       5.49830849      10.91799573      -0.00392970       0.00518394       0.00811680
H        5.87716750       7.06320645      10.87500798      -0.00336968       0.00476983       0.00366284
H        5.62283793       6.21339832      12.43273077       0.00194987       0.00571677       0.00517654
O        7.13738274       6.27310809       7.98507479       0.00262262      -0.00630618       0.00558241
O        4.98903821       6.22152521       7.84855196       0.00245284      -0.00709104       0.00725623
O        6.11327316       4.25351463       7.90198762       0.00358647      -0.00613666       0.00012491
C        8.42328594       5.61270687       8.04742870       0.00267938      -0.00631756       0.00420836
C        9.47876329       6.68408435       7.93075136       0.00224069      -0.00578114       0.00770191
C        6.08871238       5.45852306       7.91062978       0.00296143      -0.00692153       0.00405096
C        3.78116718       5.48924800       7.62160190       0.00299104      -0.00743589       0.00553944
H        8.48486665       5.06642299       8.98887605       0.00232790      -0.00913769       0.00253195
H        8.46780223       4.89535880       7.22849202       0.00322163      -0.00397670       0.00222623
H       10.46533176       6.22207427       7.87021994       0.00240296      -0.00529753       0.00667914
H        9.33098609       7.29335492       7.03867161       0.00238867      -0.00325236       0.00946137
H        9.47247265       7.34348587       8.79824592       0.00153237      -0.00853960       0.00973302
H        3.82609433       4.98574789       6.65615296       0.00294198      -0.00420791       0.00391820
H        2.98954067       6.23271324       7.62311027       0.00238974      -0.00818293       0.00848225
H        3.62055153       4.75374976       8.40841923       0.00409668      -0.01016383       0.00317752
O        1.86170726       6.45786909       1.47682637      -0.00032626       0.00688027      -0.00109674
O        2.91379274       4.60980438       1.83333968      -0.00477800       0.00500232       0.00401440
O        4.10631554       6.53682278       1.77640978      -0.00273967       0.00155103       0.00102060
C        1.86562113       7.88811865       1.26923093       0.00348270       0.00697547      -0.00534658
C        0.44404996       8.28048655       0.97113557       0.00561333       0.00968898      -0.01021232
C        3.06809425       5.92527591       1.70369002       0.00025505       0.00649604       0.00148119
C        4.13537933       3.87947148       2.05373977      -0.00501174       0.00420120       0.00509325
H        2.25075233       8.37382285       2.16836983       0.00199147       0.00846240      -0.00577655
H        2.54123284       8.12248672       0.44540738       0.00617167       0.00245186      -0.00414154
H        0.38656460       9.34921106       0.75934607       0.00893749       0.01020965      -0.00903264
H        0.08031161       7.75127702       0.09100784       0.00742108       0.01087463      -0.01162194
H       -0.21223314       8.05101228       1.81069822       0.00270940       0.01021522      -0.01242156
H        4.80531934       3.99180448       1.20350174      -0.00657672       0.00010027       0.00348619
H        3.82206504       2.84397853       2.15488007      -0.00639689       0.00510126       0.00971339
H        4.62241674       4.23576322       2.96168399      -0.00300369       0.00707214       0.00272110
O        3.84289372      10.16318164       9.80848125      -0.00561073       0.00686724      -0.00362065
O        5.71912024       9.13708342       9.49458569      -0.00563328       0.01091994      -0.01364893
O        5.23502683      10.91855308       8.19030747      -0.01611879       0.01033974      -0.01205945
C        3.01357448      11.32342467       9.58421625      -0.01245528       0.00218058      -0.00190875
C        1.78101522      11.16634595      10.43407954      -0.00517690      -0.00011647       0.00777337
C        4.96449387      10.14849933       9.07953468      -0.00990176       0.00830460      -0.00875491
C        7.05555317       9.15578375       8.96865131      -0.00999378       0.00961088      -0.02429876
H        3.58994064      12.20842789       9.86150075      -0.01456860       0.00600204      -0.00965428
H        2.78221180      11.39291178       8.52007021      -0.02047278      -0.00331250      -0.00046802
H        1.14931783      12.04983935      10.33784932      -0.01137033      -0.00478083       0.00736803
H        1.20782939      10.29150604      10.12598746      -0.00157560      -0.00554782       0.01696472
H        2.04959556      11.05943974      11.48477135       0.00284443       0.00817180       0.00618130
H        7.05605732       8.89897721       7.91270407      -0.01813371       0.00538073      -0.02324623
H        7.58487843       8.39647481       9.53356300      -0.00471079       0.01253644      -0.02590767
H        7.49436419      10.13825828       9.12538015      -0.00981247       0.01074591      -0.03227752
