139
Lattice="13.069267504606518 0.0 0.0 0.0 13.069267504606518 0.0 0.0 0.0 13.069267504606518" Properties=species:S:1:pos:R:3:forces:R:3 energy=-1009695.0625 stress="0.0006038648425601423 -0.00022427777730626985 -9.076040805666707e-05 -0.00022427777730626985 -0.0012847802136093378 -0.00020270449022063985 -9.076040805666707e-05 -0.00020270449022063985 -0.0002767805417533964" pbc="T T T"
Tb      14.84444250      13.68270662      -2.92160359       0.02124906      -0.00192165      -0.00571300
I       13.85727185      12.68164739      12.70563485       0.02434702      -0.00818330      -0.00628340
I       12.55291487      13.68686119       8.31310525       0.00420535      -0.00961166       0.01745425
I        7.34318928      13.35145608      10.07393492      -0.03216657       0.02627575      -0.00282970
O        4.34976080       9.57265506       9.50536958      -0.00211443      -0.00495838      -0.01418872
O        4.97106324       7.50586661       9.32436841      -0.01125636      -0.00853783      -0.00825181
O        5.82911660       9.01511673       7.88045056       0.00955969      -0.01272672       0.00095809
C        4.56746827      10.94132601       9.11457502       0.01078558      -0.00642148      -0.01195869
C        3.45568563      11.79926955       9.65801768       0.02164429       0.00064467      -0.00294816
C        5.12127810       8.72483497       8.81472530      -0.00010419      -0.00887319      -0.00734699
C        5.74879581       6.50766589       8.64270026      -0.01152802      -0.01274887      -0.00279853
H        5.52399393      11.28992092       9.51165408       0.01512709      -0.01623245      -0.01417190
H        4.62222699      11.01282430       8.03158394       0.00685028      -0.00437620      -0.01201564
H        3.76862663      12.81503140       9.34931466       0.03752123       0.00303348       0.02164163
H        2.47464448      11.51953140       9.20966855       0.02064933       0.02083534      -0.01373396
H        3.38976484      11.76103082      10.76133780       0.01208172      -0.02285630      -0.00472763
H        5.55189703       6.52919130       7.57411759      -0.00738505      -0.01526586      -0.00347969
H        5.43566582       5.56100216       9.05744091      -0.01619454      -0.01051292      -0.00141472
H        6.81034654       6.68196912       8.82037444      -0.01164693      -0.01633316       0.00086270
O        4.37566765       3.73154290      11.75355004      -0.00715926       0.01549685       0.01593804
O        2.26597181       3.87306833      11.31308126      -0.00728995       0.00499868       0.00449057
O        3.29086929       1.89217402      11.01479711       0.00051928       0.01629406      -0.00102320
C        5.69700360       3.04286813      11.77597103      -0.00475222       0.02149397       0.02086018
C        6.62907883       3.79361856      10.87500066      -0.00930981       0.01178399       0.00800699
C        3.34014804       3.09585732      11.34696812      -0.00293548       0.01237217       0.00542831
C        1.05976596       3.24540657      10.83922934       0.00151524      -0.00635381      -0.00349156
H        5.99405701       3.07935189      12.82220999      -0.00250555       0.03657065       0.01981282
H        5.57340381       2.01049322      11.45601454      -0.00319636       0.01770195       0.03370489
H        7.59181459       3.28483543      10.91153325      -0.00908501       0.01233944       0.01001450
H        6.29238598       3.74118544       9.84006942      -0.01309596      -0.00274430       0.00989422
H        6.74196499       4.82938492      11.19189514      -0.00862735       0.01601873      -0.00605667
H        1.15316980       2.96665200       9.77304141       0.00623185      -0.00276546      -0.00363198
H        0.28645328       4.00447815      10.89520867      -0.00154622      -0.01015837      -0.00431893
H        0.75864712       2.41017496      11.50266131       0.00232620      -0.01014590      -0.00821498
O        8.67829207       5.47922406       6.90878371      -0.00458571      -0.00486645       0.00237641
O        7.73813386       6.74763035       5.43433632      -0.00454162      -0.00370389       0.00296697
O        9.19497309       7.68589840       6.89436125       0.00703794      -0.00854695      -0.00403732
C        9.60380508       5.28899259       8.00783604       0.00000628      -0.00903934      -0.00121330
C        9.61531049       3.82269906       8.34807342      -0.00739368      -0.00961012      -0.00247945
C        8.59885355       6.73232413       6.45925553      -0.00062579      -0.00648189      -0.00025994
C        7.44768829       8.06488965       4.92511990      -0.00048217      -0.00335808       0.00196233
H       10.58380426       5.64973077       7.69264695       0.00223386      -0.01613510      -0.00418876
H        9.26887724       5.91027319       8.84210258       0.00505182      -0.00579029       0.00002664
H       10.23321103       3.66074444       9.23311176      -0.00148510       0.00057501      -0.00630809
H        8.61305034       3.45780324       8.56699645      -0.01199111      -0.00141300       0.00126192
H       10.03242678       3.24297328       7.52815425      -0.01241647      -0.01073884      -0.00659496
H        7.05093219       8.68619233       5.72340564       0.00443661      -0.00191805       0.00392941
H        6.71005110       7.91190483       4.14366638      -0.00366062      -0.00272988       0.00394711
H        8.34230489       8.51927114       4.50479107       0.00202519      -0.00917408      -0.00069702
O        7.55883516       5.65942055       0.61318714       0.00171073      -0.00499460      -0.00289979
O        5.90677516       7.05415660       0.54371881       0.00477006      -0.00228819      -0.00592777
O        7.82949381       7.70382469       1.55351443      -0.00168049      -0.01213688      -0.00076455
C        8.94402664       5.37472887       0.92539045       0.00162248      -0.00793409       0.00111583
C        9.21122004       3.93233275       0.59459629       0.00083337      -0.00569510      -0.00330029
C        7.16631571       6.89179718       0.96213458       0.00849736       0.00233483       0.00367200
C        5.37395592       8.37059706       0.78710964       0.00451024      -0.00192097      -0.00066388
H        9.56397686       6.05611256       0.33792009       0.00382257      -0.00551218       0.00557747
H        9.11531181       5.59712670       1.97969804      -0.00194782      -0.01136564       0.00264943
H       10.24425194       3.69336633       0.84302736      -0.00137807      -0.00834825      -0.00016331
H        8.57384762       3.27045907       1.18014862      -0.00262530      -0.00789671      -0.00837140
H        9.04468396       3.73576770      -0.46277651       0.00397451      -0.00160820      -0.00479892
H        5.36743941       8.58325050       1.85626182      -0.00023231      -0.00891862       0.00076056
H        4.36393137       8.34734481       0.39020980       0.00780767       0.00108431      -0.00586180
H        5.98245850       9.11674915       0.28239490       0.00863948       0.00028628       0.00753838
O        2.12236075       8.26875667       2.78170282       0.00119110       0.00098399       0.00225365
O        2.62643724       6.50178640       1.65121209       0.00080183      -0.00022990       0.00414227
O        3.51427237       6.74485060       3.72077701       0.00755578       0.00596568       0.00002784
C        2.21189063       9.06935450       3.98336231       0.00219634       0.00271964       0.00101399
C        1.26382740      10.22753949       3.81335672      -0.00060302       0.00041056       0.00126202
C        2.82652475       7.13443420       2.81019714       0.00400656       0.00227714       0.00245517
C        3.27465510       5.22400414       1.55353570       0.00266191       0.00081614       0.00457887
H        1.95204031       8.44529880       4.83997547       0.00523841       0.00316384       0.00223356
H        3.24812060       9.39069798       4.10584380       0.00182179       0.00486888      -0.00148298
H        1.32307704      10.88492459       4.68070672      -0.00064645       0.00131395       0.00051071
H        1.50504009      10.80709397       2.92178617      -0.00320558      -0.00003718       0.00027110
H        0.23548389       9.87628132       3.72604940       0.00015464      -0.00215435       0.00303901
H        4.35394724       5.34228500       1.61807458       0.00274935       0.00301294      -0.00157313
H        2.99774314       4.84675996       0.57619313      -0.00171901      -0.00263464       0.00718173
H        2.92277604       4.56008910       2.34305798       0.00823019       0.00237601       0.00827169
O        9.27651731      10.60710497       1.05318954      -0.00101976       0.00295541       0.00091870
O        7.21247622      11.21272424       0.89976319      -0.00027230       0.00571593       0.00215364
O        8.63794767      12.53355826       2.06061519       0.00387141       0.00793934      -0.00305200
C       10.60048465      10.75893046       1.60778075       0.00108331       0.00394511      -0.00440183
C       11.47134506       9.73359692       0.93114152      -0.00280687      -0.00175717      -0.00060248
C        8.40302616      11.54857656       1.40275306       0.00045519       0.00374216      -0.00110710
C        6.20397350      12.21850840       1.05884994       0.00024830       0.00626462       0.00347587
H       10.94856330      11.77796047       1.43281450       0.00228523       0.00228024      -0.01160074
H       10.53623024      10.59839363       2.68780238       0.00422923       0.01077911      -0.00333601
H       12.48456542       9.77435240       1.33217872      -0.00205687      -0.00193045      -0.00286320
H       11.06890676       8.73269071       1.08502029      -0.00497301       0.00008889       0.00596399
H       11.52954658       9.92846793      -0.13950911      -0.00475021      -0.00799626      -0.00176682
H        6.11088440      12.49795455       2.10555192       0.00506443       0.00990621       0.00295833
H        5.28733342      11.76441655       0.69085544      -0.00093697       0.00544764       0.00820372
H        6.45801624      13.08456818       0.44801719      -0.00209506       0.00370142      -0.00114027
O       11.36872819       4.12916554       3.16248796      -0.00560001       0.00580348       0.00205984
O       10.54606610       2.17274202       3.57311448      -0.00741738       0.00721833       0.00289382
O       10.76530162       3.63816298       5.28722702       0.01208512       0.00059879       0.00557721
C       11.72503965       5.45558132       3.60712877       0.00231621       0.00372544       0.00254107
C       12.34841666       6.15891320       2.43230190       0.00010821       0.00281534       0.00102779
C       10.88007020       3.33510054       4.12647711       0.00074004       0.00442472       0.00407386
C       10.03191669       1.19749040       4.50346193      -0.00292618       0.00587446       0.00394857
H       10.82152974       5.95708262       3.96288025       0.00619015       0.00701083       0.00725366
H       12.41301900       5.37184288       4.44976506       0.00555736      -0.00084751      -0.00058815
H       12.63156389       7.17459810       2.70657952       0.00530583       0.00123739       0.00124259
H       13.24518128       5.63927726       2.09856497      -0.00333138      -0.00010198      -0.00354273
H       11.65205005       6.21478643       1.59657859      -0.00323433       0.00682890       0.00420602
H       10.79826575       0.94146655       5.23449300       0.00174323       0.00222723      -0.00222576
H        9.75191244       0.34649026       3.89223309      -0.00852143       0.00802830       0.00363308
H        9.16308662       1.59744220       5.02456179       0.00179419       0.00628082       0.01107664
O        5.19745839       3.07098526       5.17812326      -0.00388177      -0.00424085      -0.00253399
O        3.84174344       2.12980177       6.58942923      -0.00370100      -0.00253007      -0.00170537
O        5.20182573       3.77335045       7.33090776       0.00094414      -0.00633901      -0.00197953
C        6.17361579       4.11284082       4.87071054      -0.00160352      -0.00641680      -0.00273377
C        6.81689480       3.76692521       3.55754248      -0.00519945      -0.00689353      -0.00432444
C        4.80183507       3.06753261       6.43812685      -0.00187889      -0.00467849      -0.00222135
C        3.45921677       1.99092464       7.95009042      -0.00367796      -0.00141129      -0.00174139
H        5.63869843       5.06221627       4.82858816       0.00107557      -0.00486630      -0.00070653
H        6.89774161       4.15984100       5.67989327      -0.00027642      -0.00922962      -0.00395793
H        7.54694440       4.54136399       3.32031869      -0.00349076      -0.00898471      -0.00533865
H        7.33550809       2.80914658       3.60992483      -0.00805763      -0.00859173      -0.00638651
H        6.08823664       3.72539596       2.74731712      -0.00715964      -0.00395106      -0.00267242
H        4.31416822       1.64625516       8.54047227      -0.00222543       0.00430005      -0.00040577
H        2.62928120       1.26123902       7.91795756      -0.00008539      -0.00514231      -0.00206559
H        3.11664602       2.95346990       8.34212936      -0.00833616      -0.00193179      -0.00413428
O        7.58396123      11.32096204       5.50594669      -0.00169605       0.00307290      -0.00086885
O        5.70338846      11.59444334       4.46585121       0.00094418       0.00218259      -0.00593731
O        5.87709885      12.34910825       6.58932873      -0.00232226       0.01032245      -0.00814295
C        8.38590681      11.36803212       6.72873048      -0.00502759       0.00634012       0.00101191
C        9.78550576      10.95482190       6.36172661      -0.00426793       0.00429709       0.00631844
C        6.35937252      11.80515598       5.62741813      -0.00069782       0.00517595      -0.00626189
C        4.36621542      12.10380596       4.48115706       0.00180705       0.00446826      -0.01070541
H        8.33123970      12.37467021       7.14143507      -0.00581823       0.00763464      -0.00229843
H        7.93114857      10.68240325       7.44407843      -0.00750008       0.00861248       0.00170496
H       10.41245230      11.00801026       7.25204279      -0.00637107       0.00831649       0.00740485
H        9.80761604       9.92858085       5.99872546      -0.00337229       0.00271520       0.01067777
H       10.20833840      11.61827606       5.60700921      -0.00248670       0.00103432       0.00440051
H        3.77889519      11.60011279       5.24948663      -0.00078228       0.00808856      -0.01043302
H        3.95940433      11.89253568       3.49598734       0.00370786       0.00216795      -0.01092386
H        4.36160957      13.17428511       4.68106708       0.00321906       0.00513253      -0.01392530
