149
Lattice="17.880021532618606 0.0 0.0 0.0 17.880021532618606 0.0 0.0 0.0 17.880021532618606" Properties=species:S:1:pos:R:3:forces:R:3 energy=-2405614.25 stress="-0.000976388982962817 -3.10720697598299e-05 -8.706744119990617e-05 -3.10720697598299e-05 -0.0006139544420875609 0.00020917232177453116 -8.706744119990617e-05 0.00020917232177453116 -0.0005210543749853969" pbc="T T T"
Tb      16.60976227      18.05085192      -0.15430428      -0.00504842       0.00681535       0.00782260
I        0.25679472      16.99107213       8.83786265      -0.00199748       0.00346148      -0.00398386
I       15.72089171      16.63542429       7.69891752       0.00232774      -0.00348066      -0.00009926
I       16.90794706      16.54091472      15.30551383       0.00967625      -0.00452304      -0.00566381
Cl       9.91759550       4.84354848       8.75251390      -0.00977564       0.00086127       0.00547799
Cl       7.62467778       3.31314794       9.63875186      -0.01342314       0.01025248       0.00580752
Cl       7.50307941       4.81665994       7.15227799      -0.00777592       0.00154077       0.00329804
Cl       7.54484853       6.21609761       9.68849818      -0.00765857       0.00888517      -0.00172365
C        8.14781217       4.79859810       8.81280553      -0.00999805       0.00262354       0.00259113
Cl       2.33716258      10.62942653      10.30930412      -0.01802772      -0.00431752       0.00182594
Cl       1.04637490      12.15623747      12.40220281      -0.00957251       0.00263782       0.00124395
Cl       0.31698664      12.58868985       9.62242552      -0.01048020      -0.00048189       0.00175881
Cl       2.88525094      13.47653869      10.60285986      -0.00559124      -0.00648284      -0.00202863
C        1.64365276      12.20949515      10.73645265      -0.01030958      -0.00198511       0.00077868
Cl       8.22228059       1.09077627       6.33923765       0.00815839       0.00235313       0.00567830
Cl      10.11290337       0.15307217       4.33964809       0.00180429       0.01462160      -0.00557733
Cl      11.03939398       1.72899461       6.58172038       0.00478853       0.02407457      -0.01434201
Cl       9.43436437       2.97315175       4.50521350      -0.01691523       0.00967589      -0.00375520
C        9.69350818       1.48422066       5.45397948      -0.00028519       0.01281511      -0.00337241
Cl      12.76086612      14.11987085      13.98976422      -0.02101350       0.02540393      -0.01156098
Cl      10.94198359      14.18941327      16.25260425       0.00119454       0.02906752      -0.00000629
Cl      12.85694977      16.33214372      15.86925025       0.02497976       0.00013596       0.00482553
Cl      13.76062984      13.68353881      16.66968501       0.00137711      -0.00914998      -0.02284293
C       12.57779346      14.58182413      15.68866272       0.00413841       0.01178915      -0.00596484
Cl      13.42379382      11.61827946       1.58386723       0.00315353      -0.00859883       0.00390491
Cl      16.29834539      11.36586384       1.43054143       0.00499676       0.01359137      -0.00974023
Cl      14.68538929       9.08434260       2.22498507       0.02827087       0.00156009      -0.00301567
Cl      14.97166695      11.33520257       4.01970016       0.01759164       0.00133546      -0.00431141
C       14.83876877      10.84813450       2.31397582       0.01398987       0.00109060      -0.00274062
Cl      12.36549721       2.57470199       2.74959424       0.00361812       0.00023156       0.00367475
Cl      14.51183583       1.50921665      -0.39383667      -0.01420647       0.00286037       0.03444915
Cl      14.94557357       3.32196159       3.73386091      -0.00836730       0.02375196       0.00321156
Cl      13.96961972       4.44066736       1.28470386      -0.01425366       0.00939447       0.00620711
C       13.73777169       3.47688811       2.60637314      -0.00585324       0.01080224       0.00274243
Cl       6.27800461       7.17169085       3.60750090      -0.00405031       0.01461083       0.00844535
Cl       4.12893227       9.09251834       3.31564974      -0.01152238       0.00469959      -0.00792909
Cl       3.84391802       6.42384392       2.21456121       0.00234714      -0.00707760       0.01373418
Cl       5.69117644       8.30619566       1.00147764      -0.00641297      -0.00960091       0.00053823
C        4.98985082       7.75203663       2.53453042      -0.00373224       0.00109123       0.00301011
Cl      11.74505635       5.28527320      14.19529186      -0.00009245      -0.00046666       0.00578427
Cl      10.58070050       3.25232182      12.48436661       0.00582754      -0.00579658       0.00851309
Cl       9.23754479       5.79767501      12.83078071       0.00564307      -0.00340205      -0.00781305
Cl       9.33537313       3.90286417      15.02467750      -0.00423786       0.00508434       0.00001442
C       10.22149593       4.55300669      13.63286873       0.00193311      -0.00205189       0.00203928
Cl       3.93362904      12.36876473       1.12881300       0.00653851      -0.01310738      -0.00519167
Cl       5.98617260      11.92825217      -0.87536663       0.00345656      -0.00899932      -0.00890306
Cl       6.55127802      13.57880816       1.44688481       0.00502934      -0.01167623      -0.00737108
Cl       4.75563957      14.54005809      -0.62310731      -0.00007378      -0.00599425      -0.00587267
C        5.31222131      13.08828123       0.26621481       0.00665564      -0.01767793       0.00035724
Cl      -0.60352262       2.80434625      18.93388324       0.00977607       0.01466400       0.00376432
Cl      -0.10797280       2.18616374      16.13870734       0.00100703       0.00689854       0.00553990
Cl       1.79314607       3.77936020      17.63910643      -0.00373833       0.02072472      -0.00899258
Cl      -0.79310815       4.89986957      16.95461451      -0.00906542       0.00289631      -0.00301508
C        0.09524785       3.44640831      17.41501366       0.00146246       0.01158151      -0.00176335
Cl      10.66185624      11.44198161      10.12418253       0.00392802      -0.00288522       0.00189787
Cl       8.19851142       9.91196249      10.21045497       0.00201708       0.00079589      -0.00392199
Cl      10.20419973       9.52999544      12.25500997      -0.00044000      -0.00701062      -0.00274003
Cl      10.69598864       8.58980243       9.56030514       0.00121640      -0.00139481      -0.00424656
C        9.94139263       9.86707203      10.53306219       0.00161127      -0.00286306      -0.00186853
Cl       5.91141689       6.15628852      14.73741701      -0.00538433      -0.00294185      -0.01183853
Cl       5.05099175       4.49213929      16.94012437       0.00196935       0.00416386      -0.00348735
Cl       3.59934063       4.44553992      14.42176190      -0.00226718      -0.00950137       0.00041649
Cl       3.44947060       6.77388705      16.14208214      -0.00364640      -0.00338712      -0.00969638
C        4.50105181       5.46720903      15.55190069      -0.00192010      -0.00320104      -0.00524651
Cl       4.88185213      13.84731960       5.42863240       0.01376532      -0.00402404       0.00796897
Cl       2.40231374      12.46799513       4.83941716       0.01225394       0.00387479       0.00027847
Cl       2.49229181      14.43379099       6.97013636       0.01094270       0.00224230      -0.00070544
Cl       3.83163792      11.89417317       7.28892361       0.00355103      -0.00066659       0.00461848
C        3.40288732      13.15346093       6.13804397       0.01073951       0.00118499       0.00332979
Cl       9.36633608      11.11878073      15.50249501      -0.02147089      -0.01740390       0.00355852
Cl      11.52677818      10.10754748      17.13865473      -0.00029504      -0.00043449      -0.01479912
Cl      10.04197299       8.29945099      15.42577369      -0.02036075      -0.01859021       0.02018198
Cl       8.78799562       9.42223305      17.78472975       0.00923476       0.00049493       0.01971698
C        9.93212390       9.73867810      16.46425965      -0.01223537      -0.01042302       0.01146451
Cl      -0.24718192       5.59999149      13.58126894       0.02524869      -0.00522066       0.00540942
Cl      -0.69975137       6.08249081      10.76011077       0.00271878      -0.01125779       0.00918260
Cl       1.29406456       4.15027243      11.60293751       0.01472312      -0.00280175      -0.00255353
Cl       1.75658686       6.98819259      12.01185235       0.00922707      -0.00161424      -0.01085290
C        0.52934342       5.70774996      11.98380641       0.01256977      -0.00557085       0.00089977
Cl      13.87833139      17.30769164       3.88166863       0.00268755       0.00618378      -0.00800358
Cl      15.03923062      14.71708520       3.32864274       0.00257982       0.00921504       0.01243282
Cl      16.47944045      17.12248313       2.55005629      -0.00462990       0.00035793      -0.00952912
Cl      14.11284793      16.38031267       1.13236913      -0.00656192      -0.01605492      -0.00189424
C       14.83707857      16.35909601       2.75128150      -0.00240332      -0.00037885       0.00362106
Cl       3.90615214      17.33200553       4.58398776      -0.00686377      -0.01503092       0.00556165
Cl       3.62619178      15.84170344       2.15044034      -0.00746721       0.00711787       0.03386313
Cl       1.03847038      17.76733663       0.84103685      -0.00956792       0.00267420       0.00239110
Cl       1.44830488      15.99433676       3.99862769       0.00390279       0.02077308      -0.01423582
C        3.00267741      16.37502150       3.57895222       0.00346947      -0.00481383      -0.01339852
Cl       5.44610174       2.74145249       4.04117905       0.00189741      -0.00238737      -0.00570637
Cl       6.88014185       0.57589533       2.73831177       0.01529670       0.00930488      -0.00694558
Cl       6.95299503       3.24019444       1.61166087      -0.01197582       0.01378077      -0.00754854
Cl       4.50310122       1.68960032       1.50108783       0.00513707      -0.01174036      -0.00146849
C        5.94504933       2.06393168       2.47416707       0.00317455       0.00114692      -0.00712617
Cl      15.77625143       5.12046910       7.44498613       0.00137097      -0.01652766      -0.01105675
Cl      14.00430804       6.74126917       9.08856819       0.02273939       0.01910515      -0.02197993
Cl      13.14228822       4.14683402       8.11751536       0.00225681       0.00551432       0.03472069
Cl      13.44011390       6.36774388       6.27098757      -0.00666166      -0.03222200      -0.01002631
C       14.08727053       5.60012880       7.74137049       0.00606027      -0.00483299      -0.00148179
Cl       4.75994077      -0.04001299      14.08071782      -0.00356528       0.02126172       0.00335318
Cl       4.33269796       1.80345051      11.88137273      -0.00556722       0.00867203      -0.00793330
Cl       2.09067275       0.33548591      13.01319791      -0.00435209       0.00466808      -0.01013596
Cl       4.10457106      -1.05456880      11.45014466       0.00935411       0.00529861       0.00263584
C        3.81462403       0.25793307      12.61034846      -0.00226273       0.01248318      -0.00679290
Cl      -0.47720482      10.55856573       6.56530718       0.00343461       0.00522652      -0.00048786
Cl      -0.75783151       7.79142977       5.75739809       0.00502327      -0.00014779       0.01844195
Cl       1.87476502       8.91496534       6.23780139       0.00454223       0.00586799       0.00580949
Cl       0.35746781       9.71993463       3.90331245       0.00004647      -0.01078480       0.00412709
C        0.25509778       9.24786349       5.61481174       0.00318890       0.00042640       0.00680959
Cl       4.26052548       7.36997231       8.40016495      -0.00835900       0.00067261       0.00762271
Cl       1.77759926       5.88603693       8.19701128      -0.00642842      -0.00233524      -0.00408622
Cl       4.24395031       4.48936879       8.75803966      -0.00599520       0.00004441       0.00386903
Cl       3.80848524       5.64363233       6.12717247       0.00264516       0.00257371       0.00341681
C        3.51515505       5.84031038       7.86743285      -0.00387532       0.00079777       0.00254970
Cl       3.86288895       9.74200556      13.90035663       0.00484955       0.00923929       0.01384911
Cl       5.14645010       8.59434230      11.57437309      -0.00583466      -0.00360641       0.01480812
Cl       6.75292189       9.47996608      13.82514110       0.00354427       0.01624013      -0.00076628
Cl       5.43711245      11.43215648      12.15194278      -0.01075035       0.00005719      -0.00856656
C        5.30162637       9.81399261      12.86732586      -0.00252207       0.00482392       0.00524227
Cl       5.83775751      14.67732888       9.24187928      -0.00586760      -0.00413287       0.00181857
Cl       7.72397673      15.47545529       7.20247377       0.00204119      -0.00449406       0.00763902
Cl       7.62077373      16.92781124       9.71076976      -0.00217310      -0.00931382       0.00971594
Cl       5.44479584      17.17876429       7.81660009       0.00390631      -0.00042686       0.00577721
C        6.66873169      16.05850433       8.49572501      -0.00095767      -0.00400630       0.00654155
Cl      15.15996960      12.05485153      11.82830641       0.00008673      -0.00956947       0.00415826
Cl      13.66431316       9.59451645      11.53959332       0.00244117      -0.00955403      -0.00145167
Cl      16.47714758       9.64766246      10.86679809       0.00406075      -0.00791955       0.00759199
Cl      14.56178640      11.02717310       9.18086879       0.00914085      -0.00817302       0.00257021
C       14.97128233      10.58053901      10.85725245       0.00400683      -0.00883284       0.00359485
Cl       9.09500884       9.71765750       4.21583299       0.00115836      -0.00692438      -0.00695580
Cl       8.17213415       8.25937811       6.55267634       0.00402508      -0.01137340      -0.01493597
Cl       6.77829893      10.65032446       5.69197331       0.00342363      -0.00889958      -0.00976375
Cl       9.41673316      10.85262156       6.86883929       0.00591657      -0.01183173      -0.01171947
C        8.36846391       9.87058868       5.83231399       0.00671393      -0.01028953      -0.01873288
Cl      -0.38646211       1.43287386       5.58050179      -0.01144212       0.01890016       0.02721152
Cl       2.18908355       2.41098329       6.47514591       0.00374717      -0.00262625       0.00221974
Cl       0.36661671       4.20112719       5.10210661       0.01176614       0.00821888       0.00248009
Cl       1.67154626       2.07622770       3.64204576      -0.02164710      -0.01702401       0.00754428
C        0.96961911       2.53365025       5.20037035      -0.00450724       0.00197491       0.00793737
Cl      15.99910841       2.43628000      10.01637438       0.00811672       0.00551479       0.01378155
Cl      15.78072681       1.32706527      12.68768828      -0.01772988      -0.01951164       0.00132510
Cl      13.48544013       1.30486238      10.91471544      -0.00067994      -0.00283751      -0.02233016
Cl      14.42528323       3.80993335      12.02671672      -0.01141131      -0.01333749       0.00965135
C       14.92780098       2.22261404      11.42009064      -0.00628682      -0.00669760      -0.00102510
Cl      11.07091999      14.91716662       6.00396104       0.00252356       0.00818405      -0.02128166
Cl      11.59192222      12.50933580       4.49750511       0.00512767      -0.00124153      -0.00447755
Cl      11.11731971      14.98758076       3.09096950      -0.00486939      -0.01259932      -0.02114254
Cl       8.93470086      13.67658561       4.47518878       0.00253522      -0.00940837      -0.00606471
C       10.67880283      14.01454478       4.52295543       0.00131667      -0.00500982      -0.01405745
