148
Lattice="13.1133979802956 0.0 0.0 0.0 13.1133979802956 0.0 0.0 0.0 13.1133979802956" Properties=species:S:1:pos:R:3:forces:R:3 energy=-430261.71875 stress="0.00034472838160581887 0.0004397879965836182 0.00027383118867874146 0.0004397879965836182 0.00011533009819686413 0.0001679022388998419 0.00027383118867874146 0.0001679022388998419 -0.0006493899854831398" pbc="T T T"
Tb      13.21409179      11.84841961       1.12958410       0.00678538      -0.01470876       0.01424810
B        5.21840897      12.31363797       5.28797813      -0.00910406      -0.00046360      -0.00895440
F        3.80796468      12.42942170       5.36820763      -0.01007903      -0.00185587      -0.01797047
F        5.54587871      11.21299904       4.48470435      -0.00321239       0.00220454      -0.00993437
F        5.76760871      13.48089238       4.76693988      -0.00604880       0.00121164      -0.00189316
F        5.73438495      12.09371023       6.58814726      -0.01783860      -0.00341718      -0.00582135
B        2.67962949      12.24311795       0.72061780      -0.00800246       0.01103806      -0.01170492
F        2.29376924      11.52129318       1.90114203       0.01050578       0.01344816      -0.00223023
F        3.98100659      12.38970429       0.54015680      -0.01056835       0.04167219      -0.01079674
F        1.97357536      11.51873129      -0.31368166       0.00677668      -0.01239377      -0.00142908
F        1.93270872      13.47218918       0.79887284      -0.03167440      -0.00147328      -0.01938530
B        0.89150979      13.03693818       4.64639291       0.00439602      -0.01277728      -0.00630206
F        0.85180891      11.96863544       5.38070768      -0.00494569       0.00318688       0.01683909
F       -0.76423830      10.26542337       1.85055133       0.01905241      -0.03936462      -0.02294853
F        1.17359961      14.22044318       5.09796067       0.02324188      -0.00505805      -0.04325503
F        0.49148551      12.92818037       3.35721947      -0.01118341      -0.03953275       0.00002521
C       12.44469868      10.95788817      11.53905975       0.00673448       0.01921996       0.01409213
C       11.58745188       9.86905738      11.71146389       0.00769425       0.01838933       0.01433011
C       12.05675178      12.22757343      11.99494677       0.00671539       0.01881824       0.01535377
C       10.38163149      10.02844424      12.38272700       0.00693960       0.01795699       0.01371909
C       10.86469090      12.37361062      12.73219074       0.00661640       0.01733699       0.01528578
C       10.03462043      11.26390938      12.91736041       0.00619704       0.01774310       0.01329719
H       13.37179424      10.83562878      10.99093163       0.00455375       0.02153010       0.01040135
H       11.86133193       8.90367581      11.30563954       0.00854663       0.01724738       0.01818839
H       12.69524909      13.08818782      11.79447302      -0.00306052       0.02206134       0.00183864
H        9.70689702       9.18837242      12.48680988       0.00796098       0.01739746       0.01413744
H       10.54238669      13.34262193      13.10028442       0.00317404       0.01850039       0.00981395
H        9.10974126      11.37761876      13.46697681       0.00489916       0.01775360       0.01123238
C        8.50437317       8.82040836       7.32147623      -0.00569540       0.00267222       0.00562840
C        9.65211270       8.14980236       7.72965160      -0.00554143       0.00597590      -0.00425586
C        8.57155080      10.14777925       6.91095938      -0.00542957       0.01299542       0.01176240
C       10.87887660       8.80448852       7.72096875      -0.00562133      -0.00194413      -0.00113031
C        9.80024027      10.80093970       6.91397505      -0.00555856       0.00499144       0.01438276
C       10.95196496      10.13140739       7.31227604      -0.00533770       0.00849002       0.00479637
H        7.55175195       8.30588249       7.32860817      -0.00635262       0.00804121       0.00295928
H        9.58878053       7.11667834       8.04873025      -0.00568993      -0.00055383      -0.01041431
H        7.67466177      10.67247808       6.60085484      -0.00592300       0.01093671       0.01792531
H       11.77594686       8.28017357       8.02853193      -0.00470176       0.00013515      -0.00862490
H        9.85822354      11.83880879       6.61041217      -0.00544106       0.01091331       0.01914322
H       11.90605209      10.64437722       7.29830011      -0.00483590       0.00300009       0.00661109
C        0.77609143       7.67515350       3.82861929      -0.00541219      -0.00132834       0.00783149
C        1.73506871       6.68573097       3.65905785      -0.00404202      -0.00006807       0.00121491
C        1.16962082       8.99368556       4.02525280      -0.00323847      -0.00119796       0.01143578
C        3.08344866       7.02048556       3.66788197      -0.00585616      -0.00013354      -0.00294152
C        2.51821988       9.32781837       4.04439812      -0.00521993      -0.00134206       0.00686587
C        3.47548536       8.33954042       3.85487112      -0.00408235       0.00013292      -0.00070694
H       -0.27746667       7.42527425       3.80148258      -0.00446208      -0.00083610       0.01062652
H        1.43495494       5.65684665       3.50427596      -0.00530799       0.00001830      -0.00021333
H        0.41078039       9.75165288       4.16566395      -0.00468934      -0.00325415       0.01946434
H        3.83038280       6.25333112       3.51710712      -0.00509413       0.00079600      -0.00755571
H        2.84575375      10.34551807       4.21636634      -0.00270891      -0.00194049       0.01082264
H        4.52363980       8.61047767       3.86163217      -0.00509705       0.00031250      -0.00438258
C        9.45831435       2.15804796       1.95820162       0.00680893      -0.02397437      -0.00116993
C       10.48733402       1.99477853       2.88159080       0.00883963      -0.00427458      -0.01853873
C        8.36035951       1.30287488       1.98414222       0.00971898       0.00112177      -0.01344805
C       10.41091481       0.97246300       3.82346087       0.00253379      -0.03367911       0.00018427
C        8.29249205       0.27143772       2.91392048       0.00576952      -0.02378078       0.00623155
C        9.32369771       0.10465055       3.83097513       0.00755487       0.00054440      -0.01360379
H        9.48853772       2.97329187       1.24496945       0.00454279      -0.00602943      -0.00279631
H       11.31041610       2.69909895       2.90723267       0.00647208      -0.01892517      -0.00622278
H        7.54246120       1.46075481       1.29422509       0.00494421      -0.00892624      -0.00233349
H       11.16104906       0.90345046       4.60376129       0.00974388      -0.02057498      -0.01436626
H        7.41684132      -0.36283105       2.96866446      -0.00046584      -0.00112016       0.00150851
H        9.25008599      -0.67511149       4.57682759      -0.00128264      -0.01026411       0.00378443
C        7.52550348       7.82383773       3.69863145       0.00173414       0.00512239      -0.00443096
C        8.11880078       7.64696420       2.45315581       0.00727555       0.00193177      -0.00297161
C        6.67652377       6.84521513       4.20056505       0.00114007       0.00437227      -0.00654638
C        7.85224657       6.50156647       1.70980693       0.01136620       0.00073225       0.00002424
C        6.41202751       5.69959245       3.46056112       0.00556895       0.00304626      -0.00338767
C        6.99597983       5.52658598       2.21220650       0.01098015       0.00004175      -0.00214823
H        7.72001988       8.71922289       4.27474798      -0.00188034       0.00636274      -0.00669080
H        8.79458771       8.40126173       2.06769899       0.00781447       0.00223342      -0.00134820
H        6.21682750       6.97428124       5.17120493      -0.00329483       0.00701060      -0.00818916
H        8.31481564       6.36299424       0.73973736       0.01543473      -0.00136397       0.00134999
H        5.76366880       4.93343284       3.86637393       0.00511108       0.00269973      -0.00468721
H        6.79361546       4.63252640       1.63564150       0.01422216      -0.00110701      -0.00008111
C        6.36262284       1.95232116      12.05647145       0.00542271       0.00086983      -0.00485460
C        7.64538272       1.56293547      11.68499814      -0.00149535      -0.00453568      -0.00823248
C        6.06061898       3.29984693      12.19967776       0.00133574      -0.00528616      -0.00174594
C        8.62788703       2.52301956      11.47224973       0.00376303       0.00156827      -0.01208605
C        7.04185222       4.26044935      11.98336406       0.00659819       0.00081781      -0.00564116
C        8.32801722       3.87361614      11.62541507      -0.00017754      -0.00430869      -0.00916444
H        5.59578637       1.20866825      12.23217980       0.00255342      -0.00240520      -0.00161163
H        7.87693944       0.51121121      11.56312199       0.00131303      -0.00109030      -0.01045834
H        5.05438448       3.60449776      12.45471421       0.00552714      -0.00173385       0.00179868
H        9.62866637       2.22056522      11.18642403      -0.00039867      -0.00194717      -0.01505782
H        6.79698619       5.31037100      12.08657361       0.00411160      -0.00250389      -0.00293720
H        9.09308767       4.62185061      11.45691549       0.00238717      -0.00116722      -0.01187575
C        8.15304038       2.38308791       6.19742307       0.00443751      -0.00668123       0.00099161
C        8.18445053       3.30891199       5.16269318       0.00465555      -0.00435267       0.00412658
C        9.00333775       2.54289015       7.28649065       0.00615923      -0.00883073       0.00225678
C        9.05805874       4.38864959       5.21030617       0.00373499      -0.00460941       0.00453766
C        9.87665761       3.62461623       7.34049450       0.00570987      -0.00968259       0.00233755
C        9.90523388       4.54842669       6.30065086       0.00593884      -0.00726992       0.00579126
H        7.46017655       1.55252280       6.13982447       0.00424299      -0.00575021       0.00058370
H        7.53208778       3.17240837       4.31070730       0.00242068      -0.00196130       0.00429511
H        8.97628214       1.83156508       8.10386626       0.00560810      -0.01029381       0.00050110
H        9.07563737       5.10554567       4.39919246       0.00355568      -0.00243607       0.00738995
H       10.53094187       3.75176489       8.19519444       0.00788059      -0.01201233       0.00228987
H       10.58015028       5.39492934       6.34028419       0.00590632      -0.00793678       0.00603897
C        3.73334278       6.80852534       0.28768624      -0.00409694       0.00259659      -0.00184289
C        3.00796253       5.62595947       0.36678885      -0.00448819       0.00473988      -0.00557695
C        3.07447102       8.01755502       0.09318055      -0.00376216       0.00522284       0.00189740
C        1.62368078       5.64697162       0.24422605      -0.00440927       0.00347702      -0.00375379
C        1.68920533       8.03749996      -0.01168387      -0.00339741       0.00463575       0.00356058
C        0.96280684       6.85467030       0.05924602      -0.00457728       0.00682255       0.00099514
H        4.81015311       6.79541815       0.40750614      -0.00391160       0.00258465      -0.00285523
H        3.51774171       4.68823824       0.55147784      -0.00497295       0.00260156      -0.00968677
H        3.63969461       8.93939302       0.03684461      -0.00349289       0.00458564       0.00362409
H        1.05740982       4.72701697       0.31359232      -0.00364736       0.00431058      -0.00623882
H        1.16915029       8.98199886      -0.13569421      -0.00329107       0.00582288       0.00665513
H       -0.11812037       6.87598454      -0.00685238      -0.00421928       0.00836923       0.00352616
C        5.38639900       9.13435126      10.48633680       0.01160031      -0.00224978       0.00136794
C        6.22222881       8.74933399      11.52714853       0.00303254      -0.00109234       0.00945921
C        5.05157216      10.47396755      10.32729451       0.01473184      -0.00225004      -0.00351520
C        6.70548360       9.69818649      12.42193827      -0.00272779       0.00010584       0.01061149
C        5.54741274      11.42449795      11.20888669       0.00802738      -0.00111787      -0.00210085
C        6.36736605      11.03740692      12.26252126       0.00013749       0.00054920       0.00569107
H        4.98220773       8.39770801       9.80447289       0.01606626      -0.00344002       0.00018735
H        6.48137676       7.70480848      11.65041731      -0.00074469      -0.00129899       0.01492232
H        4.39925681      10.77311816       9.51885777       0.02031942      -0.00314887      -0.00910255
H        7.32304608       9.38881384      13.25663130      -0.00967573       0.00115709       0.01626514
H        5.27448350      12.46350250      11.07851511       0.01000953      -0.00105448      -0.00556502
H        6.71621903      11.77553758      12.97487151      -0.00481702       0.00141170       0.00642789
C        4.18790588       8.05858493       7.21241927      -0.00210959      -0.00877197       0.00175908
C        3.10789409       7.21007834       7.42500496      -0.00269816      -0.00482611       0.00487771
C        4.01193735       9.43582909       7.20037993       0.00203650      -0.00749727      -0.00095368
C        1.84546807       7.74508003       7.64924171      -0.00205261      -0.00207469       0.00625568
C        2.74765453       9.96796401       7.42524470       0.00240844      -0.00484711       0.00026201
C        1.66889984       9.12418733       7.65860440       0.00195140      -0.00097619       0.00354493
H        5.17195724       7.64109696       7.03751722      -0.00283293      -0.01114246       0.00074296
H        3.24797434       6.13667013       7.39732835      -0.00580946      -0.00562833       0.00665750
H        4.84102528      10.10249316       7.00045725       0.00214274      -0.01005125      -0.00387774
H        0.99926325       7.08567115       7.79927001      -0.00255506       0.00031315       0.00921847
H        2.61071704      11.04123921       7.38442854       0.00560208      -0.00412449      -0.00206444
H        0.68264806       9.53988903       7.82315209       0.00247602       0.00121451       0.00451981
C        5.67700510       1.70471900       8.52795804      -0.01414849       0.00247897      -0.01290028
C        4.39402433       1.19524864       8.37247982      -0.01305583       0.00136879      -0.00960757
C        5.86580792       3.05531506       8.79353661      -0.01081967      -0.00085197      -0.00875707
C        3.29689788       2.03982418       8.49171373      -0.01441194       0.00335690      -0.00079077
C        4.76866526       3.90016643       8.90670137      -0.01225454       0.00101800       0.00000239
C        3.48267090       3.39200635       8.75835065      -0.01119781       0.00003099       0.00361995
H        6.52555727       1.04043793       8.42704486      -0.01372361       0.00134483      -0.01954136
H        4.26705102       0.15020869       8.12539897      -0.01525293       0.00364345      -0.01288592
H        6.86656588       3.44896497       8.91437703      -0.01122622      -0.00027461      -0.01184304
H        2.29636621       1.64625424       8.35967615      -0.01407377       0.00276596       0.00233313
H        4.91496738       4.95359548       9.11516118      -0.00998194      -0.00097302       0.00317444
H        2.62699700       4.05060490       8.84728858      -0.01168197       0.00101935       0.01048346
