147
Lattice="17.354779048345915 0.0 0.0 0.0 17.354779048345915 0.0 0.0 0.0 17.354779048345915" Properties=species:S:1:pos:R:3:forces:R:3 energy=-1687268.0 stress="-0.0007873722352087498 -0.00017313606076641008 5.142559530213475e-05 -0.00017313606076641008 -7.780770829413086e-05 0.00012329008677625097 5.142559530213475e-05 0.00012329008677625097 -0.0007986011914908886" pbc="T T T"
Tb      16.81111455      17.94047828       0.70163537       0.01180489       0.00130385       0.00494552
P       11.76936705      13.43481163      13.09433114      -0.03042842       0.01178806       0.00688387
F       12.17088108      12.27021809      12.15302921       0.00755823       0.00097743      -0.00999542
F       12.79692637      14.52779814      13.47466065      -0.02280030       0.00703256      -0.00122426
F       11.31365137      14.28987514      11.84608243      -0.00272208      -0.00252581      -0.01404661
F       13.39005619      12.44780948      18.23500218       0.02166829      -0.03452075      -0.00814128
F       12.26558948      12.56731716      14.34247314      -0.00897196       0.00346386      -0.00853819
F       10.34697161      13.46611708      13.67491340       0.00793645      -0.01027948      -0.02874832
P        8.18423185      16.64226905      14.96826000       0.01014771      -0.00668731      -0.00653104
F        8.91041398      17.97119060      15.56600643       0.00833261      -0.00707507       0.00069630
F        8.74056828      15.78585636      16.25492724       0.00167441      -0.00768018      -0.00535285
F        6.84897139      17.01153009      15.80477959       0.00116384      -0.00635213      -0.01484072
F        9.54658333      16.27766311      14.16818596       0.01208067      -0.00339651       0.00222754
F        7.47853492      15.30311382      14.40533242       0.00887245      -0.00346363      -0.00936574
F        7.64445497      17.47967123      13.70193766       0.01596504      -0.00259542      -0.00672686
P        8.58455135      14.77155751       5.00134117       0.00504924      -0.00385179       0.01537564
F        9.52483961      15.79446284       4.11801835       0.00411719       0.00040829       0.01981139
F        7.97123783      14.17600196       3.63685233       0.01203060      -0.00810379       0.01493585
F        9.76524895      13.66171939       4.95270366       0.01252639       0.00367332       0.02166926
F        7.42957367      15.90617254       5.02498263      -0.00183797      -0.01119769       0.00776621
F        7.65739466      13.78163142       5.88097786       0.00460362      -0.00852621       0.00999534
F        9.22869974      15.39637632       6.34497631      -0.00370973      -0.00090778       0.01834834
Cl       5.76419732       8.30004715      12.91394566      -0.00505692      -0.00075817      -0.00686918
Cl       7.65967445       6.59036393      11.53347308      -0.00049615       0.00721558      -0.00821459
Cl       4.82513162       6.28278315      11.05977458       0.00046921      -0.00519709      -0.00474620
Cl       5.97733402       5.50106052      13.61016149       0.00548746       0.00026956      -0.00638357
C        6.05997859       6.66797117      12.27723014       0.00026321       0.00030952      -0.00644899
Cl      12.42023092      15.21025998       8.79681392       0.00615686      -0.00658597      -0.01353580
Cl      13.61229925      16.80104190      10.91092172      -0.01202951       0.00059515      -0.01085240
Cl      15.03885105      16.39747775       8.42253502       0.00617591      -0.00367466      -0.00026810
Cl      14.70153049      14.18807324      10.27454475      -0.00442386       0.00039196       0.00422905
C       13.92585168      15.64882637       9.60479324      -0.00059867      -0.00161635      -0.00523832
Cl       7.74606806       8.07935489       6.08217839      -0.00286746       0.00934756       0.00760216
Cl      10.61316021       8.30994745       5.70539363      -0.00418526      -0.00688970       0.01881365
Cl       9.02011791      10.69090870       6.09575249       0.00437097       0.00579578      -0.01038814
Cl       8.80260867       9.20858809       3.62996980       0.01371089      -0.01408423       0.00150907
C        9.03854611       9.08675627       5.39028139       0.00234406      -0.00015908       0.00406884
Cl       3.52311397       2.99066126       3.54575765      -0.02012063       0.00661451      -0.00325450
Cl       1.87478537       5.31011578       4.10215570       0.00308198       0.02022092       0.01862223
Cl       4.63626544       5.25781160       4.99784610       0.00975266      -0.00999439      -0.00542770
Cl       2.67151687       3.54262184       6.25894666       0.00735112       0.00489919       0.00601369
C        3.19171724       4.26921893       4.73581939      -0.00175175       0.00567688       0.00365533
Cl       3.28507163      15.76584804       9.04888244      -0.00053295       0.00788125       0.00388360
Cl       2.74274688      17.06543271       6.51184737      -0.00153244       0.00895752       0.00401634
Cl       5.34951501      15.92696576       7.02042442       0.00044227       0.01108879       0.00424558
Cl       4.53298304      18.30939882       8.42206046      -0.00190076       0.00790495       0.00412634
C        3.99480651      16.75706858       7.74107481      -0.00140926       0.00821127       0.00394615
Cl      14.89421521      11.82542444       7.45597671       0.01136500      -0.00766009      -0.00170623
Cl      12.11105161      11.37089685       8.07052514       0.00939989      -0.00315273      -0.00634784
Cl      13.79576015       9.15335506       7.27000102       0.00985397      -0.00806350       0.00621581
Cl      13.03052466      11.17360726       5.33318385       0.01551811      -0.01526454      -0.00216597
C       13.45099263      10.88777625       7.03306818       0.01188803      -0.00884766      -0.00055795
Cl      15.38658114       9.96025955      10.82487168      -0.00092530       0.00193775       0.01134896
Cl      12.64606880       9.01299384      10.94859928      -0.00348395       0.00888544       0.00416836
Cl      14.08632247       9.58958718      13.38885897      -0.00879173       0.00935999       0.00715101
Cl      14.80776838       7.28333807      11.77860543      -0.00980464       0.00532311       0.01285889
C       14.22761856       8.96592215      11.73806478      -0.00592910       0.00604955       0.00893415
Cl      10.03252899       5.10116249       7.12487365      -0.01626682      -0.01415604      -0.00135988
Cl       7.40488132       4.29016280       8.04319749      -0.01314831      -0.01323594      -0.00311577
Cl       9.74348846       3.72807034       9.65878657      -0.01663977      -0.00322054      -0.00022477
Cl       9.31920820       2.28878806       7.17817666      -0.01700578      -0.02150023       0.00880900
C        9.13255397       3.84079670       8.00083677      -0.01434942      -0.01561453      -0.00138450
Cl       1.40472462      12.57700663      10.31426772      -0.01556987       0.00413084       0.00055862
Cl       4.03522338      11.70643122       9.45947292      -0.01342988       0.01046231       0.00669879
Cl       1.75496778       9.93888970       9.17448057      -0.00802453       0.00485227      -0.00086004
Cl       2.81921781      10.53234831      11.80887203      -0.01510028       0.00622246       0.00220513
C        2.50768388      11.19207158      10.19145143      -0.01357446       0.00591307       0.00201806
Cl      10.64955972       2.60301251       3.46390738      -0.00253195      -0.01279606       0.00338417
Cl       8.17066279       1.13939738       3.75644810      -0.00029391      -0.00223041      -0.00781024
Cl       8.71050773       2.58022892       1.30793447      -0.00109534       0.01563728      -0.00457883
Cl       8.14375297       4.03286534       3.76043564      -0.00013459      -0.00080884      -0.00897485
C        8.89666798       2.57376945       3.06854399      -0.00014502      -0.00116622      -0.00609522
Cl      11.70449359      14.06675920      17.16559283       0.02672039      -0.02098560       0.02507269
Cl      15.29455844      17.88432034      16.01979178      -0.00311023       0.01103674       0.00919545
Cl      10.11250031      15.68085929      18.87068621       0.02174050      -0.00728317       0.00177091
Cl      11.62496803      16.89526319      16.75463513      -0.00143272      -0.02552822      -0.02611131
C       11.09382674      15.53915676      17.55279487       0.01771867      -0.01720924      -0.00207780
Cl      15.77548741       8.65384013       4.19885674       0.00282896       0.00088811       0.00582063
Cl      16.26354542       7.85249109       1.45010722      -0.00196934      -0.00918412       0.00959739
Cl      18.09446899       9.66047804       2.78077418      -0.01525414       0.01575190      -0.00947130
Cl      15.43604797      10.56256899       2.03873492      -0.02578354      -0.01172507      -0.00194117
C       16.39538867       9.20979344       2.62194893      -0.01180440       0.00013462       0.00046380
Cl      17.02201744       2.16716543       3.09003644      -0.00213562       0.00458886       0.00356377
Cl      14.68674588       2.32983049       1.40586691      -0.00216138       0.00066838       0.00432423
Cl      15.51299653       4.65316070       2.95365524      -0.00183215       0.00470862      -0.00025150
Cl      14.37027944       2.35663162       4.29935018      -0.00117245       0.00418043       0.00202483
C       15.37466024       2.91421529       2.98166855      -0.00417490       0.00474797       0.00021946
Cl      14.82689419       6.70113862      15.91896017       0.00094014       0.00176656      -0.00007822
Cl      12.00351422       6.97992619      15.40631840       0.00179726       0.00363396      -0.00135756
Cl      13.38232456       9.02231500      16.92658220       0.00173306       0.00291866      -0.00026889
Cl      12.91496120       6.41041788      18.09148989       0.00045811       0.00289196      -0.00102490
C       13.27254882       7.29867451      16.58312544       0.00123626       0.00342159      -0.00085139
Cl      13.50994400      13.57289811       2.70434993       0.01413697      -0.01612037      -0.01675129
Cl      14.98913160      14.50327746       5.00849509      -0.01297647      -0.00706373       0.00176914
Cl      12.29304469      15.35066492       4.62412848      -0.00238410      -0.01016366      -0.03244984
Cl      16.12672890      15.96893373       1.97733095       0.00029276       0.00745714       0.00827038
C       13.59247110      14.46898563       4.09759890       0.00164812      -0.01097616      -0.01908245
Cl       3.58637700       9.71775086       5.83164436       0.01019040       0.01104525       0.00500679
Cl       5.12892143       9.08679235       3.46886571       0.01758313       0.00301635       0.00829110
Cl       5.78921135      11.42929805       5.04833077       0.00259978       0.01666284      -0.00939083
Cl       3.39030678      11.38913917       3.45849186       0.00171798      -0.00861660      -0.00478435
C        4.48174151      10.41698703       4.45527655       0.00881534       0.00391062       0.00048514
Cl      10.73988839       5.05755592      12.80677032       0.00121386      -0.00187540       0.00349641
Cl       9.12892427       2.65839516      13.04680861       0.01070529      -0.00795174       0.00605109
Cl       9.31793239       4.48054758      15.27596834      -0.00137901      -0.00196350       0.00192517
Cl      11.61536091       2.88499773      14.51054969       0.00503612       0.00458992       0.01086888
C       10.18651019       3.74930166      13.90327904       0.00405365      -0.00171810       0.00525037
Cl       6.33062512      12.20304753       1.34665386      -0.00961119       0.00313807      -0.00045437
Cl       4.42988757      14.36893794       1.61513915      -0.00702679       0.00417137      -0.02323323
Cl       3.78925509      12.08044403      -0.05572322       0.01081532       0.00618821      -0.02202004
Cl       5.82634301      13.96758950      -0.88220250       0.01823127       0.00685918       0.00152504
C        5.10652870      13.16726007       0.49403574       0.00168921       0.00605772      -0.00972826
Cl       2.74342801       3.39879509      16.29637773      -0.01128602       0.00272124      -0.00178850
Cl       0.80891279       5.21929674      17.39848150      -0.00486556       0.00460911       0.00720084
Cl       1.96203081       0.70789019      18.22077401      -0.00547409      -0.00588213       0.00035704
Cl      -0.05370126       2.82679138      16.06305462      -0.01180893       0.00840336       0.00274229
C        1.19267508       3.84178218      16.56240901      -0.01009604       0.00641192       0.00239741
Cl       7.05687579      10.12426740       9.97942348       0.00401336       0.01702900      -0.00838417
Cl       9.65079561       9.01355640       9.36208201       0.00166523       0.01068178       0.00047290
Cl       9.11320575      10.01653348      12.02555743      -0.00644299       0.01705393      -0.00049525
Cl       9.35072925      11.87367998       9.82760395       0.00267044       0.01490742       0.00160632
C        8.79139412      10.25574854      10.30370067       0.00241690       0.01397592      -0.00234053
Cl       3.35241799       0.58047589      11.90882358       0.00681353      -0.00528532       0.01823577
Cl       2.94419413       3.33185270      12.70253840       0.00972384      -0.00029126       0.00553679
Cl       5.43627269       2.54063491      11.44333735       0.00685030      -0.00985464       0.00782686
Cl       4.85299113       1.65951057      14.13253522       0.00992787       0.00854328       0.01427484
C        4.15418932       2.01596377      12.55401641       0.00766298      -0.00246781       0.01114765
Cl       1.08132398      14.30742170       4.28769727      -0.01143084       0.00813770      -0.00008368
Cl       2.86631504      13.36496743       6.36455542       0.00162220       0.01713128      -0.00745326
Cl       0.52843372      11.81664424       5.65429581       0.00755876       0.00510788      -0.00087031
Cl       0.22836779      14.32642049       7.06366972      -0.00199544       0.00204271       0.00178298
C        1.19275971      13.44872399       5.83086360      -0.00083643       0.00796263      -0.00091785
Cl       8.70684139       8.12403887      15.08415983      -0.00488693      -0.00534791       0.00427294
Cl      10.29439164      10.54025992      15.32553237      -0.00152373      -0.00649446      -0.00524947
Cl       8.93094569       9.47926219      17.63499159      -0.00404524       0.00954329      -0.00246882
Cl       7.40652860      10.68232380      15.48294957      -0.00178289      -0.00276324      -0.01218075
C        8.83435556       9.71216054      15.87650927      -0.00346748      -0.00125779      -0.00400037
Cl       4.06518926       6.10623173       1.45777898       0.00015378      -0.00174870      -0.00088969
Cl       6.02886022       4.79932749      -0.22517469      -0.00111404      -0.00304630      -0.00119953
Cl       6.86811234       6.76106508       1.71866468      -0.00201178       0.00402044      -0.00241202
Cl       5.39264302       7.60512069      -0.62734627      -0.00333159      -0.00273380      -0.00312474
C        5.59034555       6.32504204       0.57925096      -0.00092669      -0.00064424      -0.00177521
Cl       2.59630169       6.76486199      14.15946825      -0.00243729      -0.00163979      -0.00056052
Cl       0.03652727       5.49928697      13.65923952      -0.00257844      -0.00095510      -0.00016952
Cl       1.25067518       7.14272009      11.62075824      -0.00335943      -0.00021685       0.00075275
Cl       0.20327724       8.37519964      14.02432644      -0.00197262      -0.00161964       0.00214371
C        1.02657793       6.96205959      13.36109584      -0.00264144      -0.00106567       0.00053194
