138
Lattice="13.447678455798478 0.0 0.0 0.0 13.447678455798478 0.0 0.0 0.0 13.447678455798478" Properties=species:S:1:pos:R:3:forces:R:3 energy=-269190.4375 stress="0.0006258229841478169 -1.702655754343141e-05 -0.0005283610080368817 -1.702655754343141e-05 0.0005131364450789988 -1.6537218471057713e-05 -0.0005283610080368817 -1.6537218471057713e-05 0.00019909025286324322" pbc="T T T"
Tc      12.92460366      13.79439721      -0.57839061       0.00397566       0.00393601       0.00153965
Cl      10.55567265       8.27642266       9.56752617      -0.01616189      -0.00773203       0.00326002
Cl      10.68147033      13.63832328      -0.44245674       0.00325447       0.00824272       0.00293258
Cl       4.81909488       7.19473126       1.87523874      -0.01518601      -0.02099422      -0.01457221
Cl       7.27841398       1.03261403      11.59901668      -0.01128034      -0.00352410       0.00236852
Cl      13.19726396      11.71360567      -1.40991532       0.00005706       0.00827822       0.00087544
Cl      13.37823185       1.14304829       1.38562375       0.00307049       0.00303805       0.00302124
Cl      12.13455419       2.70377260       2.98452046      -0.01516953       0.01508895      -0.02693745
O        1.72972900       0.39034151      12.42366226       0.00230691       0.00404000       0.00076397
C        2.03975125       2.74969509      12.59005975       0.00157517       0.00455654      -0.00222895
C        1.30471062       2.42737193      11.28748423       0.00358690       0.00257772      -0.00300020
C        2.63544024       1.40950069      12.97868796       0.00261495       0.00557280      -0.00014608
C        0.88037711       0.98976302      11.47298170       0.00367394       0.00376385      -0.00032926
H        2.81430350       3.50190764      12.46129774       0.00107086       0.00516334      -0.00153932
H        1.33939342       3.10703981      13.34372268      -0.00023219       0.00411350      -0.00323865
H        0.46317125       3.09117907      11.09708763       0.00497788       0.00220999      -0.00643249
H        1.98724326       2.47579716      10.43381596       0.00608876      -0.00016117      -0.00115708
H        3.61064184       1.22517813      12.52507441       0.00273848       0.00584771       0.00001523
H        2.70115404       1.22507808      14.04625593       0.00204886       0.00617898       0.00010502
H       -1.03147789       1.59599511      12.04242334       0.00506180       0.00807637       0.00262246
H        0.77232440       0.39137460      10.57093850       0.00314219       0.00196064       0.00119755
O        5.13340374       3.33746817       4.04689451       0.00095695       0.00027022      -0.00123030
C        2.84666751       2.96261411       3.95217434       0.00383729       0.00175853       0.01671508
C        3.52783644       1.60882256       3.74594276      -0.00221366       0.00238311       0.00800472
C        3.94603536       3.89300738       3.47828141      -0.00135696      -0.00525640       0.00516509
C        4.98334582       1.91454276       4.12247441       0.00098252      -0.00127196       0.00329112
H        1.90142885       3.07164349       3.42153539       0.00004452      -0.00122096       0.01559906
H        2.67217544       3.12990925       5.02033577       0.01897617       0.00214152       0.00945675
H        3.09766340       0.80638525       4.34404274       0.00057377      -0.00202580       0.01661937
H        3.47581803       1.30178717       2.70082644      -0.00608517      -0.00530264       0.00975421
H        4.01043089       3.90134951       2.38133364      -0.00335715      -0.00398631       0.00053120
H        3.87409181       4.93043209       3.79901344       0.00113016      -0.00089324       0.00138369
H        5.22036204       1.61264142       5.14707632       0.00812186      -0.00151108      -0.00205880
H        5.69896992       1.43375399       3.45054704      -0.00069457      -0.00318906      -0.00372922
O        8.18535176       3.31964381       3.47863772      -0.00171724       0.00043237      -0.00606650
C        7.87670821       5.33444862       2.26841372       0.00658815       0.00191331      -0.00617537
C        7.54266598       5.57997959       3.73739927      -0.00023240      -0.00174284      -0.00648860
C        7.79189180       3.81594413       2.19005920      -0.00341159       0.00399590      -0.00435013
C        8.22590838       4.40005187       4.40938595       0.00206330       0.00125015      -0.00605378
H        7.16115808       5.83843938       1.61878555       0.00040165       0.00170301      -0.00513725
H        8.88964886       5.67642831       2.03674559       0.00857472      -0.00935474      -0.00275000
H        7.88507607       6.54403948       4.10989415       0.00502335       0.00073019      -0.00372482
H        6.46179643       5.53609372       3.86679200       0.00385612       0.00312935      -0.00361951
H        6.76193201       3.49846649       1.99389770      -0.00191361       0.00302273      -0.00400976
H        8.44099261       3.36546752       1.43641090      -0.00352705      -0.00042304      -0.00680506
H        9.27781515       4.62483027       4.63550871       0.00008917      -0.00291331      -0.00522447
H        7.73702326       4.08113816       5.33492819      -0.00030234      -0.00071099      -0.00409788
O       12.27203655       1.70737574       9.16897520      -0.00225928      -0.00628502      -0.00105131
C       10.91963798       2.14092425       7.27826134       0.00124985      -0.00068459      -0.00719750
C       10.36258733       0.91961586       8.01145484      -0.02598709       0.01114309       0.00434321
C       12.34025776       2.18809952       7.82198948      -0.00788659       0.00366494       0.00512058
C       10.99472072       1.06903528       9.38525373       0.00057414      -0.01203400       0.00159174
H       10.89365432       2.06280914       6.19282283      -0.00146613      -0.00031138       0.00699210
H       10.37141108       3.03881650       7.57181426      -0.00208382       0.00311387       0.00165093
H        9.27636583       0.89415445       8.07250964       0.00096041       0.00648097      -0.00278487
H       10.70213748       0.00086321       7.52823995      -0.00704823      -0.00588670      -0.00086552
H       13.00480473       1.53606000       7.24147134      -0.00201598      -0.01775673       0.01841885
H       12.77136510       3.19289278       7.82863247      -0.00001250      -0.01284605      -0.00047348
H       10.38340157       1.69684593      10.03977076      -0.00971478       0.00664908       0.00240219
H       11.16064126       0.11940226       9.89583868      -0.01139598       0.00254864       0.00038111
O       12.39321973       4.62485572      11.75230679      -0.00220263      -0.00133699      -0.00284858
C       10.13736992       4.43404891      12.29926419      -0.00321388      -0.00504187       0.00606148
C       10.19913523       5.12126904      10.93006443      -0.00527680      -0.00757764       0.00302041
C       11.50775235       4.76228168      12.86212539       0.00107545      -0.00760017       0.00030711
C       11.69791417       5.13410609      10.59480087      -0.00598991      -0.00497127      -0.00142848
H        9.33134839       4.80701299      12.93046838       0.00027068      -0.00699881       0.00512333
H       10.01143056       3.35454334      12.20123376       0.00111643      -0.00699261       0.00684907
H        9.60320274       4.60610236      10.17697494      -0.00411029      -0.00296625       0.00190362
H        9.85536404       6.15671210      10.97237839      -0.00804057      -0.00618881       0.00366746
H       11.53231717       5.79984918      13.22961296       0.00137431      -0.00285006       0.00228742
H       11.84572767       4.09972635      13.65929505       0.00482105      -0.00315139      -0.00244391
H       11.96834527       4.48552851       9.75880124      -0.00999817      -0.00487703      -0.00105411
H       12.02158055       6.15697703      10.37304346      -0.01011738      -0.00409430      -0.00301583
O        8.23071414       8.61135776       6.31528470      -0.00141984      -0.00243491      -0.00763837
C        9.60899955       6.73209855       6.84050694      -0.00272948      -0.00317764      -0.00464566
C       10.27853386       7.62308822       5.79263120       0.00198340       0.00084412       0.00149319
C        8.21840972       7.35703799       7.01280193      -0.00135303       0.00048542      -0.00244136
C        9.59467355       8.95196092       6.07117115      -0.00066090      -0.00010526       0.00107825
H        9.56701214       5.68043492       6.55991123      -0.00621908      -0.00119315      -0.01279156
H       10.14488958       6.84448003       7.79119765      -0.00419492      -0.01246369      -0.00354642
H       11.35867892       7.68468142       5.91869546       0.00140569       0.00133628       0.00769143
H       10.06505330       7.28625693       4.77463805       0.00781803       0.00361893      -0.00044629
H        7.41111052       6.75834495       6.58304084      -0.00453657       0.00092795       0.00358120
H        8.00778649       7.52891158       8.07279765       0.00450115       0.00561212      -0.00199687
H       10.03819873       9.41703291       6.96085947      -0.00616795      -0.00225616       0.00481457
H        9.61136884       9.65377577       5.23486268       0.00334001       0.00213864       0.00308615
O        1.19377125       8.57647713       5.74153055       0.00338978       0.00311321      -0.00338580
C        3.11635091       7.38068991       5.05881079       0.00242496      -0.00058168      -0.00110704
C        2.41974984       6.60490385       6.17637194       0.00068998       0.00183213      -0.00042751
C        2.53266209       8.76792919       5.25420051       0.00350523       0.00036368      -0.00502588
C        1.02355089       7.21467737       6.14297029       0.00168034       0.00431764      -0.00133158
H        4.20259963       7.37357185       5.11153052       0.00230825      -0.00132283       0.00051696
H        2.85239930       6.99652152       4.07276788       0.00344686      -0.00262903      -0.00101337
H        2.40539137       5.52715241       6.01822525      -0.00084689       0.00203809       0.00126655
H        2.90069868       6.80225724       7.13778055       0.00091411       0.00268137      -0.00029829
H        3.09843210       9.33835744       6.00186433       0.00439891       0.00237119      -0.00702912
H        2.49262548       9.35062249       4.33313001       0.00329582      -0.00226635      -0.00676680
H        0.39629199       6.69648501       5.40593267       0.00083631       0.00384754      -0.00051880
H        0.50018776       7.19805955       7.10163373       0.00132629       0.00634184      -0.00123298
O        5.09639795      10.90506498       9.23364647       0.00581336       0.00295848      -0.00358289
C        7.45677050      11.16790943       9.11556998       0.00586587       0.00759710       0.00322104
C        7.11172172      10.12573977      10.17562222       0.00469285       0.00912863       0.00452882
C        6.12255372      11.87964720       8.94032928       0.00462395       0.00439996      -0.00314432
C        5.71752333       9.71832503       9.73280333       0.00680256       0.00541413       0.00144196
H        8.24175168      11.84914714       9.43720037       0.00328004       0.01003733       0.00371619
H        7.77213191      10.67245080       8.19435768       0.00955200       0.00580075       0.00498983
H        7.82888386       9.30382170      10.21159787       0.00601882       0.01045653       0.00840518
H        7.06532282      10.60246487      11.15800679       0.00084888       0.01184686       0.00322574
H        6.03511476      12.71204720       9.64636361       0.00133252       0.00521219      -0.00388533
H        5.95517376      12.25348492       7.92482357       0.00644098       0.00096594      -0.00500453
H        5.76573936       8.96959186       8.92936474       0.01083544       0.00356138       0.00328684
H        5.09398877       9.31746931      10.53636666       0.00500429       0.00601888       0.00037503
O        4.84465480      13.09825416       1.26387862      -0.00762609      -0.00602227      -0.00017638
C        4.73494571      10.74908925       1.36112267       0.00112021      -0.00643730       0.00111046
C        6.12461900      11.13959868       0.86061437      -0.00188130      -0.00103402      -0.00348055
C        3.95776581      12.00297505       1.01311296      -0.00475180      -0.00945812       0.00338078
C        6.20530701      12.61515999       1.23521066      -0.00585461      -0.00152218      -0.00187199
H        4.34769249       9.83540071       0.91487031       0.00217824      -0.00814593       0.00267231
H        4.75078289      10.58959476       2.44144493       0.00540573      -0.00610464       0.00109181
H        6.92269042      10.54727922       1.30539843       0.00186861       0.00165413      -0.00651883
H        6.18321326      11.02413906      -0.22318900      -0.00489032      -0.00032572      -0.00386795
H        3.66601357      12.00119625      -0.04522341      -0.00882246      -0.01135867       0.00440615
H        3.05490855      12.15420649       1.61106485      -0.00304371      -0.01226600       0.00683928
H        6.62752792      12.74213224       2.23956596      -0.00587700      -0.00285450      -0.00105327
H        6.77601889      13.22010264       0.52419158      -0.01025900       0.00042838      -0.00382274
O        6.28228572       4.92665915      10.07202716      -0.00048810       0.00440353      -0.00266337
C        6.27277103       6.20346708      12.05858924       0.00559068      -0.00073797       0.00076944
C        5.15254240       5.17038555      12.14478726       0.00739628      -0.00265987       0.00356698
C        6.51652136       6.25252884      10.55979268      -0.00150181       0.00379631      -0.00008833
C        5.55856554       4.17423674      11.06525560       0.00019717       0.00231947      -0.00364941
H        5.99810697       7.15773537      12.50309044       0.00731190      -0.00370067       0.00540374
H        7.16288744       5.83782067      12.57448211       0.00979829      -0.00264205      -0.00539841
H        5.06028491       4.72954933      13.13550141       0.01295446      -0.00664216       0.00125688
H        4.19658385       5.64697411      11.91061891       0.00532049      -0.00101490       0.01161194
H        5.81353599       6.94162393      10.07262802      -0.00700581       0.00329471       0.00597763
H        7.53017156       6.55206471      10.28217603      -0.00453383       0.00775667      -0.00485566
H        6.20685403       3.37297494      11.44570275      -0.00029778      -0.00092524      -0.00876233
H        4.70704936       3.69077144      10.57345647      -0.00280130       0.00705022      -0.00241095
