149
Lattice="16.44302849298628 0.0 0.0 0.0 16.44302849298628 0.0 0.0 0.0 16.44302849298628" Properties=species:S:1:pos:R:3:forces:R:3 energy=-1180197.375 stress="-0.0003334942739456892 0.0004224412114126608 0.00017412243323633447 0.0004224412114126608 -0.00043480194290168583 -6.286153075052425e-05 0.00017412243323633447 -6.286153075052425e-05 -0.000929875997826457" pbc="T T T"
Tc      16.39813636      17.96113918       0.17542209      -0.00340569      -0.00007880       0.00383422
Cl       9.75430633       8.37544843       5.43248588      -0.00151014       0.01102233       0.04682815
O        9.80761959       8.83696304       4.07076815       0.02993012       0.00030506      -0.00772500
O        9.18805369       9.27564727       6.39508698       0.00626403      -0.00921214      -0.02220291
O        8.06881036       6.98539924       5.54147656       0.00522804      -0.00697708      -0.00077367
Cl       7.46514809       6.31738322       4.29320447       0.00206149      -0.00379436       0.00647065
O        8.54964210       5.79114808       3.52343742       0.02448320       0.01457757      -0.00921917
O        6.73517342       7.30406577       3.56527909       0.01117635       0.00521064       0.00061965
O        6.60991863       5.30658119       4.82465646       0.02113163      -0.00405419      -0.02416128
Cl       4.52759138      14.95449403       7.60373177      -0.00376582      -0.00432110       0.00779712
O        4.35043958      14.57616941       9.02354220      -0.00070918      -0.00201559       0.00847864
O        5.05309755      16.32234008       7.50984104      -0.00319088      -0.00502062       0.00408506
O        5.43774495      13.99952253       6.93740270      -0.00587416      -0.00596094       0.00719023
Cl      13.30842960       8.80869057       6.21106860      -0.00964653      -0.00176477      -0.01221187
O       12.96115239       8.46515129       4.82360334       0.01723725      -0.00376797      -0.02096081
O       12.07284919       8.77293575       7.03046828      -0.02666759      -0.00825667      -0.03908813
O       14.29644157       7.85013978       6.75541582      -0.01914287      -0.00092340       0.00414038
Cl      15.00802377       8.87952089      13.25695056       0.00705576       0.00491461      -0.00335681
O       14.19903929       9.54940861      12.22219520       0.00739956       0.00453854      -0.00361991
O       14.47944179       7.53254524      13.53334856       0.00344121       0.00764108       0.00138575
O       14.98910137       9.69065286      14.50215185       0.01207857       0.00888586      -0.00587296
Cl       3.31104479       6.69283829       1.06032864       0.00288343       0.00161707      -0.00120974
O        2.52589756       7.94758510       1.13909190       0.00349104       0.00161386       0.00297812
O        2.49114592       5.61042093       1.69393233       0.00531709       0.00137043       0.00092971
O        3.46787386       6.32492262      -0.38164408      -0.00295761       0.00292581      -0.00200176
Cl       8.97036823       3.91079800       7.51445644      -0.01219440      -0.00444674       0.01148880
O        7.65635856       4.38531921       7.95466821      -0.01135826      -0.00287372       0.00719798
O        9.27426573       2.57656347       8.03452569      -0.01474726      -0.00480723       0.01261258
O        9.12717647       3.98650813       6.06499355      -0.00632074      -0.00454869       0.01226282
Cl       3.25382335      10.48213621      10.14158273       0.00517517      -0.00283349       0.00858191
Cl       4.50591063      12.36005199      11.98843073       0.00058722       0.00066082       0.00760317
Cl       5.95091084      11.46334294       9.61620972       0.00405508      -0.00225317       0.00930998
C        4.36767685      11.85201784      10.29700443       0.00369685      -0.00183025       0.00816523
H        3.98028123      12.69196601       9.73178864       0.00311711      -0.00328648       0.00669739
Cl       6.63227651       2.07945888       5.69480776      -0.00548944      -0.01298487      -0.00371784
Cl       8.84321739       1.69508157       3.82488138       0.00478846      -0.00676233       0.00814107
Cl       7.51084780      -0.61799920       5.02118365      -0.00479618      -0.01033717      -0.01092991
C        7.30699254       1.03936819       4.45498761       0.00027214      -0.00747415      -0.00420922
H        6.61644158       1.02426584       3.62349232       0.00512508      -0.00272757      -0.00813651
Cl      10.33591284      14.45978342      13.61439437      -0.00053400       0.00162733      -0.00733832
Cl      13.11747371      14.53264274      12.73011512       0.00000021       0.01670413      -0.00269839
Cl      12.29074483      16.04031561      15.09764423      -0.00868217      -0.00048211       0.00454206
C       12.02164514      14.56808640      14.10824579      -0.00190428       0.00463033      -0.00420809
H       12.24863703      13.72216655      14.74626113       0.00015140       0.00183931      -0.00892514
Cl      12.31574056      13.71472088       7.05767506      -0.00542033       0.01365507       0.00698955
Cl      13.65776395      11.60920136       8.56842918      -0.02993242      -0.00776917      -0.00224420
Cl      14.43103841      12.14683463       5.80237095      -0.00946191       0.00798276       0.00810117
C       13.83075943      12.83993462       7.32600438      -0.01358651       0.00042774       0.00922956
H       14.57372057      13.55421720       7.65226003      -0.01092726      -0.00737038       0.01946317
Cl       6.01704614       1.03935492       0.85188107       0.00007795       0.00159177      -0.00260733
Cl       4.86750722       3.66746901       1.41307707      -0.00924590      -0.00051931      -0.01270214
Cl       7.70711691       3.43358987       0.78153894      -0.00328428       0.00416414       0.01890613
C        6.09372907       2.79150726       0.50703077       0.00132970       0.00210616       0.00010557
H        5.87016057       2.90527616      -0.54693387       0.01300663       0.00250839      -0.00213948
Cl      12.68585881       2.53121566       2.70618906      -0.00429268      -0.00061919       0.00152166
Cl      14.22999094       2.26994520       0.13291318      -0.00343239      -0.00123772       0.00265217
Cl      15.54671007       1.74157067       2.55965438      -0.00539625      -0.00336363       0.00290906
C       13.89487632       1.65039849       1.86563955      -0.00494227      -0.00176632       0.00203252
H       13.64160369       0.59405407       1.76556356      -0.00611253      -0.00131118       0.00162660
Cl       3.87806686       9.84513969       3.50864931      -0.00172764       0.02425426       0.00209713
Cl       5.18589181       8.96868863       5.96130158       0.00300083       0.01055336       0.00111347
Cl       6.69368656      10.47448863       3.95625164       0.00177002       0.00309567       0.01288682
C        5.12111192      10.21049877       4.71363724      -0.00237697       0.01442787       0.00718643
H        4.85010437      11.13905216       5.19141215      -0.00008678       0.01712656       0.00452673
Cl       8.49249901       4.43999876      13.90439984       0.01423322       0.00503477       0.00919527
Cl      10.95970100       4.97095512      12.44780600       0.00913012       0.00189903      -0.00045232
Cl       8.79226782       3.51365252      11.14568828       0.00391640       0.00160372       0.00966388
C        9.21083749       4.76465157      12.30141694       0.00886078       0.00261822       0.00645389
H        8.79326198       5.69967814      11.94690061       0.00808400       0.00230375       0.00703801
Cl       2.42203291      11.86840613       0.50676918       0.01639035      -0.02826962       0.00053859
Cl       5.17704302      12.71144396       0.97157181       0.00507665       0.01011801      -0.00841494
Cl       3.11185959      14.70719055       0.44582511      -0.02352966      -0.02101517      -0.00896692
C        3.47623900      13.10232757       1.17127201       0.00056676      -0.01289412      -0.00552958
H        3.27419939      13.19192621       2.23133178       0.00263626      -0.01369089      -0.00543305
Cl       1.11567244       3.99211146      13.89624348      -0.00860298      -0.00017214       0.00772412
Cl      -0.36701791       5.57805927      15.80053197      -0.00282016       0.00206101       0.00994584
Cl       1.28590141       3.25885204      16.84747101      -0.00430241       0.00007653       0.00663313
C        1.08201285       4.73129687      15.47044078      -0.00440049       0.00026643       0.00731298
H        2.00256803       5.30680813      15.69186944      -0.00351667      -0.00058344       0.00512196
Cl       8.92831444       7.30186356       9.40239091       0.00144446       0.00465298      -0.00136656
Cl      11.44455750       8.45035091      10.35201969       0.00374103      -0.00059118      -0.00317860
Cl       9.25741700      10.20326488       9.55881717       0.00785321       0.00339431      -0.00577316
C        9.70417455       8.64559394      10.27007907       0.00379287       0.00371684      -0.00335641
H        9.30967585       8.63177207      11.27879127       0.00384967       0.00628453      -0.00334215
Cl       4.45753436       0.04467723      13.92001180      -0.00020495       0.00689030       0.00226724
Cl       0.59884339       0.27117354      14.89060477      -0.00201371       0.00261157       0.00255829
Cl       4.76238381       2.84846916      13.26883512      -0.00628445       0.00745606      -0.00016343
C        3.84215684       1.48235170      13.38831954      -0.00305832       0.00589569       0.00363739
H        2.79087895       1.53267680      13.14131408      -0.00334895       0.00299169       0.00516769
Cl       0.73113932      12.81898931       8.15947811      -0.00861005      -0.00970283       0.01934063
Cl       3.12918123      12.06047344       6.76483928      -0.00856203       0.00824511       0.00980086
Cl       0.95153783      10.11755271       7.03466086      -0.01895697       0.00320196       0.00962347
C        1.38927842      11.81118153       6.85303207      -0.00808154       0.00075515       0.01324237
H        0.95687969      12.15853032       5.92405237      -0.00867629       0.00300331       0.01490268
Cl      11.71230652       9.78510402      13.64881789       0.00734311       0.00787059      -0.00567073
Cl       8.97692755      10.78093901      13.54481889       0.00660795       0.00473568      -0.00344172
Cl       9.48602789       7.94003581      13.98559224       0.01035501       0.00585103      -0.00155950
C       10.08695737       9.59914653      14.26060688       0.00833908       0.00649694      -0.00370493
H       10.08243428       9.75036140      15.33546418       0.00913431       0.00752673      -0.00389832
Cl       8.11239918      10.87987060       0.70284389       0.00694175      -0.00019968      -0.00220501
Cl       8.41059284       8.00054683       0.97402354       0.00153708      -0.00052041      -0.00458401
Cl       5.77283730       9.12917152       0.46271756       0.00388116       0.00485992       0.00163469
C        7.50233398       9.27846789       0.19071683       0.00302655       0.00188310      -0.00237015
H        7.67144358       9.21691021      -0.87717359       0.00083611       0.00225942      -0.00275373
Cl      -0.06963899       6.67584719      11.09422287      -0.00086206      -0.00387430      -0.00225747
Cl       2.57791183       6.85370065       9.86210013      -0.00425160      -0.00102317      -0.00834300
Cl       0.34789527       5.70688991       8.38202916      -0.00561067      -0.00564301      -0.00213915
C        0.83066686       6.90198303       9.59065364      -0.00474616      -0.00403115      -0.00429375
H        0.58598600       7.88048391       9.19935009      -0.00716370      -0.00478470      -0.00441770
Cl      11.52048524      12.65666773       3.54971662      -0.00500308       0.00194758      -0.00144374
Cl      10.91908245      15.50977636       3.43099165      -0.00259593       0.00072730      -0.02575523
Cl      13.66013987      14.58390738       3.02862506      -0.00182208      -0.00338700      -0.00527503
C       11.92588322      14.19704911       2.81795625      -0.00045455      -0.00405259      -0.01096611
H       11.76839545      14.11585071       1.75035874       0.00482772      -0.01215829      -0.01084742
Cl       1.03965576      14.31861309       3.76978222      -0.00091054      -0.00283787      -0.00506802
Cl       1.75242827      16.96701127       4.76059439       0.00814269      -0.00482100      -0.00568748
Cl       3.84059658      15.00430499       4.27029000      -0.00021905      -0.01494174       0.00326857
C        2.26922083      15.60958912       3.76737374       0.00435639      -0.00835823      -0.00276984
H        2.35487405      15.94896450       2.74170999       0.00946181      -0.00994258      -0.00263280
Cl      12.40467567       5.02438185       9.26327256       0.00883394       0.00547007      -0.01036948
Cl      14.12416262       3.73035758       7.29945023       0.00703979      -0.01689225       0.00254445
Cl      11.91869583       5.39568109       6.40874241       0.00464046      -0.02785489      -0.01299292
C       13.13699741       5.16803791       7.66001170       0.00683653      -0.01317130      -0.01301194
H       13.78109638       6.04271049       7.64820114       0.00579980      -0.01266521      -0.02298199
Cl       3.48589917       1.19806614      10.20099753      -0.00830060       0.00109620       0.00298466
Cl       1.39142645       0.05263616       8.53698269      -0.01768156      -0.00496951       0.01990303
Cl       0.84553772       0.70299275      11.32905235      -0.01177889       0.04703829       0.00746843
C        1.75543673       1.15000818       9.85745738      -0.00771866       0.01304329       0.00152591
H        1.44776014       2.14720386       9.56993352       0.00305069       0.01063931      -0.01663684
Cl      -0.67236001       6.03371225       3.34112018       0.00523621       0.00442940       0.00745185
Cl      -0.32773404       8.91992251       3.59146617       0.00750154       0.00489110      -0.00262141
Cl       1.59942508       7.13340296       4.81816306       0.00429532       0.00772917       0.00589710
C        0.49753991       7.36103603       3.45049276       0.00593738       0.00365807       0.00416535
H        1.09610359       7.37290006       2.54561210       0.00681794       0.00003497       0.00494546
Cl       3.47595178       3.84727479       4.55568632       0.00708887       0.01028049       0.00193638
Cl       0.90077562       3.50358771       5.88199771       0.00109035       0.00053203      -0.01300285
Cl       3.38376294       3.11640754       7.36992613      -0.00643539      -0.01259637      -0.00522310
C        2.59949498       4.00878916       6.05991328      -0.00024760      -0.00176238      -0.00206456
H        2.57868552       5.05413915       6.33586021       0.00126072      -0.00413722       0.00597692
Cl      12.59387525      11.96033628       0.13471248      -0.00159842       0.00030913      -0.00556625
Cl      14.99963110      13.50672675      -0.48464773      -0.00438142       0.00377190      -0.00480102
Cl      15.16672069      11.14249789       1.22483202      -0.00042960       0.00169039      -0.00804251
C       14.36208907      11.88228928      -0.13940922      -0.00194389       0.00243199      -0.00634655
H       14.51834746      11.25360721      -1.01617886      -0.00155860       0.00385344      -0.00725242
Cl       6.26421391       8.88239670      11.87706890       0.00232859      -0.00118226       0.01218590
Cl       3.87684927       7.82852689      13.16040449      -0.00247556      -0.01399477      -0.00893094
Cl       5.73758005       6.02438796      11.80736715       0.01260476      -0.00239712      -0.00196534
C        5.55341946       7.52782403      12.75332858       0.00112508      -0.00681284       0.00205836
H        6.10669279       7.38729590      13.67377953      -0.00490320      -0.00843259       0.00532800
