147
Lattice="16.51755142708272 0.0 0.0 0.0 16.51755142708272 0.0 0.0 0.0 16.51755142708272" Properties=species:S:1:pos:R:3:forces:R:3 energy=-1119959.375 stress="-0.0009155642474070191 -0.0004612546181306243 0.00019332725059939548 -0.0004612546181306243 -0.0009592050337232649 0.0001727619965095073 0.00019332725059939548 0.0001727619965095073 -0.0005930516053922474" pbc="T T T"
Tc      15.33654362      16.27334100       1.55366401      -0.04281402       0.00012153       0.01902801
O        7.62826537      15.42168361       3.00714004      -0.00571972       0.00597572       0.00229120
N        8.36056838      13.73918490       4.55537336       0.00603515      -0.00136375      -0.01563573
C        7.98486860      14.56746921       3.77149955      -0.00735781       0.00230990      -0.00317000
O       13.71057234       7.84306956       5.96769962       0.01008275      -0.02831924      -0.01189923
N       13.20787977       9.30795888       4.13145737       0.00240475      -0.00125432       0.01234126
C       13.46033716       8.57811467       5.04567660       0.00396557      -0.01626804       0.00031987
O       13.62946143       5.78697975      13.24927773       0.00889733       0.03221822      -0.03300423
N       13.21243297       8.14712555      13.28531135      -0.08790994       0.00920510       0.02860160
C       13.42465226       6.96529340      13.26676010      -0.04444909       0.02094936       0.00124488
O        9.19484691       3.63209069       7.42507932       0.00832850      -0.01810347      -0.04116318
N        9.57907796       2.86261481       5.20093151      -0.01425463       0.00151277      -0.00289464
C        9.39266630       3.18360150       6.37132670      -0.01715107       0.02240051       0.05744332
O       16.23604561       9.03260462       0.46256947       0.03160954      -0.04771018       0.01584390
N       17.62297349       7.08572602       0.52676371       0.08234251      -0.00986350      -0.05452845
C       16.90719309       8.05285797       0.47812439       0.05397742      -0.03054637      -0.01701525
O        4.25727242      11.61712254       7.44922292       0.00701988      -0.02594745      -0.00916469
N        2.87083577      10.11164836       6.20439564      -0.02783501       0.01296997      -0.01500726
C        3.57162672      10.86457862       6.83155090      -0.01010223      -0.00674903      -0.01101155
O        9.00791834      -0.34435420       6.04729941       0.05076807       0.04108236      -0.02728225
N        9.82931715       1.52669620       4.81390880      -0.01663458      -0.00375520      -0.00197029
C        9.36905710       0.60359821       5.48496206      -0.01021820      -0.05588832       0.03342056
Cl      10.67812370      14.49364115      14.78486296       0.00106964       0.01744187       0.00194441
Cl      12.78694160      16.16529679      13.67123888       0.00621619       0.00722644      -0.00251862
Cl      13.49557178      13.79334325      15.23492063      -0.00220868       0.00799332       0.00119415
C       12.31900194      14.51896991      14.12832102      -0.00030487       0.01023163       0.00001965
H       12.32727886      13.91410425      13.23126230      -0.00285989       0.00907592       0.00097802
Cl      10.52550706      13.52235806       7.27874955       0.00167245      -0.00598454      -0.00414649
Cl      11.92573893      11.33258396       5.92157234       0.03450711      -0.00141841       0.00404280
Cl      13.42214722      13.63122093       6.89974399      -0.00559306       0.02228415       0.01167871
C       12.01122943      12.57111404       7.15183457       0.00654432       0.00465106       0.00416760
H       12.17074019      12.07566094       8.10026770      -0.00767127       0.00392881       0.00624263
Cl      12.21873508       2.21058865       2.72236391      -0.02640048       0.05286449      -0.02489179
Cl      15.10378086       1.67297783       2.90472399      -0.03838873       0.00190786       0.01605284
Cl      14.17230877       1.12127088       0.30162986      -0.01016551       0.01483253       0.00553882
C       13.73620435       2.47694288       2.05263302      -0.01208764       0.02334327      -0.00178298
H       14.00375799       3.49723161       1.78256187       0.00947347       0.01655678      -0.00187941
Cl       4.25990234       7.65372996       3.78179568      -0.00523612       0.02384484      -0.01463765
Cl       3.11469971       9.56294642       1.89866264       0.02317369       0.04311267      -0.01462516
Cl       5.20054559      10.41439458       3.75097331       0.01131761       0.01745826       0.00917369
C        4.55647751       9.08551276       2.78565717       0.01171941       0.02719656      -0.00388329
H        5.31125773       8.80641226       2.06279307       0.01566115       0.02719402       0.00095841
Cl      10.54911062       4.84828079      13.76889411      -0.00922629      -0.00718448       0.01268560
Cl       7.80158174       5.11294473      12.80492477       0.00648215       0.00265895      -0.02423424
Cl      10.03753536       5.87241323      11.08983964       0.03418502      -0.00133440       0.00861493
C        9.48898873       4.77944659      12.37386967       0.01050493      -0.00253287      -0.00271761
H        9.51464391       3.77655071      11.96832162       0.01343090      -0.00265062      -0.00197588
Cl       4.80711924      13.44366800       1.98174166      -0.01730472       0.00943419      -0.02846324
Cl       7.04056352      13.35297197       0.10642310      -0.00771469      -0.00192660      -0.01630178
Cl       4.71480942      15.02260635      -0.46957115       0.02310085       0.04194568      -0.00777847
C        5.75614112      14.35307500       0.80934473       0.00408529       0.00906558      -0.01113361
H        6.23628743      15.16867499       1.33429253       0.01335600      -0.00556046       0.00196946
Cl      -0.60699772       4.85291110      14.71198425      -0.01983970      -0.02178814       0.00198239
Cl       0.05273220       3.78326344      17.34209614       0.00551143      -0.02624841       0.00096813
Cl       1.98439120       3.56737171      15.17578163       0.02176172       0.06806204       0.01185414
C        0.67979188       4.57852568      15.84578561      -0.01561031       0.01019722       0.01057339
H        1.07245395       5.55898512      16.20648530      -0.03826667       0.02389503       0.01899785
Cl       8.31875328       8.41923855       9.06675179       0.00061381      -0.00096761       0.00412279
Cl      11.19631212       8.62709148       8.66219589       0.00091857      -0.00456668       0.01114863
Cl       9.65835249      10.93369649       9.57592861      -0.00030389       0.00237060      -0.01239335
C        9.82497002       9.16737446       9.61790987      -0.00174914       0.00302986       0.00316641
H        9.98597671       8.87097857      10.64717033      -0.00407310       0.01160581       0.00595254
Cl       2.41914740       1.79683793      10.36365644       0.03187193      -0.03726142       0.01047146
Cl       3.38116309       0.16683651      12.57484188       0.00625773       0.00992316       0.05389851
Cl       4.46853779       2.82601855      12.18096327       0.00976920       0.00229201       0.00972889
C        3.02856172       1.80526687      12.01711615       0.01219738      -0.00122873       0.01629747
H        2.25905504       2.22629419      12.65279878       0.00539547       0.01128659      -0.00049669
Cl       0.46423022      11.94033483       8.28297606      -0.00630021      -0.00823039      -0.00179523
Cl       1.70770175       9.59272295       9.48960508      -0.03533792      -0.02454180      -0.00506955
Cl      -0.71699454       9.29533477       7.87252576      -0.01676881       0.00249553      -0.03648607
C        0.78056388      10.20384557       8.11280604      -0.01499528      -0.00794902      -0.01133794
H        1.43540863      10.07685808       7.22157142      -0.00482243      -0.00395953      -0.00571489
Cl       7.92543132       9.48198881      16.57537289       0.02591464      -0.00362392       0.00505883
Cl       8.95058882       8.39428205      14.07495136      -0.02186759       0.01478630      -0.01334316
Cl       9.50916199      11.17031680      14.80728141       0.02029672       0.00055051       0.00097272
C        9.24805529       9.53113928      15.39970648       0.01145657      -0.00117895      -0.00971296
H       10.15315048       9.21283889      15.90184648       0.01379710      -0.00905973      -0.02148877
Cl       4.85390153       7.19474452      -0.32266445      -0.01064450      -0.01020405       0.00785588
Cl       6.88722515       6.01403908       1.39892740       0.01123644       0.00478041      -0.00953478
Cl       5.85021698       4.52253543      -0.88625232       0.00091720      -0.00415111       0.00206563
C        6.25774760       6.11348544      -0.24829929      -0.00385493      -0.00008634      -0.00405394
H        7.03756280       6.53461296      -0.87250058      -0.01167092       0.00285468      -0.01136637
Cl      -0.59008937       4.48065051      11.07435373       0.00076419       0.00744975      -0.03126545
Cl      -0.04831709       7.27777043      11.66415312      -0.00797027      -0.00665927       0.04026514
Cl       2.12381632       5.32392672      11.70606028      -0.00101149       0.00251515      -0.01834923
C        0.58383497       5.79003971      10.96076076      -0.00520660       0.01529699      -0.00049628
H        0.78053357       5.96835716       9.91161235      -0.01028472       0.04693130       0.00456798
Cl      11.10408753      14.05921130       3.90212182      -0.01948535      -0.01562557      -0.00809252
Cl      13.53061137      13.15237112       2.52381698      -0.00232184      -0.00022626       0.00989653
Cl      11.92060929      15.32344602       1.44104647       0.01917455       0.01734819       0.01958984
C       12.47336927      14.52076760       2.92969888      -0.00601806      -0.00626770       0.01846842
H       13.08900399      15.24458524       3.45777691      -0.01115735      -0.01360926       0.03253826
Cl       0.26858954      14.99846960       2.62334429      -0.01777827       0.01648664       0.00154185
Cl      -0.10668889      16.03661177       5.54557276      -0.00447696      -0.00307082       0.01484626
Cl       2.38074648      14.66736277       4.92385574      -0.02977166      -0.03727558      -0.00686374
C        1.17282022      15.75586645       4.42184802      -0.01052254      -0.01018099       0.01056319
H        1.56724495      16.68851569       4.02925049       0.00434825      -0.01304999       0.02002140
Cl       2.99418053       2.78626264       3.90919716      -0.04770958      -0.05789791       0.00242978
Cl       3.38301267       4.77052733       1.82512497       0.00916672      -0.01407176       0.05891738
Cl       4.53877050       2.09435230       1.53427461      -0.00060505      -0.01137415       0.01863529
C        3.20176513       3.06722407       2.16346486      -0.00844422      -0.01964927       0.01276504
H        2.29585660       2.73079637       1.67613814      -0.00031424      -0.00095646      -0.01444454
Cl      14.64490466       2.82261611       8.23291083      -0.00996161      -0.03610834      -0.01649109
Cl      12.77603823       3.43122805       6.09199075      -0.00255202       0.01200303      -0.00729632
Cl      12.18846969       4.26590223       8.83489551       0.01777923       0.00333475      -0.00230774
C       13.45442579       3.98321760       7.64244392       0.01000508      -0.00998088      -0.00565629
H       13.95189906       4.92475874       7.44829183       0.02436893      -0.01750988      -0.00294359
Cl       1.29664663       7.69778742       5.51187700      -0.00023633      -0.02553070       0.00540724
Cl       0.11536119       5.59906428       3.86536851      -0.04527456       0.01165068      -0.00985348
Cl      -0.07245817       5.46821988       6.78238873       0.02785855      -0.05108663      -0.01184046
C       -0.01286832       6.55217661       5.35762241      -0.00647900      -0.02025479       0.01299104
H       -0.95827963       7.08449490       5.34385461      -0.00663650      -0.02002823       0.04542735
Cl       6.00529108       3.58821564       6.00921064      -0.01479860       0.00675568      -0.01300818
Cl       3.82108675       5.34053451       6.82705166       0.00110811       0.02070032       0.00526968
Cl       5.12499027       3.62249099       8.78969120       0.01490979       0.01936218      -0.00486833
C        5.33253620       4.57833951       7.31641692       0.00302280       0.01366077      -0.01143222
H        6.05218138       5.35840752       7.52667677       0.00737610       0.00925556      -0.02078348
Cl       5.90979484       7.98999060      11.58340453      -0.01037505       0.00102335       0.00854617
Cl       5.47570907      10.57883567      12.84677788       0.00479414       0.00102800       0.01336985
Cl       3.28800484       8.65004064      12.66468885      -0.00225711       0.00916461       0.02261128
C        5.02305831       8.86557225      12.83919044      -0.00078963       0.00271499       0.01392031
H        5.31476237       8.45011607      13.79526108       0.00277054       0.00068499       0.01181805
Cl       5.40412886      16.19535325       7.75931135       0.04401514       0.01495701      -0.01616436
Cl       6.48403803      13.60942319       8.57826479      -0.01587203       0.00168246       0.00956130
Cl       5.46275185      13.97980115       5.86155007      -0.00253063      -0.00699955       0.00474596
C        6.26813501      14.72618378       7.23087051       0.01092111      -0.00826901      -0.00218647
H        7.24788831      15.02760554       6.88890901       0.01731539      -0.03322421      -0.00447258
Cl      13.84143786      10.99253790       9.83191959       0.00505701      -0.01179916       0.00791508
Cl      12.43664066      11.29264451      12.35298168       0.00517000      -0.00334367       0.00622708
Cl      13.71600927      13.60890191      11.09084951       0.00554124      -0.00785902       0.00124491
C       12.87300509      12.06070821      10.83360277       0.00596592      -0.00860766       0.00494584
H       11.95468196      12.29089966      10.30561657       0.00670630      -0.01083224       0.00340590
Cl       7.87184108       1.90726685      10.87675518       0.02079208      -0.01181519      -0.02463098
Cl       7.09387263      -0.69960516      11.91377903       0.00084260      -0.00367033      -0.02035882
Cl       9.15885022      -0.49855974       9.85467914       0.02370308      -0.02093291       0.00196347
C        8.41977373       0.26535633      11.26707157       0.01085983      -0.01135051      -0.01047684
H        9.18115293       0.34407271      12.03464236       0.00292850      -0.01065438      -0.00297800
Cl       1.00416295      11.45370174      12.58676453      -0.01690707       0.00845039       0.00236377
Cl       2.92258019      13.03828762      11.05404671      -0.01180607      -0.00222647      -0.00022662
Cl       0.66377892      14.33364905      12.38690778      -0.00839767       0.00924265      -0.00687242
C        1.83697804      13.00476626      12.44292291      -0.01257700       0.00571440      -0.00139368
H        2.43625739      13.13918869      13.33526711      -0.01335347       0.00692810      -0.00133127
Cl       9.49105055       6.38194306       6.32273679       0.00832902       0.00275958      -0.00968273
Cl      10.22799542       8.35836330       4.31754467       0.00010794       0.00842476      -0.01316655
Cl       7.40847633       7.88312721       4.97406266       0.00486505      -0.00931817      -0.00716472
C        9.07726384       7.93031004       5.56323416       0.00580230       0.00109091      -0.01065490
H        9.12662742       8.68085968       6.34185358       0.00337918       0.00298208      -0.01242742
