139
Lattice="11.788862347626186 0.0 0.0 0.0 11.788862347626186 0.0 0.0 0.0 11.788862347626186" Properties=species:S:1:pos:R:3:forces:R:3 energy=-69071.2265625 stress="-0.003403204260393977 0.0001748226204654202 -0.00014315732551040128 0.0001748226204654202 -0.0037806998006999493 6.824149750173092e-05 -0.00014315732551040128 6.824149750173092e-05 -0.00362943927757442" pbc="T T T"
N        8.16585396       8.18738115       2.42713472       0.00194295       0.00142015      -0.01120513
C        7.40233070       9.21298993       1.61535041       0.00101228       0.00122857      -0.00953542
C        9.13506963       7.39806982       1.55456562       0.00103340       0.00246048      -0.01290074
C        7.20339015       7.20898134       3.07037575       0.00222230       0.00208569      -0.01063442
C        8.96540481       8.93763796       3.47586006       0.00405896      -0.00090331      -0.01176873
C        6.67273404       8.68824455       0.39834089       0.00264461       0.00147037      -0.01031795
C       10.04476846       8.20947282       0.67232183      -0.00134614       0.00252900      -0.01421964
C        7.85148029       5.97646471       3.66587883       0.00065303       0.00046366      -0.01337928
C        8.17710080       9.80751049       4.43474744       0.00693351       0.00011621      -0.01127127
H        6.69479403       9.66289758       2.30856520       0.00013886      -0.00110066      -0.00935307
H        8.13940321       9.96968111       1.34232436      -0.00042936       0.00254980      -0.00814278
H        9.72099438       6.80423939       2.25455881       0.00255370       0.00347871      -0.01386990
H        8.51093060       6.70951725       0.98282221       0.00072640       0.00213067      -0.01135691
H        6.65290186       7.76660337       3.82594431       0.00483997       0.00209926      -0.00919560
H        6.49784124       6.91570537       2.29650274       0.00022523       0.00371452      -0.00896984
H        9.52027395       8.17876401       4.02231958       0.00199707      -0.00246912      -0.01254883
H        9.67194935       9.54492558       2.91187308       0.00527042      -0.00254515      -0.01129034
H        6.23442356       9.54930996      -0.10713514      -0.00074247       0.00075799      -0.00771233
H        7.32930461       8.19399514      -0.31576387       0.00394322       0.00600453      -0.01169923
H        5.85643754       8.01188181       0.64725793       0.00576738      -0.00226150      -0.01195899
H       10.68534763       7.51335259       0.13006738       0.00270773       0.00259760      -0.00930239
H        9.51905152       8.80800281      -0.06883167      -0.00337367      -0.00472650      -0.01870583
H       10.71558882       8.88307182       1.19825007      -0.00433761       0.00834733      -0.01754303
H        7.09889961       5.45601181       4.25394121       0.00104567       0.00221168      -0.01210761
H        8.21413008       5.28768549       2.90507789      -0.00350472       0.00040372      -0.01477987
H        8.66932290       6.21494676       4.34460897       0.00295824      -0.00281026      -0.01562208
H        8.90029726      10.23693498       5.12950281       0.00798076      -0.00167941      -0.01176836
H        7.67884386      10.64089238       3.94302469       0.00898701       0.00064361      -0.01106255
H        7.45427203       9.25758222       5.03746522       0.00576946       0.00223111      -0.01142230
O       10.53495031      11.32415559       1.31963938       0.00507355       0.01061969       0.00519216
O       12.16383885      10.25305668       0.18519964       0.01235402       0.02692914       0.02895325
O       12.15672323      12.51803054       0.27035250       0.01370108       0.01484537       0.02525139
C       11.75232536      11.36663245       0.50296232       0.02171630      -0.00598263       0.01507151
H       10.34888552      12.25746576       1.47195637       0.00995389       0.00739294       0.01325406
C        5.41847293       3.76898496      11.53174976       0.00317745      -0.01584905       0.00703183
C        6.48730081       2.89925234      11.32015136      -0.00144619      -0.01863375      -0.00216482
C        4.12903240       3.24250884      11.59798138       0.00216112      -0.01168584       0.01327762
C        5.65959996       5.24721867      11.61022909       0.00874574      -0.01757503       0.01396631
C        6.25912170       1.54753724      11.09721583      -0.00692663      -0.01722412      -0.00142149
C        3.89135715       1.88742159      11.39913867      -0.00323066      -0.01040868       0.01386086
C        4.96222049       1.04770149      11.11365985      -0.00794224      -0.01353544       0.00713967
H        7.49797371       3.28856303      11.29810865      -0.00058647      -0.02183273      -0.00836589
H        3.29438278       3.91028531      11.77005837       0.00596373      -0.00953225       0.02113558
H        4.81433069       5.76557329      12.06040419       0.01477684      -0.01849332       0.02568171
H        6.55867242       5.47036686      12.18841255       0.01492244      -0.02473828       0.00648804
H        5.81466978       5.67183244      10.61225241       0.00057274      -0.01177588       0.01568189
H        7.10236430       0.89322291      10.90414560      -0.01052994      -0.01972771      -0.00675124
H        2.88022727       1.49340464      11.44601362      -0.00350675      -0.00785640       0.02118038
H        4.78108794      -0.00329285      10.91901290      -0.01207125      -0.01283623       0.00938284
C        1.92771945       5.45084578       2.79612827      -0.01373177       0.00067629      -0.00711983
C        2.88767892       6.36119990       2.35473150      -0.01546970      -0.00205759      -0.01483545
C        1.64229569       5.40832353       4.15934874      -0.00574853       0.00415783      -0.00587700
C        1.27203613       4.49615233       1.84806461      -0.02190582       0.00169599      -0.00186872
C        3.58677505       7.15509239       3.25543326      -0.00629884      -0.00427688      -0.02053708
C        2.34275222       6.19496623       5.06238240       0.00131442       0.00401207      -0.01166913
C        3.33682368       7.05561581       4.61794242       0.00184197      -0.00111435      -0.01919185
H        3.07588503       6.45168863       1.29147868      -0.02416367      -0.00283967      -0.01605324
H        0.89159455       4.71350810       4.52066753      -0.00544428       0.00739180      -0.00008670
H        0.25835831       4.24675536       2.16218141      -0.02411482       0.01292105      -0.00120996
H        1.23335470       4.89539138       0.83447836      -0.01789054      -0.00329185      -0.00345919
H        1.82792204       3.55483652       1.80807082      -0.03113033      -0.00349587       0.00259085
H        4.31053946       7.87644887       2.89332305      -0.00659074      -0.00740694      -0.02633348
H        2.11783774       6.12778817       6.12006791       0.00750124       0.00670861      -0.01052478
H        3.87697191       7.67213221       5.32293538       0.00841024      -0.00254444      -0.02332529
C        4.69360186       1.51795253       3.29594653       0.00591003      -0.01343615      -0.00167042
C        3.47693590       1.25540468       3.92107484       0.00286889      -0.01182811      -0.00784859
C        5.31103311       2.74361848       3.52948987       0.00632866      -0.01444103       0.00006045
C        5.31749022       0.45238789       2.45319885       0.01268198      -0.01767758       0.00987032
C        2.95596806       2.11804193       4.86858037      -0.00557081      -0.00175014      -0.02191725
C        4.75666111       3.64168570       4.43485193       0.00391170      -0.00910818      -0.00772404
C        3.61550276       3.30568061       5.14787704      -0.00499445      -0.00240564      -0.01984316
H        2.94240648       0.35308273       3.66605372       0.00569928      -0.01475129      -0.00489612
H        6.21832581       2.99422286       2.99074874       0.01704296      -0.02137533       0.01713036
H        6.22167432       0.80169137       1.95899418       0.00661355      -0.01811820      -0.00096903
H        5.56786537      -0.40374337       3.08606253       0.02246121      -0.00152831       0.02615584
H        4.62782681       0.10354881       1.68598422       0.01520593      -0.04112549       0.01849869
H        2.05069274       1.86053945       5.40294553      -0.01747470       0.00940173      -0.03804226
H        5.20400290       4.61500034       4.58783000       0.02020350      -0.01875432       0.00959908
H        3.23512265       3.96523518       5.91038482      -0.00196990      -0.00274929      -0.01821656
C        8.05846523       7.57037532       7.41830353      -0.00307056       0.00873411       0.00565016
C        7.10324164       8.47575370       7.87889053       0.00182470       0.00832558       0.01511788
C        7.62790851       6.32473356       6.96798630      -0.00914693       0.01430857      -0.00296910
C        9.51481599       7.90214723       7.40859828      -0.00249961       0.00432588       0.00514504
C        5.75716804       8.13342006       7.90516043       0.00097711       0.01391796       0.01550844
C        6.28646310       5.97287200       6.99912527      -0.01028968       0.02036631      -0.00317811
C        5.34493549       6.87877492       7.47249986      -0.00551732       0.01999335       0.00569677
H        7.41962799       9.45926624       8.20853555       0.00655141       0.00390983       0.02245682
H        8.36354133       5.61647369       6.60491548      -0.01316401       0.01444668      -0.01023441
H       10.03040591       7.30005877       6.65987768      -0.00429376       0.00485510       0.00386231
H        9.69844208       8.95501999       7.19450036      -0.00050753       0.00413138       0.00711797
H        9.98337514       7.68345990       8.37269927      -0.00288944       0.00171807       0.00435573
H        5.01968503       8.84461980       8.24896148       0.00512288       0.01372157       0.02347042
H        5.97849689       4.98861385       6.66705596      -0.01535170       0.02477117      -0.01003258
H        4.29705283       6.61012061       7.49906842      -0.00638087       0.02450374       0.00531520
C        1.25865622       9.20556426       5.34491902       0.00531588       0.00889312       0.00777809
C        0.91326953       8.73553384       6.60874272       0.00053979       0.01235290       0.00768302
C        2.36271689      10.04551632       5.23915862       0.00993568       0.00335568       0.00847836
C        0.50807154       8.81463867       4.11142350       0.00180365       0.01219454       0.00607520
C        1.61942466       9.12183665       7.74239435      -0.00118949       0.01126917       0.00709860
C        3.08136219      10.43425761       6.35801176       0.00850136       0.00200506       0.00887548
C        2.70195748       9.98165226       7.61862439       0.00241049       0.00620003       0.00794010
H        0.10111045       8.03184079       6.70381188      -0.00297403       0.01804355       0.00502267
H        2.67259333      10.36080134       4.25263733       0.01125295      -0.00044605       0.00843614
H        1.18673257       8.57021098       3.29360034      -0.00102469       0.00776243       0.00650749
H       -0.12061896       7.94358170       4.29338227      -0.00135481       0.01703097       0.01019687
H       -0.11406056       9.63980091       3.75762148       0.00657752       0.01473516       0.00748488
H        1.32371915       8.76469726       8.72183404      -0.00481423       0.01588397       0.00546862
H        3.93332218      11.09382691       6.24176387       0.01122066      -0.00227472       0.00996148
H        3.23846136      10.29795903       8.50404470       0.00159325       0.00640823       0.00935863
C        9.49249642       3.00040039       9.10184203       0.00505438      -0.01016827       0.00635765
C       10.37699224       2.50874246      10.06268760      -0.00631805      -0.01278570       0.01510352
C        8.96265552       4.27660338       9.28451029       0.01461552      -0.00535274      -0.00313517
C        9.13239990       2.18410770       7.89336262       0.00705062      -0.01197255       0.00798073
C       10.75638450       3.28597787      11.14887599      -0.01074702      -0.01265718       0.01536785
C        9.34347698       5.06594390      10.36372183       0.00927794      -0.00571635      -0.00188065
C       10.25096401       4.57398521      11.29470716      -0.00375915      -0.00941471       0.00829783
H       10.80437467       1.51626213       9.97471173      -0.01229051      -0.01554358       0.02124923
H        8.23229607       4.65527199       8.58440955       0.02613053      -0.00133851      -0.01267485
H        8.50641930       2.75102595       7.20449095       0.00972094      -0.01184578       0.00617484
H       10.02961992       1.87045800       7.35571437       0.00754264      -0.01429839       0.01085418
H        8.58637730       1.27854394       8.16753657       0.00541103      -0.01026365       0.00910425
H       11.45566737       2.85191858      11.85209237      -0.01890743      -0.01480992       0.02133064
H        8.92356058       6.06117110      10.46769452       0.01690846      -0.00243902      -0.00819231
H       10.57197588       5.18750714      12.12749791      -0.00771942      -0.00996087       0.00944775
C        4.20878198       2.55094104       8.18470343      -0.00716144       0.00894508      -0.00136375
C        3.11500717       1.69215100       8.16898988      -0.00920073       0.01191422      -0.00336888
C        3.98401327       3.88890528       8.49541579      -0.00384040       0.00852883       0.00128008
C        5.58015232       2.05813726       7.84030512      -0.00870070       0.00618261      -0.00227585
C        1.82937088       2.15405586       8.40771216      -0.00730157       0.01421225       0.00028584
C        2.69819049       4.36762363       8.71282116      -0.00210553       0.01051958       0.00525569
C        1.61049596       3.50399062       8.65734153      -0.00379300       0.01313990       0.00596343
H        3.27107294       0.64304542       7.96956424      -0.01244633       0.01248829      -0.00706027
H        4.82916757       4.55673041       8.58273559      -0.00255308       0.00677329       0.00075639
H        6.34651301       2.63948649       8.35107661      -0.00715888       0.00386113      -0.00237611
H        5.71114940       1.01187297       8.12017359      -0.01100102       0.00614128      -0.00275648
H        5.75217370       2.13586547       6.76165541      -0.00931582       0.00623114      -0.00198856
H        1.00270884       1.45448422       8.41199265      -0.00898287       0.01659827      -0.00077845
H        2.54464734       5.41465312       8.94883230       0.00070096       0.00980626       0.00806413
H        0.60819864       3.86831833       8.83795937      -0.00232165       0.01434417       0.01044096
