150
Lattice="16.03717317078625 0.0 0.0 0.0 16.03717317078625 0.0 0.0 0.0 16.03717317078625" Properties=species:S:1:pos:R:3:forces:R:3 energy=-1002188.625 stress="-6.738623778801411e-05 -5.42835387022933e-05 -8.86877896846272e-05 -5.42835387022933e-05 0.00015480905130971223 -0.00015980697207851335 -8.86877896846272e-05 -0.00015980697207851335 -0.00013497516920324415" pbc="T T T"
N       12.61561781      15.09668909       4.95647751      -0.00126618       0.00151213      -0.00118124
C       13.64449112      16.18343425       4.93694525      -0.00576615       0.00804567       0.00536745
C       11.54760465      15.40635557       3.95348271      -0.00092649       0.00133689      -0.00375271
C       12.01917293      14.99266844       6.31776038      -0.00456506      -0.00559397      -0.00235778
C       13.25917110      13.79715292       4.58935830       0.00449097       0.00248301      -0.00233002
H       14.11646513      16.18565608       3.95896687      -0.00015464       0.01013744       0.00713694
H       13.14839575      17.12892666       5.14195843      -0.01234394       0.00562510       0.00723515
H       14.38731321      15.96363540       5.69981102      -0.00882360       0.00552069       0.00854231
H       10.81584680      14.60212697       3.96928112       0.00189178      -0.00233905      -0.00759562
H       11.07825374      16.34746377       4.22769037      -0.00445490      -0.00067075      -0.00029282
H       12.02115649      15.48063254       2.97806991       0.00195903       0.01043264      -0.00231910
H       11.22497268      14.25028308       6.29531407       0.00789973      -0.01918706      -0.00583226
H       12.79680779      14.69640253       7.01797639      -0.00331080       0.00726528       0.00236860
H       11.61711284      15.96494827       6.59406869      -0.02034474      -0.01126242      -0.00453584
H       12.51042017      13.01406334       4.68534864       0.00241059       0.00120150      -0.01367436
H       13.62153741      13.87845456       3.56948565       0.01599938       0.01171671       0.00224239
H       14.08488056      13.61538060       5.27218272       0.00014517       0.00059262       0.00382678
S       15.33743935      15.26734251       1.57815482       0.01618234      -0.00104451       0.00783950
F       14.96061019      13.28236817      -0.13145274       0.00537267       0.00784396      -0.00773138
F       14.94898288      12.67170196       1.95033996       0.00436378       0.00471821      -0.01056716
F       16.82265151      13.15556259       0.97262435       0.00527215      -0.00610736      -0.00892878
O       15.97416301      15.30386892       2.88141032      -0.00365663      -0.01749453       0.00246358
O       13.87627594      15.40510952       1.65145731      -0.00150895       0.00600597      -0.00536894
O       15.95828427      16.01986830       0.51808383       0.01362002      -0.00325632       0.01458442
C       15.53314124      13.50118119       1.05587198       0.00803503       0.00351417      -0.00691503
Cl      11.32637977       6.75271722      15.48856569       0.00415010      -0.00041661      -0.01257721
Cl       9.43768511       7.60678263      13.43740156      -0.00776082       0.01564626       0.00055242
Cl      10.77309083       9.59591375      15.11031420       0.01295693       0.00109735       0.01046930
C       10.91589760       8.01482086      14.31878363       0.00048936       0.00771909      -0.00440236
H       11.72431242       8.07502329      13.60024282       0.00046292       0.00878213      -0.00510712
Cl       9.75104131      12.29032728       2.30770347      -0.01816085       0.00194237      -0.00195229
Cl      10.39529210      11.19736789       4.93509966      -0.00228193       0.00738744      -0.00302532
Cl       9.61104144       9.41316256       2.76766661       0.00073084       0.00328216      -0.00468739
C       10.43115616      10.90975151       3.17514547      -0.00597129       0.00553040      -0.00295301
H       11.47367163      10.81386943       2.89241950      -0.00594541       0.01035581      -0.00511108
Cl      14.20203789      15.50706002       9.56689482      -0.00379379      -0.00008620       0.00146025
Cl      16.42392162      13.79274387      10.37901334      -0.00035537       0.00261416      -0.00097562
Cl      15.87347523      14.21712995       7.54707325      -0.00571553      -0.00383640       0.00118436
C       15.83290997      14.93341777       9.18119173      -0.00340068      -0.00029323       0.00007084
H       16.49226928      15.79315868       9.17341648      -0.00618036       0.00160947      -0.00562821
Cl      10.13610629       5.26730753       9.17811503      -0.01407109      -0.00627553      -0.00456470
Cl      11.03522417       4.44334680       6.51606936       0.00030021      -0.01927775       0.00634623
Cl      12.98757005       4.93359897       8.63671287      -0.00597754       0.00694686       0.00720279
C       11.35912870       4.36420545       8.25862773      -0.00316933      -0.00523847       0.00674075
H       11.28246680       3.32727795       8.56174270      -0.01159353      -0.00397962       0.00937288
Cl       4.54079415       7.06422169      12.77325463      -0.00788227       0.00384694      -0.00641091
Cl       5.64065886       6.07368144      10.26057213      -0.01174151      -0.00055292      -0.00474270
Cl       6.82118027       5.24098680      12.79200437      -0.01141155      -0.00038354      -0.00268821
C        5.32542219       5.70576566      11.97037029      -0.01031302       0.00110777      -0.00441176
H        4.65281119       4.85726877      12.00511932      -0.01605538       0.00583598      -0.00191903
Cl      11.00241940      10.40870905      11.37209168      -0.00698237       0.00195634       0.00451286
Cl      13.37151079      12.11528768      11.45667362      -0.00270471       0.00056960       0.00018741
Cl      10.75779359      13.26339170      10.82191113       0.00146462       0.00117171      -0.00012094
C       11.63477840      12.02299789      11.74453412      -0.00208326       0.00164449       0.00191251
H       11.46159991      12.21886014      12.79552110      -0.00432137       0.00267494       0.00146350
Cl       6.70302586      10.89630412       4.92416618      -0.00389210       0.00692728       0.01074657
Cl       5.35550030       9.32406145       6.98295338      -0.00540131      -0.00662179       0.00053570
Cl       7.37784305       8.07519661       5.29928987       0.00389721       0.00737354       0.00415550
C        6.86530524       9.57378859       6.08379602      -0.00357036       0.00387714       0.00682886
H        7.62536524       9.85336869       6.80400469      -0.00531968       0.00109740       0.00977364
Cl       4.76987630       5.72363117       3.92297033      -0.00646484       0.00218934       0.00757209
Cl       5.16797683       3.34044727       2.29111463       0.00868054       0.01044856      -0.01400089
Cl       7.47674545       4.88763433       3.20240693      -0.00719196       0.02156049       0.02059901
C        5.82687142       4.34743815       3.58579868      -0.00472940       0.00643291       0.00157894
H        5.88714414       3.74522531       4.48453441      -0.00144629       0.00716227       0.00217903
Cl       3.37596492      16.02263757       6.15783636       0.01507721      -0.00848457       0.01097583
Cl       4.11500402      14.16538754       4.03372866       0.00707953       0.00181587      -0.00099209
Cl       4.14514001      13.28341742       6.81377268      -0.01997225      -0.02407780      -0.00691476
C        3.35786032      14.32741331       5.61829073       0.00023617      -0.00501202      -0.00511708
H        2.32378953      14.01916949       5.52978048      -0.00158277       0.00317189      -0.01041755
Cl      12.20776267      11.39416333       7.90724672      -0.00259684       0.00298047      -0.00743750
Cl      13.59039617       8.92732892       8.61401248       0.01271322       0.00816084      -0.02296314
Cl      10.79166034       8.83406635       7.80723728       0.00078082       0.00107333       0.02243009
C       12.34843141       9.64375883       7.59434780      -0.00483707       0.00326538      -0.00505421
H       12.64672482       9.52815294       6.55983659      -0.01630217      -0.00239161      -0.00748760
Cl      14.37495741       8.16717222      12.06970547       0.00932661       0.01568718       0.00091089
Cl      14.86624537       5.30113541      12.33579775      -0.00664312       0.01079887       0.00864062
Cl      16.06348843       6.79028327      10.12584865      -0.00607058       0.00025897       0.00113603
C       15.53596385       6.85470495      11.82005435      -0.00082482       0.00658241       0.00281581
H       16.41095119       7.06446651      12.42395759       0.00191307       0.00427902      -0.00060438
Cl       0.58623907       9.15789081       0.91005710      -0.00480015      -0.00182500      -0.00920055
Cl      -0.01667124       6.75227628      -0.64231416      -0.00119460      -0.00266951      -0.00146165
Cl       1.82199742       6.61320736       1.62674614       0.00841945       0.00882164      -0.00415775
C        0.39471949       7.39077989       0.95773348       0.00239707      -0.00350730      -0.00420059
H       -0.44770814       7.16437600       1.60250400       0.00504413      -0.00075289      -0.00006144
Cl       4.52633577       3.18788284       7.31862827       0.00152263      -0.00075860       0.00003260
Cl       7.14377752       1.98543507       7.84609632       0.01040139       0.00615713      -0.01648429
Cl       6.93701495       4.80436713       7.10769738      -0.00189133       0.00481468      -0.00642619
C        6.17111528       3.45759170       7.94936392       0.00515050       0.00001482      -0.00707655
H        6.06934465       3.72316478       8.99501512       0.00672952      -0.00194058      -0.00666344
Cl       1.83561959      10.78957309      11.42491212       0.00822599      -0.00191410       0.00169191
Cl       3.36999232       8.93650712       9.78563364      -0.00200616      -0.01283452       0.00245597
Cl       1.41492964      10.69807634       8.53093392       0.00462249      -0.01271668      -0.00226052
C        2.59071456      10.51999944       9.84173396       0.00407036      -0.00994790      -0.00269581
H        3.35584428      11.27625801       9.71262476       0.00864105      -0.01463577      -0.00514305
Cl       7.19475661      -1.01361071       2.35788681       0.01479387       0.01380756      -0.00309333
Cl       7.88513838      -1.30493875       5.18247922       0.02236137       0.00459546      -0.00474015
Cl       8.11413702       1.30486516       3.87619719       0.00203580       0.01053372       0.01079416
C        7.22097408      -0.22686920       3.93517668       0.01113164       0.00417300      -0.00107563
H        6.19933080      -0.00445020       4.21888273       0.00984088      -0.00508065       0.00120633
Cl      11.73401506      13.20310358      15.26797676      -0.00609665      -0.00981018       0.01010415
Cl      11.94033215      15.67357740      13.72052130       0.00435488      -0.01877847       0.00415343
Cl      10.62936935      15.68711001      16.32594233      -0.01885229      -0.00525011      -0.00184932
C       11.92241716      14.97325451      15.34127343      -0.00902100      -0.00568682       0.00883192
H       12.86274407      15.18008183      15.84197477      -0.01296249      -0.00379127       0.01636931
Cl      13.87029610       7.50310918       4.66487576       0.01573798       0.00744854       0.00668234
Cl      13.20299788       8.68238329       2.08613496      -0.00380659      -0.00588052       0.00705796
Cl      13.94094465      10.40383036       4.32648824      -0.00865647       0.00662500       0.00484442
C       14.18933599       8.83066163       3.54268105       0.00195360       0.00502746       0.00462296
H       15.23561825       8.79354686       3.25812133       0.00281340       0.01184543       0.00573691
Cl       5.52813469       6.41115027       0.23670578      -0.01401982       0.00310552      -0.00018734
Cl       4.15230877       8.92284674      -0.32221383      -0.00354052       0.01025936      -0.00239311
Cl       6.70689910       8.93530786       1.09074086      -0.00436644      -0.00150110      -0.00309414
C        5.72694613       8.12170761      -0.13634064      -0.00717405       0.00097340      -0.00173711
H        6.24489506       8.20476883      -1.08400324      -0.00786756      -0.00233962      -0.00229183
Cl      13.49371604       4.56890451       1.08160285       0.01064685      -0.01366186      -0.00999759
Cl      14.10647047       3.61667225       3.76629035       0.01999219      -0.00218607      -0.00746417
Cl      11.54617256       2.94455134       2.53065282       0.01207095      -0.00033817       0.01196377
C       13.27102486       3.25508493       2.24226658       0.01040876      -0.00746016      -0.00201875
H       13.70579206       2.35348767       1.82444560       0.00184228      -0.01374099       0.00220734
Cl       1.55266545      11.41980983       4.21317229      -0.00613207      -0.00079420      -0.00067519
Cl       1.36442563       8.66337991       5.15476106       0.00114332      -0.00184095      -0.00122540
Cl       3.58123855       9.47005375       3.43819391       0.00105055       0.00577439       0.00068772
C        2.46972889       9.98069285       4.70374866      -0.00176045       0.00059458       0.00022811
H        3.04883887      10.23562011       5.58355219      -0.00762686       0.01069780       0.00130460
Cl       9.75714961       3.20582571      13.43374534       0.00544082       0.01047137      -0.00538766
Cl      10.43328993       1.77858919      10.97378758       0.01155636       0.00387797       0.00088763
Cl       7.75532149       1.54798504      12.10067922       0.01240945      -0.00732605       0.00342821
C        9.15532360       2.61258148      11.88423093       0.00706087      -0.00033475      -0.00257029
H        8.84043209       3.46680447      11.29675180       0.00128122      -0.00308737      -0.00362542
Cl       3.60901576      12.55459114      -1.96852386      -0.01311278      -0.02701514       0.01367953
Cl       5.96325506      12.41415060      -0.23951358       0.00148630       0.00924221      -0.01078231
Cl       3.87282223      14.37972356       0.28784412      -0.00523388      -0.00523955       0.00333954
C        4.22677003      12.76447559      -0.31869070      -0.00092067      -0.00509356       0.00853354
H        3.71958768      12.04197267       0.30830456       0.00949021       0.00260937       0.02559727
Cl       1.49730445       3.09642172      16.88329193       0.02098428      -0.00559475       0.01343465
Cl       2.63862055       4.21843784      14.44119069      -0.01679493      -0.01712906      -0.00718656
Cl       3.72741331       1.75501651      15.55262672       0.00550410      -0.01094626      -0.01344168
C        2.26235897       2.72802799      15.34508901      -0.00061450      -0.01403391       0.00450366
H        1.56825951       2.14682843      14.75236257      -0.00523791      -0.00804849       0.00380790
Cl       7.55347398       9.46007723       9.97847210       0.00204559      -0.01546770       0.01634344
Cl       6.89909150      12.18198430       9.13295480      -0.00317027      -0.01953623      -0.00374383
Cl       5.96414496      11.18624928      11.71623041       0.01263639       0.00242238       0.00827491
C        7.25781123      11.12079921      10.51254744       0.00765342      -0.00882135       0.00219144
H        8.16792564      11.48633784      10.97262483       0.00554085       0.00311533      -0.00176997
Cl       2.11776029       3.83870454      10.43981553       0.00199785       0.00062850      -0.00322186
Cl       4.45792389       2.23424632      11.16433085       0.00499639       0.00091000      -0.00466295
Cl       1.78576929       1.07704160      11.33485170       0.00137901       0.00166635      -0.01338743
C        2.82575464       2.22170343      10.46850954       0.00581215       0.00142072      -0.00705040
H        2.92007796       1.88058897       9.44404539       0.00612008       0.00675301      -0.00880331
