150
Lattice="16.678926337589658 0.0 0.0 0.0 16.678926337589658 0.0 0.0 0.0 16.678926337589658" Properties=species:S:1:pos:R:3:forces:R:3 energy=-1245761.375 stress="-0.0007966310949996114 3.190592906321399e-05 0.0001208468856930267 3.190592906321399e-05 -0.0006375244702212512 0.000329768008668907 0.0001208468856930267 0.000329768008668907 -0.000727423292119056" pbc="T T T"
N       10.41690640      13.39847304       4.91694848       0.00461646      -0.00115461       0.00118466
C       10.74645691      14.01649813       6.25801617      -0.00092572      -0.00152854       0.00533044
C       11.15284453      14.15085356       3.78505519       0.01932797       0.00441429       0.01524842
C        8.91792826      13.46003059       4.70778520       0.00599366       0.00665449      -0.00223432
C       10.91808517      11.96858061       4.89967701      -0.00221705      -0.00115031       0.00824390
C       10.40528757      15.48563205       6.40075686       0.00520848       0.00118583      -0.00076403
C       12.61509839      14.36617763       4.00758248       0.01191011      -0.00955462       0.01397038
C        8.38339381      12.72655193       3.49612113       0.01032768       0.00345504      -0.00401905
C       10.29874261      11.04446943       5.92031356      -0.00097632       0.00180465       0.00416225
H       10.20747773      13.42787712       6.99795576      -0.00085410       0.00238045       0.00249711
H       11.81470383      13.85797719       6.40078870       0.00095162      -0.00162145       0.00729865
H       10.96762932      13.54829226       2.89567499       0.02146266      -0.00588730       0.00775361
H       10.61669088      15.09096243       3.66450918       0.02233820      -0.00594079       0.00281929
H        8.46758551      13.07099862       5.62107897      -0.00117882       0.01377439      -0.00577256
H        8.67108910      14.51779190       4.63859447       0.01274997       0.00733247      -0.01011642
H       10.74417916      11.60487869       3.89001657      -0.00074624      -0.00137210       0.00440702
H       11.99532063      12.03220156       5.03409746      -0.00016886      -0.00403818       0.00534066
H       10.70904926      15.78784183       7.40415697       0.00268166       0.00204025       0.00173040
H       10.94576970      16.11077567       5.69166035       0.00559084      -0.00373754       0.00215907
H        9.33945906      15.69140121       6.31128466       0.00451371       0.00153182      -0.00139257
H       13.13657991      14.60814412       2.98824216       0.01483971      -0.00455117       0.00406605
H       12.83038817      15.19077944       4.68537187       0.00944300      -0.00223495       0.01844204
H       13.13863115      13.47449564       4.34526359       0.01247286      -0.00156468       0.02197384
H        7.30159931      12.86737110       3.48137787       0.01069391       0.01264344      -0.01304527
H        8.76950476      13.12371740       2.55864048       0.01953424      -0.00397548      -0.00280997
H        8.56751432      11.65339336       3.53031549       0.00093900       0.00428654       0.00334390
H       10.68153037      10.04174767       5.72853380      -0.01070417       0.00148158       0.00668368
H       10.56157365      11.29823111       6.94662033      -0.00210063       0.00185318       0.00433069
H        9.21573329      10.99309355       5.83556272      -0.00576141       0.00941057       0.00619253
F       13.93702825      14.86105245       1.76490701      -0.04024190      -0.01151803       0.00943005
Cl       7.12456094       3.45218723      15.18969114       0.00216421      -0.00443947      -0.00833397
Cl       7.67795366       0.59964380      15.25537703      -0.00656825      -0.00584632      -0.00614487
Cl       6.20880287       1.74370859      13.03418384      -0.01116088      -0.00496419      -0.00199556
Cl       4.97352749       1.56357762      15.65491017      -0.00179693       0.00325976       0.00229041
C        6.49737140       1.83825369      14.78109667      -0.00435976      -0.00296081      -0.00355970
Cl       7.82373476      13.52655273      11.45086397       0.00484157       0.00175603       0.00911143
Cl       5.35413943      14.23070052      12.79399706      -0.00152090      -0.00491855       0.00171867
Cl       5.79913669      11.50366184      11.90485952       0.00455406      -0.00063589      -0.00095791
Cl       5.33271607      13.60478328       9.96201889       0.01148401       0.00235089       0.00001699
C        6.06943642      13.21767353      11.52930024       0.00514265      -0.00030882       0.00216322
Cl       9.72435404      10.27610818      12.05962666      -0.00032355      -0.00163026      -0.00094768
Cl      10.35497319       8.41820858      14.18705082      -0.00093195      -0.00312293      -0.00246692
Cl       7.71222101       8.41131536      12.98047279      -0.00020009      -0.00253573      -0.00237986
Cl       8.52571617      10.61509231      14.67694725      -0.00055459      -0.00344330      -0.00142717
C        9.08046393       9.43272172      13.48101443      -0.00063632      -0.00272929      -0.00187721
Cl      11.09412723      10.68504516       1.22490531       0.01353452       0.00201848      -0.00472432
Cl      10.51688087       7.88207064       1.69449063      -0.00286445       0.00530171      -0.00640795
Cl      12.53698162       9.21795270       3.28507052      -0.00135405      -0.00533916      -0.00076434
Cl      13.03248466       8.66927564       0.48578351       0.00429979      -0.00830662       0.00086755
C       11.79741253       9.10383891       1.66917477       0.00330719      -0.00167243      -0.00292799
Cl      16.01438242      14.69559626       7.64040565      -0.01660910      -0.00686091      -0.01619763
Cl      13.76807051      16.52134851       7.43102822      -0.00093061       0.01261663      -0.00173857
Cl      16.18938184      17.02604759       5.92169080      -0.00014381      -0.00155045      -0.00632671
Cl      16.17735795      17.34619483       8.80708173       0.00922479      -0.01336475      -0.00608218
C       15.54858786      16.39212050       7.43893948      -0.00264400      -0.00237342      -0.00765637
Cl       8.12562249       7.16863750       9.73295373       0.00379503      -0.00702486      -0.00017978
Cl       9.73949713       5.67897258       7.85431753       0.00046867      -0.00458121      -0.00437498
Cl      10.59340472       5.96265655      10.61685966       0.00468996      -0.00852941      -0.00553945
Cl      10.67965077       8.24141238       8.84381800       0.00207785      -0.00639811      -0.00242203
C        9.78299327       6.76052499       9.26696392       0.00275746      -0.00668970      -0.00315175
Cl       5.40255052       5.73595450      12.30698580      -0.00119406      -0.00302765      -0.00511222
Cl       3.68995028       7.64309875      13.67714187       0.00956539      -0.00452694       0.00952187
Cl       2.66479444       5.02953765      12.95997850       0.00315602       0.00127858       0.00009509
Cl       3.19841742       6.99290964      10.89029178      -0.00177187       0.01016293       0.00719836
C        3.74129475       6.34958077      12.45852229       0.00210063       0.00232880       0.00267989
Cl      13.80708267      11.98397610       9.44996922      -0.00641605      -0.00620280      -0.01439835
Cl      12.90014408      12.22701747      12.18317310       0.01226224      -0.00841363      -0.00897533
Cl      11.11959175      12.93848778      10.00529447      -0.00086825      -0.00283236       0.00368129
Cl      13.41262296      14.60696562      10.60561958       0.00143420      -0.00645870      -0.00954828
C       12.82225035      12.93646563      10.57691954       0.00177763      -0.00634198      -0.00749725
Cl       5.41811555       9.16685161       8.32677498       0.00242889       0.00133621       0.00295357
Cl       6.23384430      11.26527246       6.49747730       0.00499354       0.00111948       0.00391689
Cl       7.67962555       8.74911188       6.57821170       0.00052178      -0.00100079       0.00155851
Cl       7.87258124      10.63783395       8.78857433       0.00501919      -0.00366169       0.00237268
C        6.80474415       9.94961290       7.55268332       0.00305261      -0.00047166       0.00272528
Cl       5.49473626       4.39892646       4.48028360      -0.00301576      -0.00419202       0.00287838
Cl       3.98114913       2.58481682       2.79399102      -0.01048626       0.00619361      -0.00203377
Cl       2.63676746       4.75509103       4.16666786      -0.00553855      -0.00134504       0.00669265
Cl       3.66282218       2.49193669       5.67038094      -0.00020243      -0.00254029       0.00137970
C        3.94020366       3.56049603       4.28149518      -0.00454919      -0.00066853       0.00217398
Cl       3.18555474      15.32707414       4.79969783      -0.00690828       0.00053661       0.00352862
Cl       2.95170635      16.27568892       7.53571038      -0.00769722      -0.00021459       0.00338669
Cl       5.46810029      15.18855838       6.58550150      -0.00478138       0.00997201       0.00126283
Cl       3.18713712      13.44704475       7.00527923       0.00272946       0.00126186       0.00313167
C        3.68469360      15.06075829       6.47447695      -0.00393844       0.00280964       0.00287750
Cl      14.43157653       7.09560748       8.32395955      -0.00450169       0.00886378       0.00398117
Cl      13.51169738       9.41510507       6.85278459      -0.00393770      -0.00167331      -0.01156241
Cl      12.68459175       6.75046928       6.03707514       0.00579605      -0.00734940      -0.00070772
Cl      15.42414492       7.61091216       5.64964643       0.00518972      -0.00294610       0.00595991
C       14.01240762       7.70163185       6.71377437       0.00058874      -0.00089765      -0.00056601
Cl      13.85379511       8.37202762      11.66032622      -0.00692746       0.00774562      -0.00524834
Cl      14.97925932       9.68829370      13.98732668      -0.00242541      -0.00402808      -0.00155227
Cl      16.31510575       7.37649942      12.84424649      -0.00537547       0.00162737      -0.01496366
Cl      13.80357465       7.04622022      14.23021857      -0.00300588      -0.00466350      -0.01215616
C       14.73779156       8.11976276      13.17772621      -0.00444613       0.00001837      -0.00836700
Cl      -1.12277494       5.16030959       0.08294934       0.00972658       0.00427651      -0.01569039
Cl       1.72383041       5.56078765       0.40052188       0.00690100       0.00192940       0.01003803
Cl      -0.11474289       6.32383963       2.52561539      -0.00781553       0.00876793      -0.00841555
Cl      -0.02177761       7.84662554       0.06250515       0.00791384       0.00229144      -0.01094434
C        0.11356371       6.21821132       0.76800297       0.00450145       0.00443088      -0.00612091
Cl       5.59908953       1.71732780       9.21792093       0.00103426      -0.00596315       0.00501814
Cl       7.88226312       3.29080473      10.07120828       0.00021943      -0.00309418       0.00042748
Cl       5.82071808       4.49733548       8.42310316      -0.00354376      -0.00638044       0.00353391
Cl       7.61004712       2.51663568       7.28695318      -0.00362860      -0.00428280       0.00140947
C        6.73099093       3.01168692       8.75453804      -0.00146958      -0.00492769       0.00272596
Cl       0.33342394       9.98353762      10.71384770      -0.00942650       0.00317228      -0.01754752
Cl       0.28440690      11.18468878       8.06922193       0.00733170       0.00930400      -0.01610473
Cl       2.79560445      10.83581369       9.46181915      -0.00281107       0.00366294      -0.00191269
Cl       0.89262952      12.81141680      10.40060146      -0.00741837       0.00300598      -0.00895952
C        1.07244182      11.20245729       9.67246641      -0.00339168       0.00479794      -0.01116888
Cl       7.63467906       2.44004814       2.02852150      -0.00665562      -0.00939175      -0.00592619
Cl       7.09699885       0.45837052       4.08452265      -0.00382528       0.00179109       0.00428349
Cl       9.66337230       1.81262767       3.99622451      -0.00106514      -0.00598526      -0.01187780
Cl       8.97726306      -0.11557748       1.94961909      -0.01648574      -0.01548636      -0.00012359
C        8.33618913       1.15972223       3.01118569      -0.00659171      -0.00720394      -0.00354552
Cl      11.74483325      15.93889592      16.69018606      -0.00941448       0.01917183      -0.02666247
Cl      12.17270770      15.31428385      13.90541631      -0.03877255      -0.00899462      -0.02550828
Cl      10.06405156      13.96858372      15.38321220      -0.01831830       0.00342953       0.01320899
Cl      12.84711450      13.36321946      15.93135246      -0.01094985       0.01370692      -0.01666799
C       11.72587366      14.65261595      15.48944646      -0.01892155       0.00734851      -0.01367413
Cl      14.76702085      11.97485836       2.07874211       0.00620228      -0.00677394      -0.00602525
Cl      16.11818275      13.84620360       3.85694295       0.01248010      -0.00648415      -0.01041415
Cl      17.65400389      12.15531631       2.08680871       0.00566870      -0.01345199      -0.00802252
Cl      16.24359293      10.99330565       4.35937203       0.00238117      -0.00410700      -0.00481445
C       16.18451279      12.26071967       3.08411379       0.00752185      -0.00828035      -0.00766500
Cl       4.95716008       6.59094573       1.14080082       0.00183108       0.00167170       0.00501423
Cl       6.81751501       8.74496307       1.69332408       0.00309351       0.00121519       0.00118379
Cl       7.08184482       7.19751341      -0.73089268      -0.00034735       0.00011964       0.00462273
Cl       7.70137276       5.97768324       1.83008461       0.00267285      -0.00141749       0.00247324
C        6.63522463       7.12711224       0.97909727       0.00212533      -0.00019819       0.00466552
Cl      13.21568994       2.17602699       4.49763867      -0.00110975       0.03318219       0.00906885
Cl      14.12255904       0.39486402       2.36966380      -0.02067374       0.02279389       0.01074082
Cl      15.66837058       2.77364916       3.07169646      -0.00315380       0.01022995      -0.00102351
Cl      13.09807421       3.03507161       1.72371561      -0.00453061       0.02579895       0.00738856
C       14.03988434       2.06692277       2.89681063      -0.00868835       0.02359179       0.00724792
Cl       4.70197952       8.32410499       4.63207378       0.00161487       0.00148368       0.00497799
Cl       2.55885137       8.83345124       2.75057155       0.00057146      -0.00096371       0.00631908
Cl       3.26294311      10.84732253       4.70333080       0.00135539       0.00063738       0.00437448
Cl       1.97130919       8.40885842       5.56278208       0.00250265       0.00118950       0.00655442
C        3.12618882       9.09968493       4.40101465       0.00150696       0.00048649       0.00555255
Cl      12.84861297       2.20781882      14.19155980      -0.00904739       0.00449249       0.02480108
Cl      12.51067843       3.00945174      11.42514785       0.00951073       0.00955490       0.02471447
Cl      11.31088564       4.57645854      13.56246496      -0.02057022      -0.00478268       0.01666479
Cl      10.25218914       1.96165713      12.91067607       0.00476938      -0.01037207       0.00256963
C       11.73382503       2.93047432      13.02243047      -0.00382861      -0.00005120       0.01729082
Cl       3.69888742      13.65341516      -0.46352695       0.00467920      -0.00054777       0.00777140
Cl       4.73552446      12.05007429       1.71589116       0.00367126      -0.00601715       0.00368512
Cl       6.56653382      13.38422910      -0.10601714       0.00424910      -0.00263098       0.00765721
Cl       4.99823350      11.11878228      -1.01762024       0.00066946      -0.00034025       0.00244176
C        4.99573155      12.54787571       0.02798214       0.00365742      -0.00270003       0.00508380
