138
Lattice="11.806125349548816 0.0 0.0 0.0 11.806125349548816 0.0 0.0 0.0 11.806125349548816" Properties=species:S:1:pos:R:3:forces:R:3 energy=-80595.703125 stress="-0.0024402725975960493 0.0005980360729154199 -0.00021346723951864988 0.0005980360729154199 -0.002642200095579028 -2.8588019631570205e-05 -0.00021346723951864988 -2.8588019631570205e-05 -0.00410442566499114" pbc="T T T"
N        9.04248131       8.27348597       2.08643682       0.00636356       0.00239433      -0.00536592
C        8.10821767       8.57932740       0.92833873       0.01070495      -0.00339663      -0.00975758
C        8.43443441       7.26924836       3.04150014       0.00578400       0.00396493      -0.00502944
C        9.31603816       9.56344820       2.84223704      -0.00104471       0.00485200      -0.00757034
C       10.32463281       7.69241995       1.52816013       0.00979322       0.00436902       0.00131739
C        6.75286050       9.10034775       1.34046820       0.00668564      -0.00967249      -0.01735657
C        7.96775570       5.96655022       2.43191676       0.00423537       0.00442940      -0.00418948
C       10.34410112       9.44846713       3.93841930      -0.00595245       0.01096633      -0.00267977
C       11.15875851       8.64521261       0.69922390       0.00881483       0.00266102      -0.00080732
H        8.60931751       9.33021463       0.31924313       0.00954406      -0.00104263      -0.00738794
H        8.02736143       7.65387715       0.35914521       0.01832997      -0.00401556      -0.00929184
H        9.19760413       7.08907325       3.79363703       0.00506923       0.00374024      -0.00480559
H        7.61549964       7.78599191       3.53796330       0.00604215       0.00454256      -0.00565812
H        9.63271759      10.29490658       2.09779984      -0.00070362       0.00363064      -0.00769168
H        8.35820059       9.87522153       3.25354855      -0.00379235       0.00198180      -0.01237366
H       10.88830682       7.32195720       2.38416291       0.00871937       0.01030942       0.00414139
H       10.01692511       6.82949005       0.94039092       0.01434556       0.00087655       0.00439714
H        6.17120206       9.26922112       0.43480499       0.00892002      -0.01846733      -0.02005877
H        6.19735558       8.41167424       1.97547531       0.00905082      -0.00928722      -0.01527487
H        6.82869478      10.06157955       1.83764268      -0.00098261      -0.00669137      -0.02285147
H        7.56179644       5.34984583       3.23474056       0.00640468       0.00447880      -0.00399166
H        7.16603040       6.10238823       1.71042490       0.00280948       0.00491414      -0.00206761
H        8.76536732       5.38962562       1.96530014       0.00307178       0.00500327      -0.00659009
H       10.50293134      10.44934716       4.34044449      -0.00780635       0.01306298      -0.00755552
H       10.02744959       8.81919905       4.76677596      -0.00961532       0.01560266      -0.00086796
H       11.30541809       9.10526703       3.56561832      -0.00437726       0.00921085       0.00386443
H       12.04825518       8.10130153       0.37765404       0.01097380       0.00400969       0.00414972
H       10.64115496       9.00212963      -0.18953339       0.01019199      -0.00332637      -0.00380862
H       11.48520098       9.52052436       1.25663738       0.00469947       0.00609070      -0.00396033
Cl       8.64994211      12.27537571       0.90130517      -0.00055146       0.02800798       0.00110650
O        8.08887339      11.82555975      -0.41385254      -0.01919705      -0.01062679       0.02904415
O        8.53414843      13.75087339       0.98955313       0.02257726       0.01784396      -0.03038939
O       10.10075868      11.90373589       0.91274905      -0.01148915      -0.00324270       0.00363934
C        5.08835385       3.48254881      11.40543644      -0.00941573      -0.01296973       0.00560238
C        5.70700088       2.24041283      11.28897614      -0.00961044      -0.01360429       0.00253738
C        3.69572981       3.53566452      11.43087341      -0.00789531      -0.01309228       0.00680639
C        5.91933140       4.72836388      11.45996326      -0.00849739      -0.01443258       0.00986999
C        4.94745963       1.08221630      11.19935149      -0.01060706      -0.01254390       0.00109796
C        2.93331804       2.37748259      11.37322821      -0.00877953      -0.01168197       0.00303915
C        3.56084866       1.14310729      11.25321031      -0.00892174      -0.01258077       0.00006537
H        6.78777087       2.16858098      11.28889771      -0.00980332      -0.01236216       0.00019119
H        3.20517014       4.49960925      11.45767740      -0.00858875      -0.01335289       0.01298131
H        5.47304328       5.47079463      12.12224318      -0.00831816      -0.01762977       0.01316790
H        6.92959628       4.50054940      11.79961411      -0.00845069      -0.01636191       0.00827882
H        6.00587437       5.18616209      10.47177763      -0.00896726      -0.01095524       0.01164782
H        5.46610268       0.13566769      11.10534164      -0.01043266      -0.01264124       0.00049125
H        1.85089097       2.43353477      11.40669159      -0.00622824      -0.00921289       0.00180961
H        2.96714763       0.23828966      11.19454049      -0.00990528      -0.01170839       0.00023639
C        2.03336630       5.39904666       3.21703038      -0.00951916       0.01423721      -0.00264989
C        2.88944102       5.85619218       2.21492094      -0.01372797       0.01711659      -0.00047985
C        2.29998942       5.78347404       4.52849654      -0.00409508       0.00779908       0.00150794
C        0.92322463       4.44577472       2.88940193      -0.01335862       0.01855502       0.00037724
C        4.00579342       6.62012140       2.51792243      -0.01129944       0.01373835      -0.00450646
C        3.41764464       6.55000772       4.83842281      -0.00168286       0.00479313      -0.00287494
C        4.28553692       6.95799057       3.83688146      -0.00610413       0.00775233      -0.00089031
H        2.68601912       5.58489258       1.18905373      -0.01830759       0.02292074      -0.00297517
H        1.64992981       5.44485704       5.32847326      -0.00104713       0.00544968       0.00039409
H        0.13035280       4.47013466       3.63779973      -0.01027130       0.01836308       0.00279294
H        0.49001918       4.64441212       1.90767776      -0.01622297       0.02314340       0.00243452
H        1.31538019       3.42503107       2.86329973      -0.01674710       0.01756471      -0.00471164
H        4.65321019       6.95315146       1.71711124      -0.01448534       0.01671119      -0.00360482
H        3.60688418       6.81994136       5.86975236       0.00206612       0.00031010      -0.00058459
H        5.15694061       7.55407680       4.08434459      -0.00420256       0.00554756      -0.00400706
C        4.72032570       1.23886967       3.32620523      -0.00571162      -0.01347174      -0.00071464
C        3.47035435       1.32588819       3.94027875       0.01955655      -0.01303681      -0.02274741
C        5.66327152       2.23700604       3.56649105       0.02271211      -0.01711824      -0.01372218
C        5.05566152       0.05945653       2.47409433       0.01232711      -0.01588398       0.00021753
C        3.18079142       2.36042001       4.81384031      -0.00642401       0.00546274      -0.00708993
C        5.36792729       3.27697391       4.44018796      -0.00614458      -0.00502735       0.00133883
C        4.13697077       3.33128017       5.07651388       0.02357905      -0.00815544      -0.02696769
H        2.72421368       0.56640600       3.73744289       0.00388654      -0.00325333      -0.01298257
H        6.62331986       2.19500180       3.06160297       0.00747870      -0.01751084       0.00092065
H        5.93857915       0.25394339       1.86844735       0.00197542      -0.01536892      -0.00870503
H        5.25282274      -0.81495496       3.10150112       0.02377385      -0.00945392       0.00691548
H        4.23475377      -0.19508117       1.80432340       0.00584513      -0.02966233       0.01057385
H        2.21685023       2.40685921       5.30520898       0.00793441       0.00264516      -0.02552792
H        6.10107961       4.05097437       4.63594066       0.01371253      -0.01244684      -0.01025946
H        3.92506331       4.12006462       5.77803678       0.00515683       0.00195047      -0.01632304
C        9.02848625       7.35023130       6.61176393      -0.00409164       0.00569774       0.00302187
C        7.66599713       7.24990698       6.33173359      -0.00367521       0.00486219       0.00407694
C        9.47245997       8.46233728       7.33102250      -0.00432500       0.00710095       0.00125842
C        9.99789213       6.28440747       6.18499206      -0.00346157       0.00672291       0.00388753
C        6.77153098       8.22690410       6.76077815      -0.00391927       0.00480767       0.00237108
C        8.58779236       9.43942024       7.76597016      -0.00450827       0.00664575      -0.00033808
C        7.23141811       9.32362924       7.48060522      -0.00393458       0.00618881       0.00015117
H        7.29551717       6.38274978       5.79302245      -0.00349858       0.00397448       0.00542160
H       10.52557185       8.55810274       7.56346717      -0.00460987       0.00790842       0.00023085
H       10.59359272       5.93882005       7.03290609      -0.00816210       0.00293437       0.00527525
H        9.48268577       5.41772823       5.76872420      -0.00244635       0.00905709      -0.00153607
H       10.70270593       6.65037453       5.43136050       0.00004821       0.00917231       0.00882904
H        5.71420059       8.12911522       6.54327758      -0.00349179       0.00428392       0.00296415
H        8.95034105      10.28327117       8.34029557      -0.00468501       0.00802916      -0.00218168
H        6.54224168      10.08369427       7.82560105      -0.00384308       0.00662420      -0.00146388
C        2.21893563       9.43927855       5.10218865       0.00161088       0.00938953       0.01277965
C        1.31146009       8.67336701       5.83524584      -0.00170572       0.01322022       0.01231450
C        3.26884669      10.04484616       5.79024422       0.00596836       0.00153667       0.01133577
C        2.10620613       9.54920769       3.60957278      -0.00147633       0.01350111       0.01362246
C        1.45265721       8.50207883       7.20446838       0.00049189       0.00939489       0.01177187
C        3.41430970       9.87626800       7.16276833       0.00828521      -0.00253605       0.01064187
C        2.50960853       9.10293417       7.87749781       0.00538893       0.00098813       0.01011565
H        0.51675145       8.15763141       5.31373162      -0.00655955       0.02073937       0.01335656
H        3.98905144      10.64295688       5.24396465       0.00801342      -0.00113458       0.01125706
H        3.07126611       9.78269457       3.16200242      -0.00305626       0.01669221       0.01258915
H        1.76213087       8.60704905       3.17619252      -0.00057824       0.01459521       0.01149919
H        1.40529683      10.33289136       3.30869566      -0.00360310       0.01284301       0.01750614
H        0.75397919       7.87411050       7.74456127      -0.00257466       0.01343742       0.01180296
H        4.24412133      10.34488563       7.67282689       0.01150773      -0.00867615       0.00994555
H        2.62991864       8.96585078       8.94486310       0.00720489      -0.00225547       0.00941235
C        9.05866510       3.88775394       8.47205425       0.00541741      -0.01266602       0.01422369
C       10.31177880       3.68976095       9.05517509       0.01218216      -0.00453003      -0.00689578
C        8.37489400       5.06379399       8.77037577       0.00832558      -0.00923102       0.00470193
C        8.49373860       2.86805565       7.52810340       0.00433940      -0.01525611       0.01561834
C       10.88152662       4.65662748       9.87161153       0.00481305      -0.01046994       0.00915156
C        8.93594621       6.03544289       9.58936217       0.00818010      -0.00707637       0.00184096
C       10.20109432       5.84350903      10.12607217       0.00795484      -0.00693254       0.00174710
H       10.85284286       2.77417458       8.84363596       0.00324077      -0.01190972       0.01591430
H        7.41279643       5.25535741       8.31330330       0.00803807      -0.00992974       0.00428809
H        7.67749544       3.27651850       6.93142582       0.00040656      -0.01921438       0.01849087
H        9.26202245       2.50242727       6.84421215       0.00148073      -0.01504331       0.01313411
H        8.10942510       2.00207686       8.07185702       0.00942998      -0.01407596       0.02021576
H       11.86893523       4.49727399      10.28753212       0.00612214      -0.00788480       0.00641473
H        8.39940574       6.96130586       9.76058654       0.01003022      -0.00609243      -0.00223813
H       10.67140691       6.62153725      10.71172813       0.00874009      -0.00569776      -0.00046619
C        4.17695438       2.65143695       8.11046485      -0.00435503      -0.00026172      -0.00631066
C        2.78579889       2.69842121       8.06099975      -0.00355662       0.00240797      -0.01028471
C        4.86997521       3.84886527       8.26284422      -0.00333276       0.00004178      -0.00341868
C        4.91012804       1.35961992       7.93718067      -0.00535688      -0.00031468      -0.00358683
C        2.11106956       3.90978108       8.12307428      -0.00255828       0.00099665      -0.01128125
C        4.20446859       5.06550192       8.33420556      -0.00222470      -0.00124781      -0.00459808
C        2.81703025       5.10005226       8.26170376      -0.00168392       0.00150368      -0.00828022
H        2.23050100       1.77192382       7.96283754      -0.00422484       0.00234304      -0.01262309
H        5.94864868       3.81298958       8.33372288      -0.00364219      -0.00174147      -0.00017652
H        5.87991910       1.38361224       8.43093291      -0.00529139       0.00009455      -0.00446825
H        4.33569728       0.53643028       8.35624453      -0.00574069       0.00125058      -0.00150570
H        5.06927591       1.15877163       6.87250294      -0.00613574      -0.00313191      -0.00291863
H        1.03058404       3.93031711       8.06942416      -0.00215724       0.00299921      -0.01377465
H        4.76429994       5.98737398       8.45093492      -0.00180680      -0.00124939      -0.00255869
H        2.29180555       6.04520691       8.31388272      -0.00079718       0.00085922      -0.00952325
