139
Lattice="11.99652632795492 0.0 0.0 0.0 11.99652632795492 0.0 0.0 0.0 11.99652632795492" Properties=species:S:1:pos:R:3:forces:R:3 energy=-74184.203125 stress="-0.004264273680746555 6.533654959639534e-05 -0.0005636209971271455 6.533654959639534e-05 -0.0004171979089733213 5.910540676268283e-05 -0.0005636209971271455 5.910540676268283e-05 -0.007172431796789169" pbc="T T T"
N        9.02592430       7.95261216       1.52280249      -0.00077273      -0.02501673      -0.00528256
C        7.64990955       8.40820300       1.15980972      -0.00071323      -0.02489993      -0.00349236
C        9.91605096       9.14772744       1.53298509       0.00069469      -0.02678174      -0.01237176
C        9.50425582       6.96303746       0.52285873      -0.00520308      -0.02986467      -0.00173551
C        9.01600327       7.29412547       2.86204672       0.00217176      -0.01729730      -0.00161815
H        7.33959302       9.16976809       1.86988175       0.00181969      -0.02163987      -0.00647314
H        7.70152864       8.82096734       0.15536137      -0.00252028      -0.02965322      -0.00530551
H        6.97230395       7.55972403       1.21901380      -0.00166541      -0.02345608       0.00167653
H       10.92944989       8.83131480       1.76287060       0.00050330      -0.02785718      -0.01322069
H        9.87736053       9.61875211       0.55382521      -0.00027549      -0.03110057      -0.01392609
H        9.56427962       9.82775347       2.30504167       0.00371294      -0.02320125      -0.01480612
H       10.50817613       6.65224127       0.80248289      -0.00488272      -0.02988698      -0.00324444
H        8.82728950       6.11278028       0.53679638      -0.00574870      -0.02871573       0.00426245
H        9.51625807       7.43226850      -0.45425714      -0.00730693      -0.03429200      -0.00350164
H       10.02323462       6.93942500       3.06490064       0.00243220      -0.01667718      -0.00233282
H        8.71824441       8.01739602       3.61086835       0.00448053      -0.01335827      -0.00530551
H        8.29883237       6.47617562       2.84586680       0.00236255      -0.01679564       0.00487849
O        5.99756927       6.17672151       3.60636740      -0.01643986      -0.03418756      -0.01964581
O        7.24731238       6.95426399       5.30529515       0.01488817      -0.00153977       0.00699282
C        5.99820265       8.50018060       4.00941373      -0.00071129      -0.00368297      -0.00400867
C        6.75936193       9.59153485       4.42358064       0.01013187      -0.00037401      -0.00464858
C        4.92169215       8.72964929       3.15818964       0.00264414       0.00029060       0.00604264
C        6.50195216      10.87451410       3.95573597       0.00304525      -0.00224924      -0.01032063
C        4.63139031      10.01407351       2.71971636      -0.00313659      -0.00478272       0.00217322
C        5.43573960      11.08908644       3.08795331       0.00352119      -0.00225127      -0.00184663
C        6.42845171       7.07637035       4.36293771       0.01065075       0.03780890       0.01848817
H        7.58524407       9.41101166       5.09311921       0.00772722      -0.00000413      -0.01207672
H        4.33181554       7.88258424       2.83086516      -0.00284359      -0.00224178       0.00866178
H        7.12736960      11.70091326       4.27429425       0.00759985      -0.00200236      -0.01356441
H        3.77266476      10.18172120       2.08966991      -0.00336371      -0.00341088       0.00722301
H        5.21298958      12.08518658       2.72338727       0.00044164      -0.00416382      -0.00460492
C        3.26483281       3.69014652       4.84956937       0.00451101       0.00955654      -0.00552994
C        2.50805163       4.82604149       5.11443729       0.00503259       0.00854817      -0.00387914
C        2.70619423       2.63684129       4.13585994       0.00134617       0.00602180       0.00307929
C        1.19484538       4.90524050       4.66443565       0.00161366       0.00481419       0.00607388
C        1.39164641       2.71393125       3.69112886      -0.00191271       0.00234835       0.01283969
C        0.63426045       3.84853347       3.95534305      -0.00137135       0.00151033       0.01420769
H        4.29506597       3.64456591       5.17846438       0.00706305       0.01276068      -0.01373302
H        2.94980376       5.65019278       5.66129436       0.00740014       0.01116896      -0.01039445
H        3.30061784       1.76166695       3.90517117       0.00074891       0.00651975       0.00192855
H        0.60650320       5.79147694       4.87006253       0.00175426       0.00382908       0.00776012
H        0.96570828       1.89611892       3.12318755      -0.00471838      -0.00054014       0.01986463
H       -0.39163262       3.90815796       3.61211428      -0.00398813      -0.00149561       0.02222601
C        9.74144092       9.06326488       6.18535566       0.00436372       0.01046606      -0.00313036
C        9.54760657      10.44085935       6.23453617       0.00476415       0.01034653      -0.00415285
C       10.65109301       8.52509320       5.29037194       0.00126862       0.00945128      -0.00458650
C       10.24021198      11.27283313       5.36422896       0.00332944       0.00876264      -0.00668151
C       11.36567153       9.35745578       4.43755259      -0.00021729       0.00777253      -0.00704067
C       11.15170292      10.72851029       4.46367771       0.00034369       0.00780542      -0.00752281
H        9.17153626       8.40484852       6.82444197       0.00627632       0.01208028      -0.00043401
H        8.84423829      10.85657682       6.94654400       0.00700130       0.01123230      -0.00348301
H       10.80422911       7.45252006       5.26990997       0.00119101       0.00970353      -0.00366772
H       10.09111397      12.34478588       5.40090707       0.00372641       0.00854747      -0.00724752
H       12.11794660       8.94029009       3.77882063      -0.00230435       0.00719240      -0.00797556
H       11.72238376      11.37935298       3.81320649      -0.00070110       0.00648806      -0.00939207
C        2.54274319       8.28123532      12.14188918      -0.00891482       0.00259819       0.00620198
C        3.85586595       7.92254968      11.85730006      -0.00912254       0.00478104       0.00604469
C        2.16012932       9.61780780      12.09249904      -0.01033475       0.00251915       0.00622096
C        4.77988077       8.90464702      11.53082867      -0.01055802       0.00467641       0.00580958
C        3.09313498      10.59907340      11.77401019      -0.01167407       0.00253406       0.00559616
C        4.40674086      10.24054048      11.50271902      -0.01207350       0.00456327       0.00519206
H        1.81683040       7.51541794      12.38875782      -0.00778757       0.00257558       0.00653778
H        4.14980742       6.87985740      11.87623919      -0.00817152       0.00496078       0.00631226
H        1.13602644       9.89747511      12.30839380      -0.00993417       0.00105197       0.00676283
H        5.78115114       8.62027257      11.23747516      -0.01041965       0.00653000       0.00643105
H        2.79807036      11.63897042      11.74411832      -0.01276140       0.00230306       0.00612030
H        5.13418427      10.99869401      11.23932128      -0.01303311       0.00443162       0.00506871
C        8.48495379       3.66332284       6.63138065       0.00256318       0.00483880      -0.00915698
C        9.24464540       4.82711044       6.69900878       0.00351279       0.00399521      -0.00634507
C        9.01640337       2.45648518       7.06943998      -0.00064090       0.00535470      -0.00716176
C       10.53812587       4.77271567       7.20889793       0.00050231       0.00236435      -0.00223453
C       10.31008530       2.40478060       7.57965737      -0.00300085       0.00355600      -0.00263005
C       11.07300206       3.56523317       7.64831132      -0.00208756       0.00303580      -0.00041866
H        7.47772485       3.71347189       6.23807409       0.00432971       0.00588004      -0.01321534
H        8.80269390       5.74879137       6.33630508       0.00494355       0.00442690      -0.00752927
H        8.41910230       1.55330488       7.01790008      -0.00136720       0.00604396      -0.00882752
H       11.14379683       5.67122636       7.25243486       0.00151506       0.00204143      -0.00034757
H       10.72257531       1.45987273       7.91436161      -0.00530798       0.00394931      -0.00103980
H       12.08713274       3.52783893       8.02762356      -0.00387925       0.00146136       0.00301158
C        4.59985723       4.44305054       9.51509912       0.00192842      -0.00795798       0.00138162
C        5.87985158       4.74098411       9.96830043       0.00054778      -0.00742935       0.00391500
C        4.30963145       3.17536679       9.02915583       0.00511697      -0.00627646      -0.00366645
C        6.86690022       3.76384094       9.95492093       0.00184700      -0.00524379       0.00131489
C        5.29677708       2.19673618       9.01760934       0.00639000      -0.00403640      -0.00632803
C        6.57042376       2.48783603       9.49025783       0.00512378      -0.00360716      -0.00368529
H        3.82931819       5.20120072       9.54255644       0.00067528      -0.00984810       0.00363207
H        6.10426638       5.74127847      10.32049334      -0.00189976      -0.00874057       0.00795273
H        3.31516850       2.94965843       8.66422073       0.00624968      -0.00664237      -0.00567641
H        7.87116939       3.99506426      10.28855807       0.00088041      -0.00497228       0.00331789
H        5.07358985       1.20850377       8.63607060       0.00893154      -0.00261478      -0.01046702
H        7.34186889       1.72815324       9.47694028       0.00619603      -0.00177868      -0.00566644
C        2.42141173      11.54379099       6.14795815      -0.00159550       0.01371735       0.00728478
C        3.01347621      10.45001573       5.52920739      -0.00165859       0.01796622       0.00317084
C        1.33592180      11.35497267       6.99137688      -0.00037250       0.01092222       0.00783286
C        2.52315197       9.16906581       5.74071827       0.00008570       0.01615067      -0.00048323
C        0.85415162      10.07380372       7.21503723       0.00101084       0.00888125       0.00355168
C        1.44724027       8.98341228       6.59553316       0.00132731       0.01318777      -0.00012652
H        2.81052586      12.53911570       5.97495940      -0.00303199       0.01500510       0.01048014
H        3.87586587      10.59156854       4.90019475      -0.00279690       0.02009992       0.00221825
H        0.85822171      12.20455317       7.46449883      -0.00006238       0.00791916       0.01117217
H        3.00381107       8.32319272       5.26409817       0.00028634       0.01904042      -0.00317292
H       -0.00664269       9.92904506       7.84729927       0.00233940       0.00651781       0.00443167
H        1.06681752       7.98569324       6.78352106       0.00310349       0.01177421      -0.00308767
C        5.13568435       7.61550307       7.79330935       0.00429109      -0.00339131      -0.00439141
C        3.93408751       7.88961539       8.43131742       0.00661430      -0.00663602      -0.00294004
C        5.99575086       8.65873911       7.46858629       0.00318311      -0.00116113      -0.00394642
C        3.59495135       9.19725924       8.74163860       0.00395280      -0.00803272       0.00106472
C        5.64874570       9.96968867       7.76888511       0.00071371      -0.00354549      -0.00015089
C        4.44563669      10.23837319       8.40759187       0.00305063      -0.00626165       0.00162019
H        5.40702382       6.60381662       7.51805220       0.00622965      -0.00203924      -0.00693550
H        3.24299735       7.09133304       8.67167873       0.00788052      -0.00807314      -0.00322818
H        6.89776799       8.41802144       6.92571493       0.00230040       0.00109551      -0.00520700
H        2.66413818       9.40989175       9.24568662       0.00549470      -0.01068240       0.00246168
H        6.30125383      10.78361194       7.47198307      -0.00027876      -0.00184476       0.00043320
H        4.15489165      11.25521534       8.63574544       0.00154333      -0.00760530       0.00467491
C        4.92206390       3.03202365      13.24731400      -0.00191562       0.00457903       0.00082052
C        4.15669999       2.10686097      12.54717729      -0.00122318       0.00796627      -0.00452552
C        4.39989618       4.28226071      13.56305841      -0.00293922       0.00174420       0.00717309
C        2.86483130       2.43306208      12.14969619      -0.00081313       0.00948470      -0.00250623
C        3.10570003       4.59916139      13.16569469      -0.00258361       0.00345573       0.00933602
C        2.33990416       3.68161694      12.45686356      -0.00182480       0.00645457       0.00427090
H        5.92861511       2.77728925      13.55757159      -0.00244078       0.00337728      -0.00073154
H        4.57216383       1.13598910      12.30562886      -0.00048953       0.01035610      -0.01017346
H        4.98230586       4.98935706      14.14376748      -0.00364764      -0.00104937       0.01064928
H        2.26595072       1.72290847      11.59210067       0.00025795       0.01225153      -0.00703868
H        2.68450313       5.55822525      13.44013246      -0.00321492       0.00084043       0.01442969
H        1.32927516       3.93108441      12.15503290      -0.00155479       0.00753637       0.00591305
C        8.58152917      10.09081636       9.82010943       0.00006895       0.00719128       0.00334314
C        8.85586460       8.77591580       9.45806200      -0.00097108       0.00680297       0.00518645
C        9.61578130      10.93288082      10.22309724      -0.00007252       0.00648572       0.00342580
C       10.16284363       8.29794255       9.50908552      -0.00157832       0.00615366       0.00716351
C       10.91753171      10.44765762      10.29323586      -0.00082932       0.00575094       0.00460465
C       11.18900104       9.12473208       9.95145787      -0.00161010       0.00566527       0.00624973
H        7.56466181      10.45939834       9.75947406       0.00075065       0.00790926       0.00181644
H        8.05323543       8.13367927       9.11536706      -0.00068805       0.00775708       0.00454806
H        9.40820551      11.96491741      10.47756308       0.00065058       0.00641817       0.00192104
H       10.37695062       7.28012706       9.20236610      -0.00197426       0.00618450       0.00768391
H       11.72635736      11.10087925      10.59756808      -0.00085799       0.00540519       0.00406865
H       12.20520319       8.75305204       9.99942800      -0.00215927       0.00534257       0.00702104
