148
Lattice="10.930693706609656 0.0 0.0 0.0 10.930693706609656 0.0 0.0 0.0 10.930693706609656" Properties=species:S:1:pos:R:3:forces:R:3 energy=-78907.25 stress="-0.0026196131948381662 4.0903871195041575e-05 -0.00035124909481965005 4.0903871195041575e-05 -0.0031360408756881952 -0.0006973579293116927 -0.00035124909481965005 -0.0006973579293116927 -0.0012325970456004143" pbc="T T T"
N        4.28827106       6.76254558       4.55343929       0.00518417       0.00318986       0.00173901
C        4.17203927       5.25282840       4.68294042       0.00405222       0.00326622      -0.00081098
C        5.47067444       7.14876017       3.68514889       0.00470430       0.00355062       0.00093757
C        4.48257703       7.36022200       5.92912127       0.00680368       0.00021844       0.00251192
C        3.01372702       7.27217106       3.90458658       0.00503442       0.00534686       0.00438398
C        5.40692226       4.55182650       5.20130731       0.00290015       0.00162147      -0.00118065
C        5.49961540       6.46448696       2.34158854       0.00246155       0.00541037      -0.00002846
C        4.56079006       8.87201252       5.96478859       0.00520558       0.00000688       0.00587462
C        1.79834144       7.29338611       4.80013432       0.00452667      -0.00102650       0.00377369
H        3.30427933       5.06800447       5.31538747       0.00400633       0.00295229      -0.00128666
H        3.92348503       4.89209005       3.68650266       0.00387192       0.00502574      -0.00120500
H        5.41181658       8.23021669       3.58150697       0.00631253       0.00376534       0.00200828
H        6.38085338       6.89322948       4.23052772       0.00484079       0.00159664      -0.00044481
H        3.65982942       6.99020141       6.54102860       0.00802347      -0.00188650       0.00274742
H        5.41019719       6.92733194       6.30231803       0.00761551       0.00039019       0.00029887
H        3.24007420       8.26378540       3.50890299       0.00417287       0.00769755       0.01025338
H        2.82340146       6.60827873       3.06324001       0.00614233       0.00995171       0.00071201
H        5.26125332       3.48035368       5.05251999      -0.00024724       0.00183171       0.00162668
H        6.31442685       4.82358046       4.66164614       0.00285885      -0.00153625      -0.00273304
H        5.56900227       4.72101003       6.26558662       0.00409771       0.00372723      -0.00185667
H        6.33855589       6.87228760       1.77788330       0.00128134       0.00665353      -0.00048076
H        5.69352735       5.40117460       2.44658171       0.00199566       0.00494537      -0.00366201
H        4.59400316       6.62021959       1.75895238       0.00144702       0.00714716       0.00217513
H        4.62622319       9.17571401       7.01052352       0.00774307      -0.00240218       0.00628361
H        5.43755461       9.26095485       5.44891433       0.00325260       0.00199083       0.00445093
H        3.66747771       9.34422093       5.55604268       0.00394139       0.00000601       0.00909305
H        0.93287478       7.41987333       4.15164256       0.00472510       0.00361660       0.00460692
H        1.64959979       6.35449095       5.33056814       0.00401930      -0.00478117      -0.00345110
H        1.81924813       8.10177359       5.53340798       0.00389615      -0.00624281       0.00927052
P        7.39059497       2.94617837       1.26650718      -0.01490963      -0.01461774      -0.01090282
F        6.55621676       3.40321534       2.56003376      -0.02595456      -0.01934661      -0.01590714
F        8.12010295       4.37023833       1.19271724      -0.01075047      -0.01547384       0.00334250
F        8.23624928       5.83926984       3.93938448      -0.00111720      -0.00019652       0.00398326
F        6.57521272       1.55337167       1.23176116      -0.01513261      -0.01432346      -0.02309750
F        8.14968050       2.50475562      -0.10223159      -0.00045601      -0.01224044      -0.00410630
F        8.54889010       2.31545004       2.16379574      -0.02288045      -0.01868924      -0.00241537
N        3.44266131       4.66352593       8.44121816      -0.00032543      -0.00307417       0.00331050
H        2.65020910       4.93217291       7.86097277      -0.00079186      -0.01511709       0.00873408
H        4.29458757       4.83205317       7.92598662      -0.00941061       0.00334437       0.01107455
H        3.43478631       5.24584073       9.27249736      -0.01184670      -0.01932014       0.00531059
N        9.25486796      10.01286478       7.22964900      -0.01128763       0.00823104      -0.00668935
H        9.06838244       9.29961915       6.52679889      -0.00877161       0.01167934      -0.01068984
H        8.51545327      10.70346544       7.07931852      -0.01448173       0.00607283       0.00020241
H        9.08592902       9.60515933       8.14157638      -0.00667120       0.00186933      -0.00879435
N        8.26693878       6.24787509       6.69053518       0.01586968      -0.01061663       0.00412873
H        8.20435404       6.05635704       5.67697930       0.01011439      -0.00618201       0.00358397
H        8.12260790       7.24534675       6.80748308       0.01715723      -0.01094986       0.00932309
H        7.48143286       5.79446108       7.14051849       0.01739718      -0.01113407       0.00555135
N        2.92701278       2.97388716       1.54719651       0.02142709       0.00512159       0.00036051
H        3.18678456       2.53876067       0.66275640       0.02234361      -0.00185636       0.00415794
H        3.58727828       2.69873613       2.26988225       0.01953297       0.00601130       0.00254056
H        2.90994400       3.97810674       1.40390881       0.02946510       0.00424903      -0.00537685
N        0.28578753      11.01697905       4.88864060      -0.01146507       0.01133645       0.00080366
H       -0.31555882      11.13453226       4.07961188      -0.00327922      -0.00917254      -0.00811618
H       -0.30500611      10.67733409       5.64695608      -0.01610242       0.01503549      -0.00105643
H        0.92508866      10.26399786       4.66077051       0.00002360       0.01527283       0.01994832
N        9.38044304       8.23612624       4.61797660      -0.00176409       0.00242472      -0.00116162
H        9.83905770       8.64777911       3.81270939      -0.00075685      -0.00329032      -0.00324439
H        8.99918785       7.32915322       4.30071899      -0.00388159       0.00210576       0.00261349
H       10.12470382       8.01181817       5.26895560      -0.00225388       0.00346653      -0.00033230
N        9.41305135       5.82086938       9.57726712       0.00163817      -0.00436443       0.01181134
H        9.31402191       5.80365276       8.56288647       0.00659126      -0.00953610       0.01153457
H        9.29213437       4.87867266       9.93638089       0.00756746      -0.00386407       0.01464561
H       10.38139971       6.03641264       9.78437761      -0.00074583       0.00371080       0.01415175
N        7.04654886       0.78317757       5.85237119      -0.01767863       0.01489507       0.01059742
H        6.08989401       1.11202976       5.91908040      -0.02015512       0.00858218       0.00613920
H        7.05691491       0.18084464       5.03107116      -0.01113682       0.01235072       0.01288591
H        7.59824112       1.61460331       5.61919496      -0.02153764       0.01704694       0.00855135
N        1.15588381       7.39954717       8.63392221      -0.00235826       0.00396642      -0.00061540
H        0.20872295       7.73260915       8.77828994      -0.00459834      -0.00131048      -0.00435300
H        1.09880869       6.66843299       7.92785535       0.00342645      -0.00011225       0.00329782
H        1.63946812       8.19979208       8.22963732      -0.00578514       0.00470972      -0.00278389
N        4.42953113       1.02639027       3.67487986       0.00081096      -0.00288917       0.00140595
H        5.39800694       0.76013116       3.51532852       0.00253735       0.00124276       0.00473026
H        3.89981250       0.52744657       2.95885765       0.00702302      -0.00256355      -0.00326812
H        4.17084796       0.58589588       4.55078872      -0.00116017      -0.00829469      -0.00222591
N        7.70301663       9.92070045      10.63274345      -0.01774431      -0.02199429      -0.00205398
H        8.34412106       9.23594912      10.25088005      -0.01652891      -0.01139874      -0.01830858
H        7.96681600      10.82044186      10.24791542      -0.02124497      -0.01300023       0.01655165
H        6.76940224       9.70381558      10.29374454      -0.01720271      -0.01773782      -0.00652193
N        8.89769924       7.36969872       1.48694692      -0.00069714       0.00257275       0.00368246
H        8.86539575       6.83244659       0.62519506       0.00206685      -0.00189427       0.00646986
H        8.27069213       8.15768588       1.37885020       0.00239664       0.00378266      -0.00511108
H        8.56301789       6.76966446       2.24417354      -0.00592862       0.00701093       0.00460699
N       10.43857763       0.45479858       0.54973749      -0.00118403      -0.00268808      -0.00936196
H        9.44689823       0.35664759       0.73399029      -0.00020954      -0.00235497      -0.00511344
H       10.76878053       1.13619901       1.22357497      -0.00130998       0.00487597      -0.01704711
H       10.86593363      -0.44148296       0.78290433       0.00129889       0.00081757      -0.00070650
N        2.31787917       5.97677644       0.30639084       0.00391659       0.00226900      -0.00351222
H        1.84664699       6.39760196      -0.49976646       0.00289445       0.00280734      -0.00242843
H        2.93514040       6.70148915       0.65276560      -0.00198454       0.00497039       0.00085762
H        1.61044661       5.80679693       1.02504926       0.00353760      -0.00467073      -0.00554892
N        6.84015796       2.93217636       8.28350487       0.00950173       0.00535208      -0.00187182
H        7.06925432       3.15124020       7.31622666      -0.00089084       0.02459414       0.00009647
H        6.50857466       1.97202878       8.24191937       0.01183406       0.00523894      -0.01844512
H        7.73581381       2.86678561       8.75655097       0.01460086      -0.00305355      -0.01274007
N        4.64391508       8.82876353      -0.38167663      -0.01236340      -0.01307434      -0.00794733
H        5.00822276       7.91422393      -0.13862839      -0.02327525      -0.01144699       0.01386445
H        3.73745150       8.68155512      -0.81305397      -0.01161037      -0.01305213      -0.00939352
H        4.47084128       9.33111630       0.48389083      -0.01137743       0.00388095      -0.01747023
N        0.35814024       3.46219520      10.63892051       0.01355217      -0.00478652       0.00581145
H        1.01026720       3.88092053       9.98566124      -0.00313472      -0.00931285      -0.01309303
H       -0.10723332       2.68142823      10.18677154       0.01409377      -0.01735910       0.02585142
H        0.93723620       3.05387711      11.36723547       0.03217760       0.01311604       0.00140246
N        6.38289188       6.32302463       9.64322321      -0.00322459      -0.03005225       0.00734985
H        7.40264998       6.34251091       9.74205710      -0.00367738      -0.01081049       0.00696531
H        6.11732593       7.21796695       9.24478746      -0.02413933      -0.03073026       0.02035387
H        6.18588118       5.61894884       8.93989153       0.01077926      -0.02592622      -0.00074029
N        3.30027711       1.84746138       9.54953595       0.01330951      -0.00913423       0.00769778
H        3.67893052       1.12892458       8.94347267       0.01335084      -0.01343938       0.01270738
H        3.40616415       2.75253701       9.07515669       0.01260631      -0.01264288       0.00165825
H        2.30027811       1.68003043       9.60426539       0.01348290      -0.00830919       0.00864594
N        0.65814611       8.65826422       1.48784270      -0.00040190       0.00126484       0.00896582
H       -0.26041058       8.18839093       1.56053937      -0.00070479       0.00163200       0.00645069
H        0.91657676       8.96914924       2.41688995      -0.00021601      -0.00495275       0.01082312
H        1.31190897       7.92242026       1.24564989      -0.00150657       0.00155165       0.00520804
N        6.01162864       3.66231842       0.21469219       0.00420016      -0.00563082      -0.02149579
H        6.06563167       3.33123845      -0.75990772       0.01781113       0.00250441      -0.02422458
H        6.05949883       4.68647729       0.16197312       0.01454785      -0.00568420      -0.01533458
H        5.10557224       3.39329765       0.60332248      -0.00594723       0.00163843      -0.04014328
N        0.72544317       4.71025768       6.83178289      -0.00803304       0.00200719       0.00517209
H       -0.11142484       5.17737591       6.49217469      -0.00554824       0.00972818       0.00976040
H        0.41240653       4.11358587       7.59076999      -0.01132769      -0.00224097       0.00021490
H        1.04310894       4.08387689       6.08181026      -0.01050840       0.00667746       0.00054415
N        7.13784432      10.00378556       3.09115333       0.00911286       0.02669466       0.00101911
H        7.78955496      10.72409568       2.79409308      -0.00098189       0.04365805       0.02028218
H        6.80565397       9.61612300       2.21386930       0.03206351       0.03097095      -0.00990176
H        7.69345164       9.29000269       3.55747074       0.01567029       0.03214109       0.00135478
N        2.80406580      10.81605400       1.16298855      -0.00053321       0.00033031       0.00713231
H        2.15261531      10.10619156       0.83532609      -0.00522658       0.00356558       0.01012656
H        3.29717459      11.18961906       0.35682268      -0.01061588       0.00721021       0.00411955
H        2.22401296      11.58908838       1.47662268       0.00449677      -0.00162929       0.02102916
N        8.76991905       3.38247217       5.42340766      -0.00385848      -0.00605902      -0.01093656
H        9.08334583       3.94642407       6.20541533       0.02086382      -0.01300528      -0.01587646
H        8.57546627       4.06285825       4.68104790      -0.00542130      -0.00126951      -0.00611604
H        9.59114626       2.86332192       5.12905045      -0.01827852      -0.01944244      -0.02697866
N        1.42794339      -0.52269637       7.99165244      -0.00733282       0.00657508       0.00017117
H        1.38713191      -0.33886637       8.99008562      -0.01236690       0.00519013       0.00019424
H        0.45034389      -0.59595131       7.70069830      -0.00585967       0.00387338      -0.00327061
H        1.77642745       0.32796545       7.56347001      -0.00903585       0.00854855       0.00306365
N        0.18402943       5.11835263       2.68587829       0.00002785       0.00396951      -0.00678889
H        0.54545495       4.45540452       3.36406259      -0.00377698       0.00647920      -0.00251101
H       -0.13820662       4.56261185       1.89574637       0.00183445       0.00093693      -0.00523993
H       -0.67031775       5.49376863       3.10021590      -0.00028460       0.00727201      -0.01105247
N        1.85294602       2.74590525       4.67019641      -0.00283563       0.01143624      -0.00778690
H        1.78258070       2.77428077       3.65464430       0.00286032       0.01558574      -0.00791289
H        1.36258470       1.88520660       4.93164235      -0.01316604       0.01618616      -0.01225585
H        2.83912703       2.55126867       4.81987697      -0.00574182      -0.00035581      -0.00415444
