146
Lattice="16.06020213562385 0.0 0.0 0.0 16.06020213562385 0.0 0.0 0.0 16.06020213562385" Properties=species:S:1:pos:R:3:forces:R:3 energy=-983593.375 stress="0.0004350696981418878 1.9449253159109503e-05 -6.471458254964091e-05 1.9449253159109503e-05 0.00041655919631011784 7.252247451106086e-05 -6.471458254964091e-05 7.252247451106086e-05 0.00041281053563579917" pbc="T T T"
N       14.56555177      12.61784442       2.38792130      -0.00632132       0.00269649       0.00054886
C       15.87303801      12.88959469       3.06532036      -0.00530368       0.00642680      -0.00156686
C       13.51247829      13.51876588       2.95677184      -0.00454611       0.00390601       0.00413662
C       14.17802201      11.19443209       2.61636891      -0.00280949       0.00292116       0.00270388
C       14.70474414      12.87382249       0.92054942      -0.00559996       0.00575709       0.00015742
H       16.17145054      13.91397100       2.85345092      -0.00899493       0.00698239      -0.00114181
H       15.73531665      12.73802204       4.13279384      -0.00425427       0.00471076      -0.00154212
H       16.60749499      12.18895696       2.67502241      -0.00476377       0.00908004      -0.00578912
H       12.57814468      13.32311955       2.43560918      -0.00765465       0.00472692       0.00688075
H       13.40942787      13.29615395       4.01602308      -0.00503179      -0.00190391       0.00450180
H       13.82467387      14.55258902       2.82788613      -0.00464611       0.00147367       0.00853196
H       13.21439704      11.01196366       2.14743786      -0.00368758       0.00182138       0.00215116
H       14.93924318      10.54893479       2.18397543      -0.00216597       0.00352938       0.00735838
H       14.10800042      11.01774315       3.68687364      -0.00559316       0.00832929       0.00322926
H       13.73645964      12.71505138       0.45121460      -0.00230071       0.00529500      -0.00448930
H       15.04503461      13.89793367       0.77797510      -0.00505337       0.00358742       0.00286192
H       15.43695408      12.17461776       0.52214215      -0.00247349       0.00555018      -0.00090547
O       15.24626165      16.34247827       3.21907596       0.00412801      -0.02255644      -0.02218151
O       14.70196202      16.86058431       1.18376524       0.03880382       0.00072825       0.00206995
O       16.45812369      15.63719810       1.55595674       0.01135993      -0.00691259       0.00767124
N       15.47162767      16.29055111       1.98646481      -0.01836949       0.01407018      -0.02413716
Cl       9.86715509       8.71403670      14.41683271       0.00151914       0.00470416      -0.01345871
Cl      12.48124010       9.52122205      15.45603107      -0.00272365       0.00335458       0.00083587
Cl      11.44006033       6.85465378      16.03670331      -0.00713132       0.00754082      -0.00098102
C       11.48274261       8.15880887      14.85313887      -0.00183164       0.00523596      -0.00409005
H       11.97393712       7.79353738      13.95845223       0.00934190       0.00300093       0.00312743
Cl       8.62205321      12.63834950       2.49166069      -0.00442229       0.00141934      -0.01674420
Cl      10.49717481      10.67307598       3.56889706       0.00054590       0.00656410      -0.01359230
Cl       8.27385550       9.79952217       1.88540812      -0.01709774      -0.00052947       0.01294164
C        9.42944418      11.09051927       2.20702071      -0.00942859      -0.00159047      -0.00735860
H       10.05743127      11.20186218       1.33126574      -0.01423000      -0.01154673      -0.01183867
Cl      15.63810162      17.18402500       7.51526159      -0.00579423       0.01049213      -0.00986847
Cl      15.65863498      14.39304046       6.66533095       0.00575877       0.00524426       0.00841980
Cl      13.37871755      16.09846573       6.02088925      -0.00277191      -0.00575842       0.00984871
C       15.12553852      16.05264583       6.25643731      -0.00318900       0.00258261       0.00273490
H       15.59953415      16.32113518       5.31890360      -0.00440684       0.00031670       0.00197217
Cl       9.70908429       5.06699656       9.26310476       0.00264692       0.01247273      -0.00899033
Cl      10.29320166       3.98505819       6.62059623       0.01104784      -0.00317181       0.00551015
Cl      12.32722938       3.88628798       8.70995561      -0.00568751      -0.00329091       0.00669866
C       10.59737712       3.82053650       8.35106136       0.00363169       0.00077332      -0.00037070
H       10.22196562       2.85723076       8.67516015      -0.00514483       0.00851938       0.00975769
Cl       3.95835398       7.73405076      12.65312902       0.01335879      -0.00408429       0.00868871
Cl       4.58603240       6.26745979      10.21369001       0.00901580       0.00712018      -0.00297627
Cl       6.63944171       6.64499603      12.25702017       0.00798860      -0.00756820       0.00236114
C        4.89940974       6.41852425      11.94292931       0.00974520      -0.00371969      -0.00123679
H        4.60336824       5.49563942      12.42773586       0.00619034      -0.00443831      -0.00301003
Cl      12.88296661      12.25528795      11.33054652       0.00011189       0.00087884      -0.01286796
Cl      14.02839586      14.80488063      10.47754579      -0.00784019       0.00488988      -0.00097126
Cl      11.12854719      14.44852528      10.53676865      -0.00563642       0.00086221      -0.01351918
C       12.67767284      14.01511396      11.29534112      -0.01003874       0.00388976      -0.00973935
H       12.64740692      14.36687562      12.32048544      -0.01471337       0.00003187      -0.00832629
Cl       7.11295050      11.04256208       5.64026538       0.00136998       0.00018974      -0.00297834
Cl       5.99491878       9.13320283       7.55508170       0.00911912       0.00309210       0.00761651
Cl       7.62341971       8.18661217       5.33072738       0.01470647       0.00192809       0.01001474
C        7.35375695       9.50097651       6.48228774       0.00825670       0.00400896       0.00344827
H        8.24142142       9.59916254       7.09493068       0.00845060       0.01232242       0.00265092
Cl       4.53645294       5.60160651       3.45406204      -0.00481322      -0.00883976       0.00134650
Cl       4.04763204       2.72661116       3.30499779       0.01160994      -0.01593783      -0.00309357
Cl       6.78061595       3.75128198       3.21867800       0.00602916       0.00335058       0.01275781
C        5.14013576       3.99230899       3.86125410       0.00359379      -0.00322536       0.00128603
H        5.20643293       3.93340426       4.94011832      -0.00228091      -0.00841911       0.00124270
Cl       3.88207840      16.25536860       6.57985588      -0.00465797       0.00380152      -0.01055264
Cl       2.53840759      15.17081109       4.22634960      -0.01014858      -0.00637628      -0.00104687
Cl       4.59659942      13.60419224       5.60428942      -0.00689128      -0.00193600      -0.00815109
C        3.28692137      14.78803559       5.77802987      -0.00254197      -0.00170560       0.00098469
H        2.53113700      14.34964717       6.41819297      -0.00157985      -0.00268874       0.00100103
Cl      13.44323061      11.59069545       7.09480377      -0.00429228       0.00010183      -0.00411722
Cl      13.20969812       9.38102028       8.99643075       0.01019312      -0.00772126      -0.01217368
Cl      10.81364504      10.72125941       7.99082912       0.00235239      -0.00177976       0.01336058
C       12.46859447      10.20241273       7.61916705      -0.00159673      -0.00075763      -0.00224562
H       12.42599395       9.49469775       6.79972646      -0.00648029       0.00248949      -0.00542398
Cl      14.49524076       8.01698535      12.42109480       0.00253231      -0.00756726       0.00691756
Cl      13.19971244       5.39702660      12.45540029      -0.00298095      -0.00577541      -0.00217040
Cl      15.15788262       6.03412781      10.38177568      -0.00414360      -0.00068961      -0.00181949
C       14.68215139       6.28392555      12.06576435      -0.00075557      -0.00328957       0.00066485
H       15.47319350       5.90541028      12.70286053       0.00004274      -0.00938056      -0.00481321
Cl       0.98320796       9.22768264       0.55602893       0.00152942       0.00781643      -0.01292127
Cl       1.22945484       6.72755791      -0.92296664      -0.00740799      -0.00181097       0.00482264
Cl       0.93040061       6.67641716       1.97739329       0.00465015       0.01718077       0.00855052
C        0.50374822       7.50666032       0.48442110       0.00021619       0.00798398       0.00226041
H       -0.57351232       7.47767579       0.37107243      -0.00126633       0.00686640       0.01041429
Cl       4.15968285       3.65128095       7.61678944       0.00232328       0.00130060       0.00764796
Cl       6.79921249       2.45021545       7.27572277      -0.00260536      -0.00976430       0.01683088
Cl       6.46699406       5.34681287       7.09975586       0.01038492      -0.01128294      -0.00425658
C        5.90887096       3.86135760       7.86763614       0.00425488      -0.00121880       0.00562457
H        6.07733097       3.93869097       8.93576124       0.00577196       0.00299188       0.00467420
Cl       2.36396560      13.21666729       9.05996120       0.00797343      -0.00018886       0.01775431
Cl       2.72700939      10.92262317      10.81888705      -0.00317454      -0.01373072       0.00293592
Cl       0.46735753      10.99943149       8.96853249       0.00273478       0.00736563      -0.00356680
C        2.15067167      11.46427274       9.23714166       0.00295443      -0.00167576       0.00570020
H        2.75413216      10.97578233       8.48131912       0.00667875       0.00353117       0.00463617
Cl       6.86480861      -0.42647855       2.54468846      -0.00363104      -0.01071236       0.00008002
Cl       8.09561842      -0.74784639       5.17969623      -0.01626198       0.00312510       0.01022024
Cl       9.33636797       0.99221879       3.18906786      -0.00780597      -0.00934426       0.00507991
C        7.81047570       0.35799148       3.82502050      -0.00831906      -0.00470613       0.00310246
H        7.23040135       1.19702842       4.18894911      -0.01192811      -0.00310081      -0.00691143
Cl      10.83247872      13.04392866      15.41846587       0.00310025      -0.00640772      -0.01405312
Cl      11.59146365      15.76697163      16.14239037       0.02549368      -0.01960878       0.01290890
Cl       9.65734593      15.30242664      13.99818021       0.00879684       0.02099366       0.02558392
C       10.27887094      14.74598815      15.54850431       0.01744154      -0.00456488       0.01165880
H        9.47148913      14.76128412      16.27242437       0.02313897      -0.00605328       0.01635361
Cl      15.29644444       8.19713127       5.14825603      -0.01944044       0.01526085      -0.00078435
Cl      12.80361327       6.84168849       5.84227768       0.00079080      -0.02193303      -0.00559345
Cl      13.13240940       8.00874307       3.18926112      -0.01094559      -0.01299389      -0.00275868
C       13.95103213       7.21336548       4.55074771      -0.00312752      -0.00389284      -0.00315571
H       14.35421476       6.27496829       4.18605521       0.01196374       0.00337741      -0.00392151
Cl       4.81424370       5.31743584      -0.52717208       0.00379111      -0.00496092       0.00472720
Cl       4.68589343       7.97992200       0.67099538      -0.00574264       0.00012423      -0.00149551
Cl       7.23600953       6.54961727       0.53414782      -0.00065610       0.00699261      -0.00142631
C        5.68101881       6.83680087      -0.25177894      -0.00034096       0.00043289       0.00292629
H        5.87587637       7.29022526      -1.21573417      -0.00814613      -0.00065780       0.00150988
Cl      13.65801407       4.51215589       1.65252848      -0.00762560      -0.00406042      -0.00071582
Cl      14.92395693       3.65272414       4.14338673       0.01070625      -0.00977726      -0.01277721
Cl      12.14011226       2.96810968       3.59987785       0.01236555      -0.02603540      -0.00479482
C       13.73614988       3.23769754       2.88748677       0.00374294      -0.01149241      -0.00834408
H       14.06086662       2.31811695       2.40403492       0.00793077      -0.00693601      -0.01329061
Cl       1.93228623      11.07700157       4.88912439      -0.00176057      -0.00469490       0.01189744
Cl       2.57429992       8.76480277       6.52949538       0.00508144      -0.01268798      -0.00479152
Cl       3.93101773       9.15919472       3.97205213       0.00128778       0.00337242      -0.00472993
C        3.21144218       9.94611042       5.37473840       0.00277366      -0.00648713       0.00038809
H        3.98778886      10.52120305       5.86817260       0.00134625      -0.00645846       0.00293639
Cl       8.45868833       3.30728557      14.02377532       0.00503755       0.01063704       0.00254244
Cl      10.53628946       2.62806717      12.08044619      -0.00584200       0.00515947      -0.00025494
Cl       7.71888915       2.28030743      11.38983759      -0.00571252       0.00075892       0.00742104
C        8.89207157       3.24617090      12.31395513      -0.00504418       0.00364420       0.00416028
H        8.86369034       4.25303012      11.91690310      -0.00626591       0.00239095       0.00033292
Cl       3.11885494      12.59820981       0.12653441       0.00304678      -0.00117818       0.00077014
Cl       4.63189038      11.12932096      -1.90770016       0.00262864      -0.00328472       0.00687611
Cl       5.87135091      13.35331998      -0.48069680       0.00232925       0.00212094       0.00316541
C        4.71886365      12.01106920      -0.37695245       0.00467646       0.00056472       0.00389583
H        5.07325002      11.32430343       0.38337438       0.00376625       0.00194243       0.00696898
Cl       1.20634792       3.11048836      16.99619959      -0.00513116       0.01392883      -0.01019138
Cl       0.70429386       2.38891918      14.21139791       0.00377686       0.00451939      -0.01069647
Cl       3.17122145       1.53713788      15.52661865      -0.00033903       0.01201721      -0.00576347
C        1.44228558       1.88214490      15.74451680      -0.00236924       0.01172931      -0.00695880
H        0.95675232       0.97143305      16.07923150      -0.00317162       0.01149529      -0.00628281
Cl       7.76748849      10.19654234      11.21721838      -0.01124908       0.00274736       0.00414415
Cl       7.74418227      12.20100307       9.08884211       0.00628318       0.00040892       0.00284424
Cl       7.25891529      12.99888991      11.85534313       0.01407862       0.00801182       0.00130586
C        8.12341345      11.88434639      10.79549911       0.00313346      -0.00357651       0.00283265
H        9.18689459      12.04560079      10.92714140       0.00620443      -0.01715838      -0.00288381
Cl       1.34506606       3.10688068      10.37188283      -0.00548980       0.00266194      -0.00792828
Cl       3.90949409       2.11741524      11.37736891       0.00168927       0.00868970      -0.01556471
Cl       1.74016962       0.24464115      10.81429335       0.00162295       0.00521675       0.01027671
C        2.50368584       1.76311060      10.35048991      -0.00451554       0.00242612      -0.00480607
H        2.86539506       1.66102020       9.33494727      -0.01081107      -0.00696037      -0.00585493
