149
Lattice="11.996976104365027 0.0 0.0 0.0 11.996976104365027 0.0 0.0 0.0 11.996976104365027" Properties=species:S:1:pos:R:3:forces:R:3 energy=-169593.9375 stress="0.001914069871418178 -0.0010119368671439588 -0.0003477553982520476 -0.0010119368671439588 -0.00022938376059755683 -0.0006113173440098763 -0.0003477553982520476 -0.0006113173440098763 0.001912570558488369" pbc="T T T"
Ti      11.25953259      12.06761682      -1.04125605      -0.01968741       0.00097305      -0.00184277
O        2.72789760      11.38207187       9.46321597       0.00389917      -0.01375169       0.03280222
O        0.69784633      11.21958231      11.40047459      -0.02007791      -0.00097526      -0.01940247
O        3.35533991      11.75800292      12.00316066      -0.03722286      -0.02316308       0.02177894
O        2.75942912       9.34326645      11.14747757      -0.02253971      -0.03394282       0.01806284
Cr       2.48372864      10.89985331      10.98523381      -0.01528955       0.03540131      -0.00261900
O        6.89633656      11.29612221       7.32827186      -0.00672746      -0.01095074       0.01339936
O        4.46829483      10.00669472       7.83516685      -0.00358611       0.00549337      -0.00422791
O        5.66018904       9.97316562       5.40839585      -0.01262847      -0.00655740      -0.00544989
O        4.63081028      12.25425358       6.28058349       0.01912463       0.00331903       0.00893068
Cr       5.44100434      10.92787492       6.66775000      -0.01869658       0.03527734       0.02482152
O        9.94792664       8.38072985      10.61942281      -0.00879729       0.00089768      -0.00026366
C        8.68817897       7.90093736      10.08041689      -0.00589007      -0.01036188       0.00443834
H        7.85439119       8.33157632      10.63308128      -0.00861067      -0.01450075       0.00388663
H        8.67076614       6.81923700      10.17968450       0.00204845      -0.01007959       0.00937462
H        8.64687812       8.19630359       9.03312765      -0.01012914      -0.01506354       0.00333774
H       10.16908749       7.96361742      11.59123520       0.00213874       0.00059679      -0.00187668
O        8.55406296       9.54094383       2.22551856       0.00059500      -0.00782142      -0.00976199
C        7.42483379       8.90766456       1.62790194       0.00049379      -0.01028103      -0.00731124
H        6.52571218       9.06405237       2.22502646      -0.00039962      -0.00558173      -0.00911957
H        7.59693112       7.83596365       1.50037451      -0.00159309      -0.01144046      -0.00053813
H        7.27154171       9.36291866       0.64844403       0.00107204      -0.01556838      -0.00966731
H        8.63004106       9.20451088       3.16063589      -0.00008789      -0.00121740      -0.00733425
O        7.66956211       4.86226021       6.67236410       0.00099218       0.00133207       0.00055716
C        8.63214881       3.83142711       6.77938391      -0.00303948      -0.00349563       0.00177337
H        8.30472599       2.89664331       6.31525280      -0.00845829      -0.00242326       0.00361213
H        8.89742686       3.61837302       7.82059806      -0.00351084      -0.00238994       0.00202096
H        9.53040632       4.17067651       6.26113154      -0.00181994      -0.00871781       0.00038411
H        6.78770840       4.53328648       6.90945859      -0.00003454       0.00499146       0.00023280
O        4.77902168       4.68702864       7.12561658       0.00902843       0.00346041      -0.00536193
C        3.98800598       4.06030975       8.13834686       0.00092694      -0.01365778      -0.02029154
H        2.93245621       4.32343925       8.02537187       0.00181648      -0.01275326      -0.02615517
H        4.32447638       4.35129699       9.13767210      -0.00677715      -0.02610857      -0.01403016
H        4.09394092       2.98248363       8.03401787       0.00378563      -0.01067755      -0.03442895
H        4.63979965       5.65322425       7.20237716       0.00305499      -0.00108670       0.00165540
O        8.79182513       9.51809283       7.02981493      -0.00711861       0.00685550      -0.00620522
C       10.09939725      10.08219963       7.07290632      -0.00921056       0.01150821      -0.00577781
H       10.72542524       9.50500995       7.75848860      -0.00566377       0.01010714      -0.01043546
H       10.07764033      11.11847462       7.41521381      -0.01316115       0.00919703       0.00056960
H       10.56671802      10.05162092       6.08482378      -0.00977147       0.01741578      -0.00631920
H        8.09707700      10.23726904       7.10176638      -0.01022893       0.00681989      -0.00198758
O        4.17840760       6.86184061       4.69036374      -0.00062412      -0.00047748       0.00332046
C        5.19529501       7.23021970       3.76044329       0.00182085       0.00223018       0.00827435
H        6.18135860       7.24833711       4.22831877       0.00214013      -0.01082424       0.00818165
H        4.99679436       8.22110426       3.34703452       0.00969450       0.00878829       0.01913148
H        5.19141434       6.49898850       2.95264290      -0.00318368       0.01179910      -0.00038791
H        4.42772817       7.20196776       5.57241084      -0.00328670      -0.00106758       0.00500623
O        4.63464998       4.29328689       1.91754588      -0.00021315       0.00708938       0.00328180
C        3.91408665       3.20068150       1.33012606       0.00566016      -0.00034289       0.00832281
H        3.34327095       2.66663611       2.09162257       0.00702767       0.00127035       0.00987718
H        4.58332693       2.50394689       0.82050022       0.01023692       0.00119957       0.01270108
H        3.21930035       3.61338963       0.60002902       0.00484657      -0.00695273       0.00549036
H        4.72385738       4.11779354       2.88795079      -0.00010217       0.01027422       0.00528333
O        1.93246531      12.81222597       5.65390640      -0.00849202       0.01179481       0.01462469
C        1.32995467      11.56261821       5.93401070       0.00613445       0.00670880       0.00282580
H        1.70296336      11.11139798       6.85987169      -0.00216798       0.00339477       0.00409198
H        1.47083629      10.84012794       5.12391033       0.01777162       0.01094323       0.00009340
H        0.25905647      11.73941033       6.04459935       0.00173563      -0.00273694      -0.00769870
H        2.89301231      12.69337156       5.73522042       0.00263965       0.01639199       0.01272210
O        8.66995617       8.43967507       4.59007728      -0.00036937       0.00405353      -0.00021093
C        9.47162621       7.27793009       4.76636808      -0.00245537       0.00109288      -0.00201926
H        9.41826704       6.69215566       3.84845931       0.00139716       0.00916086      -0.00715372
H        9.08736632       6.66844849       5.58739232      -0.00647640      -0.00566673      -0.00887790
H       10.52050109       7.53437289       4.95559556      -0.00295517      -0.00233707       0.00510068
H        8.59978838       8.89267568       5.46492472      -0.00067072       0.00420335       0.00044884
O       11.72173483       5.80703639      10.67251427       0.04328698       0.00424832       0.00537840
C       11.15443526       5.35783394       9.43114898       0.01491999       0.00072604       0.01469213
H       10.73344919       6.18895801       8.86289289       0.01215208       0.00570744       0.02288310
H       10.36120338       4.65583845       9.68040119       0.01880355       0.00617594       0.02583317
H       11.90081000       4.84755960       8.81920444       0.00412747      -0.00095004       0.00275511
H       12.40478283       6.46058114      10.48078316       0.02807766      -0.00758606       0.00009570
O        4.73483392       3.60320973       4.48202116       0.00139856       0.01245403      -0.00105563
C        5.82288626       2.73692415       4.79712407      -0.00191393       0.00358257      -0.01164568
H        5.77950622       2.41626660       5.83872847       0.00103526      -0.00269498      -0.01383993
H        6.78164358       3.22450375       4.59698219       0.00003108      -0.00115341      -0.01453314
H        5.73066270       1.84347229       4.18303110      -0.01144227       0.00817809      -0.01678340
H        4.60223453       4.19809208       5.23927398       0.01052245       0.01072020       0.00121595
O        2.00450087       8.38842259       6.86984025      -0.01185530      -0.00075936      -0.00090800
C        1.49977676       7.08073876       7.01043688      -0.00317316      -0.00359821      -0.00047506
H        2.02906571       6.35460333       6.38071284      -0.00066909      -0.00088540      -0.00158748
H        0.42788631       7.02061430       6.77615649      -0.00336444      -0.01086919       0.00274070
H        1.64100715       6.78959520       8.05388703       0.00199661      -0.00291049      -0.00034246
H        1.96502073       8.61993805       5.92293018      -0.01197720      -0.00097613      -0.00110067
O        8.24781685      -0.02660619       1.50220448       0.00934947      -0.00751054      -0.00875344
C        6.87317651       0.36912588       1.64667154       0.01268706       0.00843103      -0.01977902
H        6.25241467      -0.03162108       0.84290327       0.01360458       0.01180090      -0.02184901
H        6.82164299       1.45471159       1.61726112       0.02552199       0.00864339      -0.02551118
H        6.49945002       0.00926931       2.60696083       0.00310617       0.01675260      -0.02043495
H        8.38701872      -0.95268881       1.86612875       0.00287405      -0.00936960      -0.01101378
O        9.90480298      10.82720341      10.60200507      -0.02481061       0.00001771       0.00358336
C        8.69111150      11.38174110      10.05322723      -0.02702656      -0.00816007       0.00112904
H        7.98656086      11.58236304      10.86034251      -0.02829805      -0.00955682       0.00026426
H        8.26251716      10.69071946       9.33061602      -0.02272688      -0.01261982       0.00268891
H        8.91567455      12.30985358       9.52734328      -0.03212706      -0.00857979      -0.00122768
H        9.95245580       9.44396228      10.63225218      -0.01569464       0.00210240      -0.00114887
O       10.51503495       7.36053663       0.77972015       0.02120048      -0.00471610      -0.01337600
C       11.45102044       8.16862137       1.54630880       0.01410130       0.00200027      -0.01259390
H       12.43763455       8.16553612       1.08525166       0.01574975       0.00725353      -0.01084185
H       11.51763506       7.78196890       2.56010773       0.01500331       0.00338800      -0.01209465
H       11.03305456       9.17056356       1.57385832       0.00757521      -0.00085649      -0.01333384
H       10.96469621       6.55788651       0.47381568       0.03154764       0.00533915      -0.02756790
O       10.35797044       0.78358875       0.60936735      -0.00450252       0.01664825      -0.00381580
C       10.92149449       1.28969128       1.84713735       0.01098624       0.00315355      -0.00604263
H       10.64212487       2.33378278       1.96429418       0.03382085       0.00848380      -0.00336334
H       12.00222782       1.20010048       1.81442786       0.00871518      -0.01950439      -0.01005954
H       10.52707058       0.69192487       2.66685117       0.00291362       0.01119986      -0.00414298
H        9.36301780       0.47888784       0.86582212      -0.00253972       0.00105058       0.00471166
O        2.36866202       6.19043256       1.66780279       0.00746077      -0.01557431       0.01618868
C        1.77783725       5.49800546       2.76730720      -0.00774688      -0.00797345       0.01472941
H        0.89589383       6.06147398       3.06676807      -0.00383359      -0.00101957       0.00696830
H        2.45903242       5.45852095       3.61918742      -0.01300943      -0.01006908       0.01959577
H        1.47728624       4.48778844       2.48385340      -0.01066679      -0.00735956       0.01511276
H        3.23152103       5.77442505       1.53688339       0.00096009      -0.01924519       0.02460478
O        6.16587981       2.52436410      10.69387859       0.00449404       0.00591850       0.01314646
C        6.81600001       2.39025015       9.44833932       0.00366586       0.00764646       0.01086032
H        7.90818123       2.46850365       9.54370317       0.00383636       0.00621018       0.01149759
H        6.48808815       3.14504751       8.72420090       0.00487907       0.01159665       0.01420152
H        6.57796760       1.40791885       9.03770610       0.00140531       0.01039207       0.00762409
H        6.24455047       3.44792766      10.99310054       0.00051799       0.00391246       0.01195553
O        0.49775681       3.71472016      12.40871165       0.00465107      -0.01033378       0.00265574
C        0.98973513       2.62372630      11.67565240       0.01768298      -0.00191784      -0.00592780
H        0.16179119       2.12108114      11.14632283       0.02676459      -0.00098611      -0.01857598
H        1.47483849       1.92006662      12.35122966       0.01642281      -0.00567365      -0.00981137
H        1.72256755       2.89917635      10.91025461       0.02181375       0.01339974       0.00431269
H        0.32605168       4.44520269      11.79389457       0.01294095      -0.00513314       0.01023641
O        4.76979092       7.38717420       7.34148962      -0.00314480       0.00151432       0.00441156
C        6.13012350       7.61883585       7.71640397      -0.00322777       0.00686585      -0.00121479
H        6.59540914       6.65630265       7.92211417       0.00171016       0.00750768      -0.00720561
H        6.16464980       8.25276002       8.60313888      -0.00018873       0.00435220      -0.00005645
H        6.68001498       8.10555536       6.90995336      -0.00863342       0.01105048      -0.00321472
H        4.27845479       8.22562040       7.48874146      -0.00578503       0.00314710       0.00345804
O       -0.57187947       0.94194147       9.41300319      -0.02597761       0.00735965       0.00255546
C        0.30235873       1.52215875       8.45978434      -0.01156744      -0.00833604       0.00578631
H       -0.21565842       1.62100510       7.50637957       0.00067279      -0.02387489      -0.00132388
H        1.19093823       0.90733237       8.32575035      -0.01021621      -0.01004943       0.02735769
H        0.60038541       2.51504681       8.80504469      -0.01504266      -0.00394639      -0.00510123
H        3.83162679      -1.47187863       8.37737054      -0.00696827       0.01790305       0.00980672
O        1.99190528       8.44520191       4.08087682       0.00067450       0.00180918      -0.00180534
C        2.34993398       9.40896344       3.09185305       0.00833734      -0.00061244      -0.00074792
H        1.47883739      10.04288902       2.91939469       0.01252887       0.00348823      -0.00491647
H        2.62403790       8.92711619       2.14906566       0.00947705      -0.00296190      -0.00000259
H        3.17206906      10.04918893       3.42781398       0.01048809      -0.00464988       0.00124940
H        2.74306589       7.82424211       4.18591647      -0.00135648      -0.00016019       0.00199743
O        6.21666842       5.09639847      11.88183317      -0.00085580       0.00728366       0.00323552
C        5.39595955       6.17144430      11.44176832      -0.00464928      -0.00058621      -0.00607304
H        5.76492942       6.50554316      10.47250159      -0.00470769      -0.00587374      -0.00791261
H        5.42686231       7.01553646      12.13928030      -0.00949337       0.00520724      -0.01191154
H        4.34979023       5.87103275      11.32224062      -0.00359997      -0.00575443      -0.00451788
H        5.82164425       4.77983379      12.72259536      -0.00202570       0.00965737       0.00436110
