141
Lattice="12.087300611764077 0.0 0.0 0.0 12.087300611764077 0.0 0.0 0.0 12.087300611764077" Properties=species:S:1:pos:R:3:forces:R:3 energy=-160383.1875 stress="-0.0011612888192757964 0.00028646751889027655 0.00018137039296561852 0.00028646751889027655 -0.0016938173212110996 -0.0007781641616020352 0.00018137039296561852 -0.0007781641616020352 -0.0004192326741758734" pbc="T T T"
Ti      10.93955919      10.86723547       1.18566191       0.01646636       0.00213143       0.00887359
O        2.32233693      11.21230619       3.37171683      -0.00313053       0.02699051       0.02551386
O        5.11522829      11.51575224       3.77539527       0.01471841       0.01635182      -0.00263900
O        4.18926137      10.01727877       1.80456579      -0.02854970       0.02386951      -0.00924110
O        4.05764813       9.15384134       4.30181278      -0.00735509       0.02543604      -0.02360427
Cr       4.02536492      10.42643282       3.34420071      -0.02432799      -0.02118057       0.01010661
O       -0.62034301      10.90534545       5.13925015      -0.00052339       0.01075268      -0.00187868
O       -0.17974677      10.39110443       2.53690545       0.02503565      -0.00141086       0.00074673
O        0.96836811       8.90484264       4.56944225       0.00276187       0.01628900       0.02258590
O        1.90673268      11.50108742       4.70820188       0.00677323      -0.00070606       0.03529838
Cr       0.56818581      10.38553451       4.21907368       0.01289612      -0.00071532       0.01190436
O        4.70655812      11.74880621       8.26447023       0.00748366      -0.00502890       0.00420094
C        4.20054028       9.65827192       9.17247789      -0.00210391      -0.00654101      -0.00494087
C        4.12264748       9.51498137       7.65081908      -0.00328013       0.00050366      -0.00552362
C        3.97265322      11.15140169       9.32995160       0.00648393      -0.00663120       0.00286740
C        4.76819094      10.81380232       7.16229582       0.00020258       0.00040764      -0.00057902
H        3.47478284       9.05175889       9.71515525      -0.00598192      -0.00488283      -0.00826665
H        5.19789670       9.39402076       9.53410364      -0.00391045      -0.01476585      -0.00571337
H        4.62991422       8.63491834       7.26118058      -0.00681165       0.00103861      -0.00972356
H        3.08235157       9.46293732       7.32226705      -0.00375319       0.00553776      -0.00523114
H        2.90027120      11.38619571       9.23025269       0.00752151       0.00001246       0.00766851
H        4.33219882      11.57270750      10.27086895       0.01157044      -0.01284379       0.00369954
H        5.82140641      10.67774976       6.89941231      -0.00066370      -0.00174934      -0.00356045
H        4.26122945      11.23776760       6.29577507      -0.00054651       0.00597852       0.00271922
O        5.38951759       5.08979264       9.86839581      -0.00041127       0.00133109       0.00763673
C        3.35379053       3.93387243      10.17192847      -0.00192481       0.00423830       0.00049904
C        4.45111483       3.19537259      10.93675295      -0.00536100      -0.00042802       0.00064327
C        4.18110154       4.73408502       9.17583068       0.00248784       0.00211006       0.00272094
C        5.52308074       4.27203731      11.03631544      -0.00182122      -0.00417793       0.00385085
H        2.64372968       3.26604131       9.68564137      -0.00406642       0.00758728      -0.00081646
H        2.80136430       4.59881232      10.84303788       0.00021917       0.00590932       0.00038595
H        4.14169618       2.82255679      11.91214167      -0.00782179      -0.00071855      -0.00029388
H        4.81338463       2.34771009      10.35266725      -0.00763990      -0.00069392      -0.00013250
H        4.44240065       4.12941467       8.30263659       0.00493306       0.00047681       0.00464833
H        3.69935617       5.65439903       8.83664089       0.00527960       0.00217992      -0.00017857
H        5.37591515       4.89745147      11.92354432       0.00144562      -0.00721872       0.00629967
H        6.53495716       3.86752086      11.07372099      -0.00326192      -0.00820272       0.00110256
O       10.51963875      10.89582261      11.19927140       0.02568898      -0.01174527       0.01497680
C       10.89755494       8.87273315       9.96956607       0.00898868      -0.00436395      -0.00110975
C        9.50681772       9.43470729       9.65605718       0.01014239       0.00500304       0.01140098
C       11.38921239       9.72356779      11.13886468       0.02461368      -0.01462593      -0.00078541
C        9.63636144      10.89533254      10.02052467       0.01555011       0.00111753       0.02314049
H       10.87129169       7.82167328      10.24299631       0.00568638      -0.00490013      -0.01023546
H       11.57004736       8.99928610       9.12056680       0.00390276      -0.00027691      -0.00640514
H        9.24496980       9.31863022       8.60479831       0.00247437       0.01504273       0.01412711
H        8.74189470       8.94044915      10.25508361       0.01230305       0.00183022       0.01508591
H       11.23499778       9.13332841      12.08008064       0.03720535      -0.01452777      -0.00079522
H       12.42468207      10.05502647      11.06574175       0.02372779      -0.01503460      -0.01277245
H       10.16214210      11.45103627       9.24053164       0.01421444       0.00544310       0.02299803
H        8.72038313      11.41326056      10.30147840       0.02037703       0.00233956       0.03100360
O       11.12629512       6.38100864       5.73416780       0.00697710       0.01672360      -0.00067854
C       11.18341220       5.85056518       8.04317820       0.00945660       0.00484725      -0.00367379
C       10.54334097       4.70188539       7.26799504       0.00977272       0.00837645      -0.00911129
C       11.09504153       6.99202401       7.02906461       0.00832848       0.01003337       0.00236276
C       11.07338717       4.96260982       5.87119721       0.00927369       0.01641119      -0.00784430
H       10.66216220       6.06890335       8.97405324       0.01020332      -0.00027775      -0.00230464
H       12.22525000       5.61684653       8.27774173       0.00964344       0.00436717      -0.00532487
H       10.80825799       3.71467429       7.64183558       0.01059882       0.00665498      -0.01379242
H        9.45451545       4.79939450       7.28848211       0.00980052       0.00750828      -0.00797301
H       10.14761362       7.53607579       7.12989405       0.00850213       0.00952207       0.00626178
H       11.91751497       7.70780714       7.08939394       0.00826430       0.00970632       0.00498835
H       12.07918150       4.53543561       5.75117507       0.00984520       0.01849969      -0.01033225
H       10.43243641       4.57237349       5.08044410       0.00977081       0.02017510      -0.01016510
O        7.73107493       9.51288530       2.65082376      -0.01759926      -0.01477425      -0.00938538
C        7.05445466      10.01909298       0.42690300      -0.02423007      -0.00380361      -0.00546807
C        7.17394997      11.29646585       1.25615569      -0.00040126      -0.00648087      -0.00457524
C        7.06247801       8.93079319       1.49374272      -0.02881405      -0.00586045      -0.00729364
C        8.06220902      10.80754809       2.37529129      -0.00041205      -0.01940954      -0.00951880
H        6.15669430       9.98686096      -0.18551353      -0.03209540       0.00926275       0.00503547
H        7.92697486       9.91741994      -0.22093125      -0.03349194      -0.01447846      -0.01483786
H        7.55710298      12.15065459       0.69802160       0.00742272      -0.01129220      -0.00662912
H        6.21047385      11.56597620       1.69327492       0.00641754       0.00594813       0.00064625
H        6.05639087       8.67819909       1.81434113      -0.02889276       0.00127010      -0.00340398
H        7.60420318       8.03248063       1.19597443      -0.03753227      -0.00998238      -0.01154043
H        9.22051379      10.81117385       1.97275190       0.00011092      -0.03460895      -0.00900802
H        8.13289765      11.39986400       3.28859570       0.00441896      -0.02102458      -0.00766858
O        2.95303039       4.93805661       3.09203527      -0.00455725       0.00045127       0.00686336
C        2.68377439       7.05669111       2.14035951      -0.00621954      -0.00087982       0.00308746
C        4.08153773       6.56137692       1.78713160      -0.00770670      -0.00292379       0.00038825
C        2.43212856       6.24627986       3.39508840      -0.00405558       0.00208023       0.00550348
C        3.92785236       5.06696539       2.04717212      -0.00820592      -0.00175390       0.00378653
H        2.63535218       8.12918258       2.29708436      -0.00441815      -0.00089246       0.00129537
H        1.98294994       6.77236539       1.34768954      -0.00843097      -0.00248592       0.00562701
H        4.39528353       6.79204125       0.76910454      -0.01060798      -0.00531954      -0.00130501
H        4.79919828       7.00304876       2.48169053      -0.00580300      -0.00228466      -0.00258452
H        2.97893278       6.69069417       4.23501669      -0.00365698       0.00316605       0.00341457
H        1.38943550       6.13312486       3.68285990      -0.00418043       0.00252325       0.00627936
H        3.54621771       4.55066421       1.15950649      -0.01085564      -0.00345829       0.00587940
H        4.85777566       4.57751622       2.35354100      -0.00710282      -0.00141686       0.00225787
O        7.48617538       1.44278790      10.58248454       0.00699684      -0.00979796      -0.00244400
C        9.12716359       3.01396072       9.88717701      -0.00299397       0.00091225      -0.00106751
C        8.67985009       2.16715670       8.69583676      -0.00070745       0.00256367      -0.00290275
C        8.61413177       2.18303665      11.05957774       0.00407293      -0.00545475      -0.00264207
C        7.31800479       1.70182557       9.17177713       0.00332287      -0.00787328      -0.00176191
H       10.20346791       3.18006863       9.93831904      -0.00406811       0.00679542      -0.00282767
H        8.63364489       3.98872627       9.85570566      -0.00882581      -0.00192043       0.00308172
H        8.62438753       2.72033382       7.76340917      -0.00625417       0.00605284      -0.00029245
H        9.35678111       1.32214991       8.54816393       0.00409108       0.00700451      -0.00776619
H        9.38117201       1.46817548      11.38710303       0.00899580      -0.00226331      -0.00673130
H        8.31837215       2.78299681      11.92551967       0.00270443      -0.01011890      -0.00012290
H        6.58125033       2.49955192       9.02229235      -0.00263870      -0.01290649       0.00125492
H        6.93119427       0.79331711       8.71057559       0.00891010      -0.00922033      -0.00315577
O        9.80718656       6.86293963       0.71709334       0.01277380       0.01639033      -0.02209236
C       11.30751850       6.93493316       2.51034404      -0.00674617       0.01117264      -0.00690010
C       11.20318921       5.47674540       2.06577718       0.00252907       0.01265013      -0.01405483
C        9.99188704       7.46487008       2.00470434      -0.00412932       0.00790712      -0.01614732
C       10.50575570       5.59976309       0.71048815       0.00601560       0.01279051      -0.01630843
H       11.43273343       7.06233571       3.58256107      -0.01582817       0.00701150      -0.00513220
H       12.13373265       7.43482484       2.00092259      -0.00454490       0.01694802       0.00254466
H       12.15989469       4.95682597       2.00319452       0.00584340       0.01886508      -0.01279083
H       10.57194365       4.93303115       2.77374715       0.00376675       0.00596209      -0.01816151
H        9.16467785       7.21293551       2.67994279      -0.00953615      -0.00041488      -0.02635658
H        9.97195264       8.55935490       1.87332609      -0.00839062       0.00886214      -0.00987938
H       11.22587922       5.61610487      -0.11458133       0.00618878       0.00628137      -0.01588559
H        9.78535379       4.79720394       0.52119163       0.00219536       0.01528934      -0.01432461
O       12.01524404       1.57427504       2.46080001      -0.00601439      -0.04239354       0.01899074
C       10.18120413       1.94894448       3.93973260       0.00017464       0.01758496       0.00744736
C        9.70247953       1.98953549       2.48237177       0.00073212       0.00006163       0.00644046
C       11.70186294       2.06901957       3.79834395       0.00070989      -0.00058343       0.00511266
C       10.82621687       1.15698352       1.88145339      -0.01148978      -0.02706608       0.02095502
H        9.74419247       2.72645919       4.56160778       0.00819673       0.03011651      -0.00279424
H        9.92716271       0.98005407       4.37956279      -0.00913803       0.02577740       0.01912337
H        8.71230272       1.56379239       2.32847488      -0.00520417       0.01124687       0.01229199
H        9.71692905       3.00302278       2.07848430       0.01447573      -0.00628960      -0.00884197
H       12.05219330       3.10055900       3.84090518       0.01072123      -0.00294656      -0.02191447
H       12.25041267       1.46400538       4.52083245      -0.00319761       0.01311004       0.01968324
H       10.55669345       0.14486999       2.32748513      -0.03808638      -0.02095677       0.02143437
H       10.92764626       1.12412424       0.78562505      -0.00918038      -0.03987952       0.01955640
O        5.68143701       3.61045073       6.35680030       0.00949538      -0.00847745       0.00012124
C        4.74742575       2.49285382       4.50584078      -0.00621969      -0.00049514       0.00354069
C        6.25641691       2.59147045       4.29328569      -0.00685698      -0.01034725      -0.00303519
C        4.51670520       3.60720861       5.50807518       0.00553456       0.00031844       0.00586545
C        6.73440614       2.89350612       5.70941916       0.00187130      -0.01443520      -0.00495410
H        4.16096600       2.61917552       3.59859785      -0.00954337       0.00455339       0.00666848
H        4.50652043       1.52068539       4.93747954      -0.01109911       0.00094309       0.00428928
H        6.68273207       1.67117527       3.89587308      -0.01479089      -0.01312587      -0.00559399
H        6.50186637       3.41820197       3.61930922      -0.00477102      -0.01179561      -0.00343271
H        4.42443993       4.57669235       5.00937783       0.01041402       0.00110298       0.00675005
H        3.63399018       3.45664221       6.13378981       0.00757602       0.00601369       0.00924787
H        6.92133164       1.96160332       6.25706709      -0.00091561      -0.01589483      -0.00646734
H        7.64163928       3.50711601       5.74215036       0.00541738      -0.02028853      -0.00915505
