149
Lattice="13.134537128956044 0.0 0.0 0.0 13.134537128956044 0.0 0.0 0.0 13.134537128956044" Properties=species:S:1:pos:R:3:forces:R:3 energy=-244873.09375 stress="-0.0008248791564255953 0.0006378506368491799 -0.0003534181450959295 0.0006378506368491799 -0.0002828983124345541 0.00015295984485419467 -0.0003534181450959295 0.00015295984485419467 -0.0019989449065178633" pbc="T T T"
Ti      13.85213405      12.71659500       0.06477447       0.00222401      -0.01788700       0.02314923
N        4.61202864      12.89279811       4.97883130      -0.04339499       0.04812959      -0.04274347
C        4.32568138      13.71645974       4.21442977      -0.00164780      -0.03693844       0.04318956
N       12.22200334      12.57567152      12.09277296       0.03264391      -0.04546344      -0.02672479
C       11.13435254      12.77456032      11.67272718       0.02994847      -0.04958975      -0.02337080
N       12.69480935      11.44619338       2.69461138       0.00836964      -0.02322334       0.04038465
C       13.03332639      12.15243267       1.83445881       0.01211426      -0.02680311       0.03869912
N       10.44326612      12.92944194       5.50645751      -0.02230242      -0.02484277       0.02364153
C        9.98111721      12.65969165       4.46752553      -0.01244283       0.00116387       0.01639187
S        8.27928748      13.00674423       2.57281071      -0.02384818       0.00777316       0.01307261
O        7.19850863      13.45439421       1.60480006      -0.02621520      -0.00632891       0.00904691
C        9.42097216      12.11213777       1.52328698      -0.01019382       0.02481630       0.01436922
C        7.49918063      11.63233245       3.41993825      -0.01071709      -0.00170362       0.00975555
H        9.84892159      12.84687268       0.84487976      -0.01360831       0.03315938       0.02110159
H        8.85544542      11.38057419       0.94434545      -0.00001344       0.02277154       0.00733897
H       10.20513117      11.66947585       2.12791918      -0.01069356       0.02978902       0.01820569
H        8.23351370      11.10069832       4.01600512      -0.00726572       0.00230578       0.00885452
H        7.02712582      11.00683392       2.65883271      -0.00696236      -0.00277610       0.00829988
H        6.74538355      12.07000272       4.07005021      -0.01413369      -0.00842200       0.01031053
S        3.50667203       1.53920875       2.96099590      -0.01406414       0.01208544      -0.00022566
O        2.65471665       2.56121859       3.59673700      -0.01528811       0.01067042      -0.00078601
C        4.94835160       2.32280455       2.24567918      -0.01604241       0.01191422       0.01060206
C        1.41321001       1.48314522       0.08480015      -0.02526299      -0.00140399       0.01084036
H        5.81531662       1.66257668       2.31586237      -0.03127064      -0.01465641      -0.05527502
H        5.08022331       3.25872234       2.78914822       0.03431705      -0.02345975       0.05651423
H        4.71746841       2.49226290       1.19332041      -0.04025383       0.08569159       0.03057174
H        1.99089006       1.77154582      -0.79817517      -0.04183561      -0.03181623      -0.01128221
H        0.78548929       2.32366237       0.37909563      -0.05774332      -0.01633260      -0.00922839
H        2.13784512       1.32364466       0.90081035      -0.01618242       0.07486814       0.01443092
S        6.04732934       6.02294555       2.52992562      -0.00165838      -0.00345850       0.00854027
O        5.03613087       5.37006554       3.43020885       0.00903165       0.00851381       0.02857840
C        7.58673079       5.13273977       2.73725266       0.00028324      -0.00286469      -0.00349984
C        6.53896880       7.53288818       3.38036994       0.01185012       0.00456375      -0.01506114
H        7.42143422       4.13870921       2.33032963      -0.00372606      -0.00534190       0.00442433
H        7.83042508       5.08561406       3.79573461       0.01298284       0.00437063      -0.00613400
H        8.34801858       5.66979544       2.17284709      -0.00586689      -0.00616874      -0.01478414
H        7.32079941       8.01671321       2.79886925       0.00676312      -0.00523003      -0.02982889
H        6.90863018       7.27913024       4.37368104       0.02212828       0.01398841      -0.01654814
H        5.65160420       8.16428065       3.43261391       0.01438750       0.00775644      -0.01291983
S       11.40857203       2.62345249       9.38172435      -0.00149906      -0.00396240      -0.01260448
O       11.79720685       3.90115300       8.70639461      -0.02530265       0.00384128      -0.01208782
C       12.92799689       1.95606229      10.09672588       0.01457924       0.01669145      -0.03205654
C       11.20121934       1.36512839       8.11765605       0.00184540       0.00032091      -0.01605761
H       13.09003452       2.42710312      11.06310018       0.03297652       0.04486364      -0.04892626
H       13.73627397       2.19707997       9.40860353      -0.00153527       0.00160693      -0.05617647
H       12.83175240       0.88200299      10.21384411       0.02174464       0.01939990      -0.00050397
H       10.89378812       0.43277853       8.59182142       0.01568835      -0.00640398      -0.02051654
H       12.12203677       1.22699545       7.55403232      -0.00162145       0.01428012      -0.02487621
H       10.41734657       1.68542870       7.43637001      -0.00754529      -0.00439611      -0.00695790
S        7.58120803       3.72614688      11.96753766      -0.01001596      -0.01911203       0.00466275
O        6.40708636       4.12991617      12.79648244      -0.01090503      -0.02308276       0.00525284
C        7.02565414       2.37896958      10.90632447      -0.00263858      -0.02543497       0.00897124
C        8.68724772       2.74358583      12.98907890      -0.00519633      -0.01158369       0.00721467
H        6.29019073       2.81132422      10.23025533      -0.00895817      -0.03345761       0.01101552
H        6.57084961       1.59847546      11.51584413       0.00655309      -0.02901538       0.01105349
H        7.87452212       1.99119984      10.34252030      -0.00105838      -0.01777582       0.00616028
H        9.44735077       2.30317397      12.34204975      -0.00188965      -0.00823455       0.00902227
H        8.10853990       1.97231503      13.50451945      -0.00289783      -0.01345496       0.00686859
H        9.15163943       3.42412875      13.70078724      -0.01007550      -0.00880486       0.00742577
S        9.76571908       7.20183918       6.30123725       0.00855967       0.00150165      -0.01004410
O        9.18097873       6.79752476       4.97402085       0.01941705       0.00159925      -0.01496243
C       10.74781881       8.69039792       6.03903711      -0.00244859       0.00910020      -0.00050369
C       11.15241939       6.08305064       6.56290097       0.01459259       0.01258022      -0.00510816
H       10.08194020       9.50674192       5.76465759      -0.01216821       0.00157100       0.00256649
H       11.46312841       8.50127824       5.23942675       0.00367295       0.01837316       0.00254993
H       11.24314580       8.91908848       6.97863547      -0.00849292       0.01294183       0.00162499
H       11.82143827       6.49659019       7.31252392       0.00363047       0.01672549       0.00217514
H       11.64324667       5.96397304       5.59667027       0.02400498       0.02139511      -0.00121975
H       10.77663958       5.13033730       6.92622700       0.01941285       0.00805271      -0.01272735
S        1.57540275       6.81748255       1.85320138       0.01032293       0.01688969      -0.00816268
O        1.46233643       8.15897628       1.18127244       0.03898384       0.01997185      -0.00698799
C        2.52014630       7.11118731       3.35084704      -0.00634795      -0.00133495       0.00526124
C        2.80204500       5.86728636       0.96012891       0.00738668       0.00337848       0.00430039
H        1.88301715       7.68259416       4.02373845      -0.01069453      -0.00421528       0.00341640
H        3.39946713       7.69612938       3.07844232       0.00160389      -0.00567277       0.02226754
H        2.83900812       6.16828080       3.78952730      -0.01832933      -0.00776212      -0.00074885
H        3.05528375       4.98231804       1.54367446      -0.00804477       0.00182562       0.00813113
H        3.68980229       6.48231258       0.80825989       0.01511979      -0.00624192       0.01210851
H        2.34917414       5.60903936       0.00331377       0.01243150       0.00571880       0.00135052
S        5.60122140      11.05997626       9.78649396       0.00246191       0.00624532      -0.00264704
O        5.29864935      11.90274885      10.98819947      -0.00925288       0.00100636      -0.00183690
C        4.93318437       9.41929908      10.14722830       0.00970134       0.00218517      -0.01017755
C        7.34575353      10.61015459       9.92962308       0.00374091       0.01709095       0.00772403
H        3.85113344       9.51957800      10.17164491       0.00957841      -0.00104172      -0.00773035
H        5.33086337       9.06940530      11.09981393       0.01191882      -0.00106735      -0.01252377
H        5.19566577       8.73206022       9.34587691       0.01028030       0.00775317      -0.01462980
H        7.61730300       9.88894775       9.15968468       0.01497698       0.02192552       0.00730222
H        7.52855450      10.20240380      10.92375792      -0.00089954       0.01359892       0.00695543
H        7.92473450      11.52010321       9.79122637      -0.00212321       0.02198114       0.01566020
S        3.57846070      11.60868054       1.10345307       0.01986918      -0.01103660       0.02089105
O        2.36670718      11.74924128       0.10556545       0.01350230       0.01494542       0.03099069
C        4.53028451      10.28634220       0.41832828      -0.00605316      -0.01596960      -0.01081963
C        2.87415227      10.78161891       2.50621985       0.00725821      -0.00521201       0.01679334
H        5.05496393      10.70419341      -0.44256120      -0.03566791      -0.01614542      -0.03160027
H        3.85807005       9.46541743       0.16830535      -0.02739805      -0.00989626       0.02863884
H        5.22975382       9.99263866       1.20247668       0.03281640      -0.01781893      -0.04534468
H        3.71068031      10.51342510       3.15406689       0.01147202       0.01367845       0.01930187
H        2.32333800       9.90353778       2.15428097       0.01480564      -0.01205504       0.02037479
H        2.22717423      11.48198060       3.02887867      -0.00216408      -0.00065690       0.00287537
S        3.86060479       9.53703345       6.28081250       0.00332218      -0.00829017      -0.00425458
O        3.27646064      10.04501973       7.55010251       0.00550097      -0.01249647      -0.00160074
C        3.91464387       7.73529852       6.44022868       0.00927178      -0.00813264      -0.00725168
C        5.64533239       9.81305571       6.35828171       0.00224829      -0.00179480      -0.00825128
H        2.87961659       7.39918721       6.46321060       0.01016106      -0.01057113      -0.00534998
H        4.40152926       7.48875251       7.38497484       0.01171894      -0.00793806      -0.00865093
H        4.43344222       7.27946230       5.59621740       0.00835169      -0.00638415      -0.00875033
H        6.11441357       9.43252456       5.45211881       0.00200974       0.00034476      -0.00914615
H        6.05653953       9.31523518       7.23642432       0.00599574       0.00006790      -0.00911091
H        5.78254588      10.88971291       6.42203196      -0.00186806      -0.00139222      -0.00829270
S        9.93650407       6.71134371       9.60103318      -0.00653160      -0.00542068       0.00181791
O       10.48775406       7.98198920       9.03236737      -0.00208443      -0.00831580       0.00045210
C        8.28838321       7.09302190      10.22478397       0.00187927       0.00514144       0.01646122
C       10.74332800       6.51030022      11.18691558       0.00370312      -0.01496088      -0.00451034
H        7.69462449       7.36205485       9.35222784      -0.00444644       0.00751298       0.02170424
H        8.33203941       7.91412735      10.93821972       0.01351064       0.00535443       0.01530361
H        7.87617066       6.20251400      10.69699055       0.00060240       0.00845706       0.02118631
H       10.22517428       5.74542032      11.76456139       0.00207593      -0.01203906      -0.00243403
H       10.70127641       7.47635963      11.69055374       0.01517519      -0.01573101      -0.00248042
H       11.77539326       6.22084300      10.99297982      -0.00015828      -0.02270558      -0.01221698
S       10.01748855       8.27458154       1.05076957       0.00471473       0.00779629      -0.00204524
O        8.73034600       7.54209854       0.80609127       0.00614166       0.00622410      -0.00513665
C       11.27669910       7.05496756       1.45565809       0.00162339       0.00803369       0.00687549
C        9.92879446       8.95991636       2.70710981      -0.00090548       0.01343700      -0.00476056
H       11.45090515       6.43390672       0.58154595       0.00594336       0.00652752       0.00896673
H       10.93953054       6.45614777       2.30215585      -0.00383748       0.01015402       0.00602047
H       12.18842547       7.60225630       1.68715826       0.00077154       0.00667246       0.01248906
H       10.85662060       9.49062591       2.92652562      -0.00186390       0.01447352      -0.00319260
H        9.73730620       8.14959548       3.41416607      -0.00245728       0.01544982      -0.00293647
H        9.10909125       9.67005394       2.71253032      -0.00080273       0.01329762      -0.00961676
S        7.07321873       2.17357746       6.15393181       0.00112981      -0.01104105       0.00010967
O        6.77930805       2.47825593       4.72763406       0.00143012      -0.02333462      -0.00263023
C        5.53382907       2.46034204       7.06574947       0.00200039       0.00276157      -0.00508690
C        7.94569276       3.61777027       6.81038966       0.00518194      -0.00783056      -0.01351899
H        4.82188812       1.71496217       6.72192558       0.00268018      -0.00422831       0.00884210
H        5.17020531       3.46260219       6.83925514       0.00193713      -0.00171749      -0.02479097
H        5.71639664       2.32437065       8.13147992       0.00249912       0.02355601      -0.00306614
H        8.11009164       3.50117421       7.88287490       0.00383606       0.00147751      -0.01240240
H        7.36657312       4.51582992       6.59159962       0.00856486      -0.00819835      -0.02294094
H        8.90260485       3.66352247       6.29535589       0.00614339      -0.01599100      -0.01199169
S        2.53204577       6.02774821       9.96177382      -0.01371920      -0.01119703       0.01099908
O        1.53275645       5.83806234      11.05178678      -0.01162922      -0.03338620       0.00952983
C        2.03865248       4.91755708       8.62907333      -0.00265361      -0.00082886      -0.00075126
C        4.00727594       5.10448650      10.45669325      -0.00515956      -0.00261071      -0.00007194
H        1.08930068       5.27850272       8.24061409      -0.01209745      -0.01364173       0.01084985
H        1.89017743       3.92630364       9.05352841       0.02084384      -0.01039422      -0.01548675
H        2.79825547       4.90384852       7.84799694      -0.00767957       0.02567428      -0.00574114
H        4.69598309       5.03162800       9.61447479      -0.00588465       0.01231885      -0.00172561
H        3.69765011       4.11490212      10.79385629       0.00356610      -0.00872049      -0.01055145
H        4.48595099       5.63100819      11.27970451      -0.00885119      -0.00725268       0.00486799
