147
Lattice="11.883867452176013 0.0 0.0 0.0 11.883867452176013 0.0 0.0 0.0 11.883867452176013" Properties=species:S:1:pos:R:3:forces:R:3 energy=-194073.515625 stress="0.0005737903411500156 0.00042157234565820545 -0.00016039251204347238 0.00042157234565820545 -0.0006335190264508128 6.564989234902896e-05 -0.00016039251204347238 6.564989234902896e-05 -0.0020391098223626614" pbc="T T T"
Ti      13.38091589       9.85100641       2.02216466       0.00750396      -0.01093774       0.00277820
S        5.87158572      10.72649451       9.54857495      -0.02413273       0.00353074       0.00006011
S        1.75663917       9.14491912       9.01463393      -0.02644811       0.00787979       0.01700783
S        3.85526320      11.35682087      10.30757898      -0.01983523       0.00346144       0.00725591
S        2.59147982      11.07901693       8.77536543      -0.02737615       0.00225933       0.01408669
O        5.78702111      10.93709214       8.12422295      -0.02832180       0.01015349      -0.00162137
O        0.84216648       9.24343176      10.27802570      -0.00503510      -0.02212761       0.00272810
O        5.98983336       9.35260177       9.98921438      -0.02409233       0.00081527      -0.00778097
O        6.67423815      11.67728253      10.30086097      -0.01965332      -0.00039726       0.00085604
O        0.89172394       9.04012060       7.87736454      -0.01897552      -0.00545783       0.00053120
O        2.79035413       8.18257769       9.25517733       0.00751552      -0.01018099      -0.00328058
S        6.13408698       5.54392832       2.52443713       0.00879532       0.01247203       0.00117713
S        8.56499341       9.32172185       2.30621694       0.01599938       0.00362226      -0.01197594
S        7.34845178       6.49776815       0.92860463       0.00790960       0.00456849      -0.00421721
S        7.07710212       8.47290870       1.04270661       0.01337098       0.00571024      -0.01060875
O        5.22098714       6.57263552       2.98952129       0.01094007       0.01543760      -0.00145799
O        9.88073380       9.24762523       1.54549666       0.01664430      -0.00927252      -0.01102263
O        7.10739834       5.08437074       3.51174150       0.00922906       0.01398531       0.00124800
O        5.55108104       4.46580395       1.74733268       0.00584465       0.01056051       0.00560904
O        8.08935911      10.68835273       2.34970000       0.02562171       0.00653815      -0.01992744
O        8.65988089       8.58629753       3.53874380       0.01100469       0.00957280      -0.00929379
O        1.95808631      10.40809483       3.93172141       0.00354666      -0.00619733       0.00422214
C        2.08353087       9.51128969       5.10241158      -0.00300995       0.00033897       0.00907046
C        3.51864022       9.12804465       5.31953905      -0.00408524       0.00037023       0.01709567
H        1.64428406      10.04582566       5.93808333      -0.00579777       0.00569597       0.00458798
H        1.43800792       8.67323395       4.85582961      -0.00288251      -0.00031447       0.01134787
H        3.57809164       8.48756442       6.19928182      -0.00800050       0.00259204       0.01903450
H        3.92607195       8.57287317       4.47202082      -0.00109757      -0.00172746       0.02001332
H        4.14215234      10.00176189       5.52028295      -0.00487284       0.00058159       0.01732097
H        2.50160107      11.19205973       4.07284127       0.00179279      -0.00493503       0.00303587
O        5.78133012       2.55978325      10.37182764      -0.00860134       0.00113307      -0.00533307
C        5.36866889       2.54499393       9.01823592      -0.00342803      -0.00465840      -0.00674498
C        6.50234894       2.27465348       8.04848929       0.00210249       0.00080355      -0.00181964
H        4.57876096       1.79616924       8.86619854       0.00232345      -0.00986409      -0.00855263
H        4.92899386       3.52767555       8.82681612      -0.00848977      -0.00757968      -0.01059559
H        6.10086380       2.11771594       7.04901031       0.00724398       0.00064954      -0.00382604
H        7.20783611       3.10636561       8.02876603      -0.00101642       0.00350329       0.00276338
H        7.02612250       1.36475576       8.34110428       0.00414485       0.00229679      -0.00046405
H        6.17717524       1.69204248      10.54057302      -0.00979149       0.00144179      -0.00044976
O       12.01573171       8.50691442       2.61711810       0.00923064      -0.01160863       0.00693953
C       12.20626651       7.05141016       2.50990520       0.00892350      -0.01242405       0.01046360
C       10.91428464       6.31888577       2.72745568       0.00869846      -0.01018280       0.01649526
H       12.60133392       6.86803983       1.51358698       0.00657468      -0.01558329       0.01027668
H       12.96353073       6.78838176       3.24607090       0.01062948      -0.01019300       0.00929987
H       11.13874792       5.25287734       2.69426371       0.00670666      -0.01044601       0.01559591
H       10.47464941       6.54340984       3.69466396       0.01343534      -0.00906142       0.01834041
H       10.19316495       6.55289192       1.94525766       0.00540498      -0.00838593       0.02008328
H       11.06136885       8.71982834       2.30104338       0.01215512      -0.01261298       0.00071721
O       11.72178337      -0.86845687       1.67899803       0.01237115      -0.01518166      -0.00294848
C       11.08200817       0.16045837       2.54129907       0.01956765      -0.01361915      -0.00102293
C       10.54149140       1.30558473       1.73028732      -0.00291942      -0.02680859      -0.00437450
H       10.27760609      -0.35208185       3.06709523       0.03397804      -0.01535873       0.02006464
H       11.83533698       0.47225645       3.26056298       0.03112757      -0.00064200      -0.01861446
H        9.87789419       1.88662101       2.37426851       0.01210029      -0.01770270       0.00234573
H       11.33195114       1.94969698       1.35073845      -0.01217143      -0.03266247      -0.03345736
H        9.93295087       0.93786777       0.90437855      -0.02263191      -0.04078955       0.01692590
H       10.94300130      -1.45386455       1.40665812       0.00991535      -0.01527786      -0.00132345
O        7.72643986       2.26334460       3.39214347       0.00330174       0.01097997      -0.00404429
C        7.25364591       1.94045501       4.68916693       0.00563493       0.00685561      -0.00470662
C        7.80615883       0.59659423       5.10674073       0.00484034       0.00454122      -0.01121981
H        7.55617878       2.72155381       5.39798677       0.00819257       0.00354111      -0.00200433
H        6.15413632       1.90936083       4.70395356       0.00568503       0.00793533      -0.00217910
H        7.43573774       0.31352639       6.09383347       0.00568823       0.00067778      -0.01205538
H        7.51733601      -0.17870635       4.39852390       0.00373946       0.00794382      -0.01449338
H        8.89710185       0.62928230       5.13366154       0.00490838       0.00339701      -0.01209473
H        7.49198784       3.19369798       3.23527502       0.00430021       0.01162768      -0.00091630
O        3.33454117      10.82986956       1.65070070      -0.00494322       0.00741039       0.00315410
C        4.46996017      11.39686506       2.40286587      -0.00322513      -0.00048600       0.00576508
C        5.43628795      12.09803433       1.48976769       0.00221989      -0.00334033       0.00926191
H        4.03783706      12.09921895       3.12111538      -0.00050846       0.00012265       0.00687517
H        4.94689681      10.56754292       2.92721949      -0.00878087      -0.00453195       0.00452876
H        6.23724978      12.53281612       2.08892814       0.00315620      -0.00866985       0.01156902
H        5.90306256      11.40278082       0.79213462      -0.00059924      -0.00363903       0.00795795
H        4.96642272      12.90979855       0.93403145       0.00736557       0.00052971       0.01084027
H        3.56381099      10.80060023       0.69969764      -0.00814132       0.01638852       0.00092161
O        1.17586359       3.86123490      11.18822763      -0.00906920       0.00861756      -0.00414661
C        2.01325980       4.10705050      10.06660356      -0.01038444       0.00457811      -0.00554490
C        1.54106736       3.36448662       8.83350735      -0.00902742      -0.00223520      -0.00187135
H        2.06723199       5.18007746       9.85117240      -0.01256528       0.00417453      -0.01084510
H        3.01554811       3.78404936      10.35794024      -0.00952220       0.00816281      -0.00470015
H        2.16707653       3.62638630       7.97743306      -0.00828460      -0.00757436      -0.00295971
H        1.58158784       2.28539006       8.98899733      -0.00834351      -0.00115845       0.00500531
H        0.51735127       3.64344567       8.57450353      -0.00892800      -0.00449370      -0.00421196
H        0.29472547       4.26658241      11.05615602      -0.00818689       0.01111946      -0.00196543
O        1.50090638       4.10728497       2.09034843      -0.01093614       0.01549071      -0.00396895
C        2.60497566       3.20689843       2.01105636      -0.00358620       0.02415568       0.00337696
C        2.16107064       1.83486186       1.54677172       0.01011226       0.02024353       0.00242408
H        3.37146610       3.59661283       1.33777693      -0.00242543       0.02944043       0.00781560
H        3.05041276       3.15866289       3.00670977      -0.00949024       0.02812214       0.00612795
H        3.01459557       1.23112175       1.26530330       0.01730230       0.02640333       0.01071002
H        1.60088344       1.31441074       2.32589288       0.00827769       0.01796128      -0.00070807
H        1.53039621       1.91989300       0.66331294       0.01592050       0.01411354      -0.00241879
H        1.25412386       4.23755169       1.15947076      -0.01075694       0.00849310      -0.00484281
O        3.81501049       2.89772846       5.78806378      -0.00491261      -0.00720870      -0.00879085
C        4.56149376       4.11441564       5.66711706      -0.00803097      -0.00633091      -0.01726036
C        3.72372320       5.36225546       5.83683381      -0.00965303      -0.00766087      -0.01335791
H        5.39345127       4.12088299       6.37930659      -0.00238541      -0.00335321      -0.02386191
H        4.99761810       4.08702330       4.67090791      -0.01603051      -0.00756343      -0.02079797
H        4.36000364       6.23354115       5.67721019      -0.01357254      -0.00640893      -0.02095030
H        2.91466402       5.38738049       5.10631156      -0.01621807      -0.01218148      -0.00609948
H        3.29544352       5.43082612       6.83991185      -0.00129838      -0.00670991      -0.00980413
H        3.51530419       2.82103936       6.69819417       0.00195066      -0.00557590      -0.00663145
O       10.13425762       2.24880755       7.04586674       0.00393647       0.00868005       0.00022646
C       10.92461919       1.11068720       7.38547264      -0.00516459       0.00151744      -0.00161859
C       10.71604031       0.65619470       8.81546975      -0.00957336       0.00178325      -0.00233328
H       10.72010572       0.28200031       6.69530787      -0.01316226       0.00440434      -0.00303867
H       11.95774903       1.42372410       7.22591060      -0.00246671      -0.00740767      -0.00149600
H       11.35248679      -0.20228939       9.03737147      -0.02016685      -0.00619847      -0.00287495
H       10.95918788       1.45692298       9.51491624       0.00015967      -0.00185049      -0.00146911
H        9.67964780       0.35311759       8.98186181      -0.01324727       0.01439635      -0.00256427
H        9.20804587       2.00184309       7.14060141       0.00231011       0.01477332      -0.00211802
O       10.68051229       5.03811263      11.39818163      -0.00488499       0.01955962       0.00131643
C        9.80351062       5.48026325      10.34383293      -0.00024709       0.01130837      -0.00564623
C        8.89998863       4.37545626       9.85985170      -0.00125429       0.00860018       0.00184982
H        9.21854556       6.33286030      10.68961675       0.00053316       0.01615071      -0.01650274
H       10.46108718       5.83148878       9.54777766       0.00312984       0.00179309      -0.00716758
H        8.23531706       4.78063836       9.09881911       0.00186120       0.00269525      -0.00391456
H        9.47190237       3.55406284       9.42604520      -0.00169937       0.00328293       0.01146990
H        8.26773700       3.98699948      10.66198614      -0.00436842       0.01735164       0.00356846
H       10.13460185       4.69800474      12.11487442      -0.00792378       0.03028527       0.00405706
O       10.61806931       5.45864955       5.98440986       0.00696313      -0.01358163       0.02881301
C        9.39388654       6.17756452       6.18667254       0.00793377      -0.00781268       0.01239748
C        9.73176696       7.61889518       6.47435511       0.00949767      -0.00576860       0.00188009
H        8.75044068       6.10446534       5.30192508       0.01439503      -0.01381299       0.00813013
H        8.85053803       5.75266950       7.03783936      -0.00036499       0.00246328       0.01206791
H        8.81984727       8.17924370       6.67495519       0.00959271      -0.00174201      -0.00982750
H       10.37999841       7.69401896       7.34687312       0.00343084      -0.00000448       0.00581446
H       10.23291591       8.07488179       5.62028018       0.01713890      -0.01459608       0.00170413
H       10.40799762       4.52184821       5.91932961       0.00662357      -0.01450661       0.04450668
O        2.05778934       8.81638437       0.62264025       0.00854364      -0.00591674       0.00323451
C        3.31949809       8.10185953       0.57987797       0.01067239       0.00119293      -0.00340126
C        3.10129925       6.62412042       0.40397214       0.01675807       0.00018036      -0.00290416
H        3.89124671       8.53130340      -0.24593449       0.00615340       0.00424585      -0.00537962
H        3.85954825       8.29923568       1.50932743       0.01371324       0.00309496      -0.00516272
H        4.05362113       6.14726769       0.17762241       0.01923220       0.00242028       0.00404455
H        2.71829269       6.15773422       1.30889153       0.01178198       0.00133090      -0.00443754
H        2.41407615       6.43983819      -0.41984310       0.02222103      -0.00283124      -0.00674880
H        1.36357642       9.02095319      -0.76851021      -0.00444785      -0.01543450       0.00494114
O        7.55818031       7.25134705       8.93521235      -0.01150429       0.00689226      -0.00523299
C        6.34852107       6.77087517       8.36717733      -0.00750864      -0.00172862      -0.00512525
C        5.41021472       6.20987942       9.41751136      -0.00525016      -0.00548041      -0.00500590
H        5.85054696       7.57418005       7.81096919      -0.01246330      -0.00577003      -0.00695401
H        6.63620413       6.00201814       7.64373334      -0.00252488      -0.00107199      -0.00364989
H        4.47663701       5.87222095       8.96270081      -0.00318417      -0.01101684      -0.00509756
H        5.86757468       5.38202169       9.96064580      -0.00144388      -0.00274633      -0.00400457
H        5.15943209       6.99509181      10.12820146      -0.00973300      -0.00613640      -0.00624651
H        7.31350609       8.03427568       9.44705550      -0.01647473       0.00532377      -0.00564541
