141
Lattice="12.385797601088747 0.0 0.0 0.0 12.385797601088747 0.0 0.0 0.0 12.385797601088747" Properties=species:S:1:pos:R:3:forces:R:3 energy=-235601.671875 stress="0.0010550005827099085 0.0003049910010304302 0.00047591139446012676 0.0003049910010304302 3.888078936142847e-05 0.0005525467277038842 0.00047591139446012676 0.0005525467277038842 -0.00027445642626844347" pbc="T T T"
Ti      11.60260341      12.18049087       1.47587787       0.00221074      -0.00497538      -0.00298187
O        1.80627053       7.36598170       3.02051007      -0.01066518      -0.01012016       0.01862669
O        3.58939116       8.76003616       4.29834230      -0.00202721      -0.00679016       0.00209177
O        4.36307577       6.83907954       2.70845028      -0.01146185      -0.00078225      -0.00804853
O        3.17078555       6.29316980       4.97133774       0.01303773      -0.01058006       0.00280857
Mn       3.22512526       7.30705703       3.74614307      -0.00267164      -0.00564301       0.00246798
O        1.37792589       1.72606237       4.28185349      -0.01745415      -0.01717186      -0.01659912
O        2.18035115       4.08738610       3.41063076      -0.02775047      -0.00398639      -0.00480086
O        3.83332637       2.44409272       4.73278438      -0.02362216      -0.00534165      -0.01658584
O        1.90505823       3.63196345       5.99245871      -0.02521539      -0.01557165      -0.00303686
Mn       2.34623316       2.94383748       4.65395877      -0.01105082      -0.02052757      -0.01918888
O        0.85145231      11.93914095       2.00904384       0.00433101       0.00052775      -0.01089627
O        1.05637491      10.03916536       3.87901190       0.00592136       0.01449835       0.00658929
O        2.95594689      11.82984332       3.76542766       0.02212012      -0.00035560      -0.02585906
O        2.72699756      10.06064820       1.84733905      -0.00902283      -0.01905847      -0.00907779
Mn       1.98395469      10.90554673       2.94554978       0.00162148       0.00001431      -0.00648701
O        7.50122283      11.12982548       8.79160510       0.01401857       0.00935674       0.00551569
O        7.87012118       8.55224620       8.86895900      -0.01783079       0.00524509       0.01932657
O        8.53350855       9.89987512       6.75017348      -0.01516259      -0.01615924       0.00626791
O        6.01218675       9.56624131       7.32324036      -0.01571560       0.01949900       0.02661872
Mn       7.46764335       9.78197553       7.92814383      -0.00923866       0.00405207       0.01557695
O        3.54942701       7.41629104      10.77216902       0.00095940      -0.00149059      -0.00295816
C        4.55124369       6.60315459      11.36465430       0.00058162       0.00216293       0.00153077
C        4.98467845       5.51233827      10.39167982       0.00529596       0.00118518       0.00482923
C        5.73682679       7.43526004      11.83945693      -0.00145411       0.00437123       0.00370347
H        4.07971451       6.15216288      12.24387073      -0.00070789       0.00254986       0.00102669
H        5.73407915       4.85990124      10.84671721       0.00376479       0.00311114       0.01004380
H        4.13117838       4.90893955      10.07820667       0.00643398      -0.00025396       0.00401698
H        5.42091481       5.96977015       9.49940153       0.00815650      -0.00083882       0.00496109
H        6.45915311       6.80563730      12.36606112      -0.00287828       0.00541355       0.00720147
H        5.39432848       8.20636992      12.52824900      -0.00400670       0.00589755       0.00076476
H        6.23370238       7.90211578      10.98357808       0.00130207       0.00310362       0.00461110
H        3.87392757       7.73225252       9.90782710      -0.00399857      -0.01634438      -0.01085258
O       10.96675279      11.41352214      12.08584069       0.00680259       0.00020620      -0.00417495
C       10.43975144      10.08327366      11.52332793       0.00468493       0.00102222      -0.00343895
C        8.95712443      10.21632630      11.32285995       0.00436068       0.00379848       0.00087271
C       11.20929591       9.76991941      10.26976189       0.00199533       0.00305947      -0.00595868
H       10.69512600       9.39426823      12.32656853       0.00593383      -0.00027165      -0.00491750
H        8.56960326       9.26895624      10.94209882       0.00108092       0.00673681      -0.00311360
H        8.42635521      10.46325734      12.24343717       0.00751123       0.00034537       0.00362675
H        8.71330097      10.95303809      10.55246918       0.00436696       0.00851731       0.00536823
H       10.84636397       8.82114703       9.87350524      -0.00052518       0.00538415      -0.00914410
H       12.27898711       9.68453893      10.45676812       0.00206962      -0.00033796      -0.00709824
H       11.02179114      10.51506151       9.49439351       0.00318577       0.00706033      -0.00274439
H       10.75589895      12.09077552      11.42883509       0.00599203       0.00042862      -0.00291842
O       11.03269411       8.02201434       6.57476203       0.00757653      -0.00017208      -0.01563185
C       10.10233399       6.96925866       6.30921785       0.00627309      -0.00205529      -0.00451955
C       10.56073660       6.15826629       5.10949859       0.00426167      -0.01481128       0.00334972
C        9.88471588       6.09133036       7.53480761       0.00659821       0.01011795       0.00431800
H        9.16548589       7.48576797       6.08828881       0.00609010      -0.00397342      -0.00859466
H        9.84962518       5.36420166       4.88262161       0.00097449      -0.01399216       0.01042513
H       10.66754322       6.79135071       4.23159794       0.00794069      -0.02328070      -0.00239044
H       11.53376241       5.69935315       5.30905055       0.00223224      -0.01707404       0.00888598
H        9.11752077       5.34168828       7.32219161       0.00632115       0.00823016       0.01212331
H        9.54367883       6.69533643       8.37533871       0.00721259       0.01836768      -0.00120929
H       10.80624208       5.56860494       7.80415027       0.00679070       0.01267107       0.00885881
H       11.91981511       7.65864443       6.47752651       0.00695053      -0.00003040      -0.01804538
O        3.66208757       8.18683468       8.16662267       0.01342154      -0.02091625      -0.00776756
C        2.24245479       8.37122769       8.16528240       0.01446104      -0.00211318      -0.00177085
C        1.79129481       9.37425776       7.12005134       0.01891053      -0.00231075      -0.00453055
C        1.62265763       6.99248157       7.99544837       0.00143382       0.00342977       0.00369980
H        1.96124715       8.74341083       9.16153814       0.02184716       0.00406194      -0.00169450
H        0.70936194       9.51829421       7.17375303       0.01898637       0.00220248      -0.00449472
H        2.26370905      10.34619330       7.27794641       0.02248795      -0.00341240      -0.00758086
H        2.05121935       9.03821829       6.11524676       0.01696885      -0.00539188      -0.00403246
H        0.54659424       7.03087156       8.17823887       0.00233322       0.01729212       0.00350701
H        2.05684821       6.30894328       8.72527277      -0.00515354       0.00135373       0.00567578
H        1.82650876       6.60366325       6.99454681      -0.00342350      -0.00232795       0.00479272
H        4.13160046       8.85501342       7.64993827       0.02606711       0.00723676       0.04202969
O        7.82846962       2.08142392       8.80814602       0.00297403       0.02273554      -0.00405633
C        6.45200670       1.69815846       8.62712786       0.00736618       0.00722139      -0.00589593
C        5.78005914       1.47766496       9.97213987       0.00843820      -0.00357455      -0.00693893
C        5.72006451       2.71716979       7.77323980      -0.00386831       0.00015956      -0.00463104
H        6.50796653       0.73812997       8.11269824       0.01821042       0.00901657      -0.00807819
H        4.74533332       1.16633025       9.82089370       0.01339988      -0.01908708      -0.00944632
H        6.29602687       0.69824663      10.53238611       0.01907431       0.00347993      -0.00687185
H        5.76996078       2.40004370      10.55945867      -0.00632460      -0.00448363      -0.00547580
H        4.66785531       2.45532807       7.65715454       0.00018527      -0.01472199      -0.00854598
H        6.15556664       2.77843196       6.77803766      -0.00244887       0.00942102      -0.00348921
H        5.76347562       3.70794959       8.23544617      -0.01836490      -0.00097959      -0.00081982
H        7.82699290       2.99588308       9.10848213      -0.00782731       0.02067249       0.00089858
O       10.41818813      11.43057724       2.82164697       0.00522447       0.00366493      -0.00018989
C        9.78405849      10.08086480       2.64669039       0.00193712       0.00399309       0.00807872
C       10.86060396       9.02363020       2.62374333       0.00022382       0.00217411       0.01280382
C        8.71480341       9.86431619       3.67885595       0.00458249       0.01171515       0.01302034
H        9.32761640      10.18048871       1.66029056      -0.00097415      -0.00233373       0.00851700
H       10.42244020       8.07943713       2.29561449      -0.00124291       0.00051349       0.01971033
H       11.67696909       9.26309480       1.93589087      -0.00085360      -0.00328860       0.00938497
H       11.30250223       8.88058108       3.60731941       0.00145778       0.00797354       0.01321721
H        8.16834704       8.95378271       3.42154199      -0.00052255       0.01216483       0.02131921
H        7.99978423      10.68556520       3.69704441       0.00753561       0.01441959       0.01246687
H        9.12723402       9.73741116       4.67851262       0.00932790       0.01461648       0.01122874
H       10.71558302      11.78620035       3.76116842       0.00602057       0.01467353       0.00326210
O       11.45286394       1.51546476       1.04896552      -0.00812486      -0.00541660       0.00610769
C       10.33617604       2.42176387       0.85401863      -0.00271584       0.00072615       0.00212279
C        9.10722170       1.86451281       1.54161707      -0.01000398       0.00743167      -0.00561512
C       10.73961026       3.79076679       1.35690053       0.00276448      -0.00240058       0.00628898
H       10.17490970       2.46223898      -0.23090662       0.00322536       0.00338991       0.00122547
H        8.25511758       2.52992143       1.40223298      -0.00396095       0.01480687      -0.00802812
H        8.83760161       0.88148124       1.14417505      -0.01473906       0.01082806      -0.01042324
H        9.28950807       1.76701525       2.61342067      -0.01633466       0.00336600      -0.00491787
H        9.90873150       4.48455619       1.22656369       0.00798318       0.00305045       0.00248574
H       11.60706558       4.16538740       0.81503134       0.00852197      -0.00811569       0.01152883
H       10.98899469       3.74747633       2.41791227      -0.00377008      -0.00590761       0.00779796
H       13.49582616       2.33091644       1.22227937       0.01042641      -0.00183968       0.00566586
O       11.38837943       0.39702040       4.63741590      -0.00943354      -0.01411022       0.00972578
C       10.81588388       1.09324419       5.78889038      -0.01457778      -0.01677242       0.00831045
C       10.93353954       2.59293350       5.59925533      -0.01424333      -0.01661485       0.00988416
C        9.39247096       0.62274466       5.93934985      -0.01530302      -0.01631473       0.00313112
H       11.40338848       0.78849663       6.66161272      -0.01747808      -0.01822445       0.00974071
H       10.44801904       3.10714551       6.42983385      -0.00904967      -0.01720561       0.01320040
H       11.96949541       2.92488607       5.56468300      -0.01404315      -0.01809676       0.00446247
H       10.43234968       2.89862951       4.67960505      -0.01913667      -0.01533688       0.01290973
H        8.94486024       1.08869448       6.81793174      -0.01616225      -0.01704270       0.00293478
H        9.33263975      -0.45837093       6.06842995      -0.01638112      -0.01637182       0.00177988
H        8.80342137       0.91536642       5.06639451      -0.01232331      -0.01429009       0.00177319
H       12.30902627       0.71117056       4.52080816      -0.01302475      -0.00299669       0.00178508
O        1.81359230       2.98202729       1.10177885       0.00162554       0.00688410      -0.01002491
C        2.93631594       2.35984970       0.41195825       0.00383036       0.00874364      -0.00827495
C        4.01287703       1.97801244       1.40900444       0.00414830       0.00699149      -0.00969785
C        2.43656979       1.18298644      -0.40234071       0.00671804       0.01035786      -0.01227251
H        3.30972447       3.14191803      -0.25331121       0.00348696       0.01199394      -0.00536311
H        4.85275243       1.51649763       0.88495398       0.00344459       0.00997458      -0.01352752
H        4.39037723       2.85145958       1.94355116       0.00336906       0.00538409      -0.00683539
H        3.63306665       1.25847008       2.13620045       0.00759276       0.00260594      -0.01216145
H        3.23838846       0.77780307      -1.01714445       0.01243269       0.00710922      -0.00266110
H        1.61709126       1.48483789      -1.05834276       0.01430079       0.01174763      -0.02095713
H        2.09828284       0.38425790       0.25779534      -0.00246514       0.01182033      -0.01471555
H        2.11243385       3.67107627       2.49418337      -0.00992796       0.00070463      -0.00963020
O        6.15967357       4.84517377       2.83867045      -0.01094139       0.00164646      -0.00071907
C        6.38425078       4.69152770       4.23304719      -0.00643623       0.00325050      -0.00152016
C        7.45535173       3.62703433       4.37566361      -0.00888658       0.00021386      -0.00396995
C        6.78611934       6.00728074       4.88707496       0.00174537       0.00271785      -0.00512835
H        5.46484776       4.33811510       4.72057632      -0.00589192       0.00766009       0.00301379
H        7.75114656       3.49194083       5.41699209      -0.00488823       0.00145272      -0.00486317
H        7.09772222       2.67185922       3.98847442      -0.01284885       0.00051554      -0.00099275
H        8.33596624       3.92520166       3.80156413      -0.01032873      -0.00269522      -0.00791758
H        6.94266502       5.87524869       5.96030155       0.00640519       0.00327502      -0.00564934
H        6.00599548       6.75530627       4.75575469       0.00415352       0.00586542      -0.00204591
H        7.70747138       6.38555177       4.43948796       0.00139190      -0.00212266      -0.01010192
H        5.48673519       5.55477008       2.73159755      -0.01051804       0.00316666      -0.00029995
