137
Lattice="13.254990122042646 0.0 0.0 0.0 13.254990122042646 0.0 0.0 0.0 13.254990122042646" Properties=species:S:1:pos:R:3:forces:R:3 energy=-103057.6875 stress="0.0009666703408583999 0.000146391692396719 0.00035674266109708697 0.000146391692396719 -0.0007921600481495261 0.00015907982015050948 0.00035674266109708697 0.00015907982015050948 -0.0005143977468833327" pbc="T T T"
Ti      13.77335038      13.24064205       0.64256850      -0.00500047      -0.00785390       0.01715535
O        5.61727341      10.90389386       7.88334432       0.04476848      -0.01151425      -0.00882018
O        5.92802770      12.99802967       8.64097035      -0.00317961      -0.01189759       0.01278055
C        5.98537062      11.65284418       8.75238933       0.00960305      -0.01102811       0.00691575
H        6.39741881      11.36662876       9.73073012      -0.01567492      -0.01141535       0.01724058
O        5.42861150      13.00930515       5.66116304       0.03082436      -0.00833631       0.00725077
O        6.98798820      11.39817827       5.05384884       0.01087636      -0.01036096      -0.03153396
C        6.19514088      12.18210328       5.36247321      -0.02350347       0.03607777       0.00575167
H        5.53444540      13.20332002       7.77641554       0.01982874      -0.01139748       0.00157511
O        2.95453834      12.16378446       3.05535296       0.01807480      -0.00081311       0.01217437
O        1.51133589      11.95630301       1.35138791       0.00666153       0.00393629       0.02205551
C        2.77661014      11.85661336       1.92076858       0.00881267      -0.00297326       0.01434621
H        3.52113820      11.52557852       1.17981536       0.00207445      -0.00966410       0.01066229
O        4.78890910      12.23023582      12.92026869      -0.00783396      -0.00980335       0.00723660
O        6.50847331      11.19181456      11.88107078       0.00725329       0.01219559       0.01059130
C        5.80062039      12.18068949      12.18405139      -0.00167826       0.00471139       0.01482916
H        6.11230337      13.15487248      11.72248840      -0.00453568       0.01174271       0.02794600
C       10.97198974      10.90591393      12.43350607       0.02368377       0.00722954       0.01419298
C        9.85080519      10.17001975      12.03381224       0.01614490       0.02051148       0.01102117
C       12.20471036      10.26539400      12.51580189       0.01788292      -0.00478181       0.01103394
C       10.85723748      12.35708821      12.80440775       0.03605753       0.00729257       0.01880490
C        9.98469128       8.81595483      11.74434534       0.00321294       0.02091699       0.00312119
C       12.33681423       8.91250268      12.23153247       0.00457165      -0.00429956       0.00263671
C       11.21901451       8.18163345      11.85232486      -0.00253147       0.00911041      -0.00193381
H        8.87178936      10.63898991      11.96076944       0.02061632       0.03013086       0.01413943
H       13.08523774      10.83426057      12.81277094       0.02393842      -0.01607447       0.01447063
H       11.88524206      12.76866661      12.98140641       0.04034796      -0.00439985       0.01350311
H       10.41564393      12.96659581      12.01426198       0.04318327       0.01447083       0.02021104
H       10.26732392      12.50652586      13.71087832       0.03884062       0.01164569       0.02002713
H        9.11134644       8.24709930      11.44837894      -0.00167622       0.02995639       0.00079538
H       13.30551075       8.43576477      12.31284070      -0.00025564      -0.01450324      -0.00009076
H       11.30765221       7.12006173      11.65533561      -0.01272859       0.00967179      -0.00977178
C        1.83320302       9.20974435       3.73690657      -0.00290318      -0.00354742       0.00706078
C        2.28856388       9.45166691       5.03448780      -0.00693334      -0.00072192       0.00799063
C        2.77650781       8.95243917       2.74297589      -0.00006564      -0.01183682       0.01191330
C        0.36859336       9.30132147       3.42203556      -0.00152013       0.00005266       0.00126960
C        3.64409938       9.45588605       5.33061089      -0.00811668      -0.00653134       0.01345059
C        4.13790738       8.97139600       3.02940060      -0.00099207      -0.01849033       0.01746355
C        4.57249018       9.21994961       4.32187138      -0.00520539      -0.01567129       0.01840265
H        1.56769964       9.65512290       5.81914238      -0.00914192       0.00613503       0.00416879
H        2.44455269       8.76768303       1.72546891       0.00331262      -0.01412437       0.01127390
H        0.14957540       8.97728729       2.40465981       0.00266526       0.00648876      -0.00171509
H       -0.22967719       8.70035975       4.10965154      -0.00497974      -0.00416891      -0.00538927
H        0.02314108      10.33376793       3.51850655      -0.00130998      -0.00035712       0.00670009
H        3.98467572       9.65557174       6.33885474      -0.01073906      -0.00410115       0.01385468
H        4.85802773       8.81058196       2.23964130       0.00081876      -0.02616970       0.02073561
H        5.63165927       9.23471973       4.54102206      -0.00597151      -0.02029784       0.02327555
C        9.82018070       1.98934633       6.58868459      -0.00159767      -0.00092434      -0.00219033
C       10.04932161       3.35468897       6.75534669      -0.00060141      -0.00138818       0.00057378
C       10.85809063       1.19942038       6.09192176      -0.00187641      -0.00066206      -0.00315362
C        8.49263817       1.38342771       6.93627816      -0.00239757      -0.00045905      -0.00485314
C       11.27889812       3.91582467       6.43892727      -0.00006559      -0.00176798       0.00243910
C       12.09108026       1.75755385       5.77506812      -0.00124580      -0.00117541      -0.00121316
C       12.30634332       3.12038146       5.94807541      -0.00018677      -0.00163218       0.00165583
H        9.26091169       3.97714143       7.16321017      -0.00052828      -0.00153479       0.00103975
H       10.69966529       0.13350853       5.96739768      -0.00273402      -0.00033072      -0.00540359
H        8.61148989       0.39599903       7.38419794      -0.00376321      -0.00312254      -0.01011614
H        7.94114496       2.00823623       7.63845653      -0.00105686      -0.00321755      -0.00128745
H        7.87309135       1.26319685       6.04275919      -0.00306551       0.00562946      -0.00506186
H       11.43931287       4.97664945       6.58609593       0.00062663      -0.00213191       0.00456138
H       12.88833643       1.12378078       5.40426835      -0.00163132      -0.00127727      -0.00200837
H       13.26507623       3.56193771       5.70346532       0.00029114      -0.00197009       0.00345471
C       10.34908227       4.14328499       2.15924438      -0.00297926      -0.00003433      -0.00738621
C       11.33501614       4.27753476       1.17938482      -0.00759086       0.00366349      -0.01140478
C       10.42286838       4.95921926       3.28719682       0.00203857      -0.00434571      -0.00459105
C        9.26456137       3.11587439       2.02212093      -0.00361219       0.00037253      -0.00612955
C       12.39177240       5.16378643       1.34972486      -0.00711551       0.00355069      -0.01310357
C       11.47237012       5.85387891       3.45416757       0.00265173      -0.00467528      -0.00613333
C       12.47275359       5.94647303       2.49535562      -0.00201169      -0.00062442      -0.01066279
H       11.26424277       3.68660231       0.27084097      -0.01066473       0.00615122      -0.01279744
H        9.65891039       4.87733669       4.05128693       0.00573798      -0.00725356      -0.00126185
H        8.38287303       3.38785755       2.60119468      -0.00290732       0.00067510      -0.00527999
H        8.96849643       2.98219181       0.98115655      -0.00462727       0.00048298      -0.00582138
H        9.60696168       2.14669053       2.39678754      -0.00360994       0.00019291      -0.00638148
H       13.15597982       5.24636993       0.58688283      -0.01073234       0.00626772      -0.01637127
H       11.51180649       6.47426455       4.34122082       0.00657969      -0.00809742      -0.00395507
H       13.30502940       6.62271179       2.63716426      -0.00160769      -0.00090298      -0.01188512
C        2.95937521       3.92130728      11.06681157       0.00114846       0.00449356      -0.00772254
C        2.91658876       2.62194421      10.55846920      -0.00125997       0.00491959      -0.00843301
C        4.20421360       4.49023717      11.32048021       0.00228717       0.00276238      -0.00944204
C        1.70814386       4.67329677      11.40891769       0.00249934       0.00609758      -0.00624476
C        4.08383849       1.89698456      10.35380544      -0.00258190       0.00374700      -0.01165062
C        5.37380602       3.77077695      11.11905713       0.00100832       0.00155144      -0.01234211
C        5.31959766       2.46810462      10.64058421      -0.00134204       0.00202142      -0.01348239
H        1.95645525       2.16779746      10.32929551      -0.00220826       0.00623058      -0.00695147
H        4.26294885       5.50378364      11.69218035       0.00424550       0.00245920      -0.00875168
H        1.86680471       5.75119066      11.36575748       0.00409895       0.00588372      -0.00585788
H        0.88095659       4.41712939      10.75060366       0.00189315       0.00774024      -0.00618219
H        1.39333808       4.43105573      12.42898719       0.00264486       0.00590504      -0.00630102
H        4.04106270       0.87935453       9.98935218      -0.00416781       0.00445171      -0.01324993
H        6.32171894       4.24157616      11.35081657       0.00196244       0.00043434      -0.01422125
H        6.22143202       1.88818343      10.49289114      -0.00243294       0.00106407      -0.01614444
C        2.77823661       2.02234901       3.05479380      -0.01502772      -0.00016169      -0.01217701
C        3.64436331       1.67867323       1.99403865      -0.01732743      -0.00098170      -0.01397054
C        1.42463678       2.14735526       2.80115271      -0.01513302       0.00261036      -0.00981671
C        3.32932671       2.26670110       4.42689599      -0.01213402      -0.00340455      -0.01315698
C        3.19857171       1.51566681       0.70278078      -0.02011067       0.00016076      -0.01318355
C        0.90491075       1.93348827       1.50500455      -0.01793902       0.00250635      -0.00878205
C        1.81502994       1.65390313       0.41899394      -0.02052110       0.00151829      -0.01131374
H        4.69491475       1.52684052       2.21153644      -0.01717103      -0.00260786      -0.01631776
H        0.74209598       2.39991896       3.60351394      -0.01334842       0.00330126      -0.00851259
H        2.67771284       1.85364973       5.19788012      -0.01560360       0.00379331      -0.01224935
H        4.31329092       1.81746902       4.54391377      -0.01634187      -0.01255383      -0.01305045
H        3.42780241       3.33905472       4.62236213      -0.00215160      -0.00403515      -0.01496539
H        3.88598849       1.21137612      -0.07648469      -0.02160689       0.00047155      -0.01450676
H       -0.10112389       2.30608911       1.29840192      -0.01852372       0.00142714      -0.00783046
H        1.50354322       1.81778494      -0.61634590      -0.02175664       0.00356890      -0.01003859
C        5.77287984       5.84731059       1.32031903       0.00064712       0.00600329      -0.00168999
C        4.74432291       6.53616834       0.68036844       0.00235391       0.00502216      -0.00548205
C        7.05951015       6.38198783       1.26334474       0.00044852       0.00697250       0.00219586
C        5.50566390       4.55121911       2.02481321      -0.00082793       0.00698227      -0.00005168
C        4.99646522       7.71107959      -0.01858146       0.00346242       0.00589213      -0.00378131
C        7.30856989       7.56875518       0.58381434       0.00180086       0.00708487       0.00286622
C        6.28060743       8.24204967      -0.06955419       0.00323986       0.00698584       0.00047979
H        3.73298739       6.14807150       0.74545530       0.00250101       0.00405060      -0.00915588
H        7.87439223       5.87001772       1.76475268      -0.00071707       0.00781132       0.00501288
H        6.15427150       4.42615259       2.89312521      -0.00585236       0.01116610       0.00429723
H        4.46976801       4.48687811       2.35712487      -0.00264740       0.00567038      -0.00595699
H        5.68084736       3.70421639       1.35588520       0.00515486       0.00520998       0.00373377
H        4.18490847       8.24367915      -0.50173707       0.00472513       0.00554288      -0.00616544
H        8.31214267       7.97597956       0.57479771       0.00171447       0.00751355       0.00551423
H        6.45047427       9.19005189      -0.57339746       0.00406954       0.00754148       0.00187761
C       11.17466311       2.02553134       9.88819549      -0.00212671      -0.00652719       0.00162458
C       11.89285492       3.21571716       9.76742519      -0.00097060      -0.00692959       0.00347082
C        9.84856325       2.09754814      10.31384399      -0.00126857      -0.00646721       0.00384842
C       11.82091367       0.71360489       9.55377300      -0.00406341      -0.00633305      -0.00328115
C       11.31167060       4.44006837      10.07032217       0.00036456      -0.00707527       0.00677172
C        9.26126870       3.32096012      10.61667442       0.00020887      -0.00658357       0.00736149
C        9.98996244       4.49825031      10.49850726       0.00091925      -0.00695020       0.00850841
H       12.90949890       3.17772099       9.39279528      -0.00148565      -0.00699789       0.00228218
H        9.25875752       1.18987716      10.38371646      -0.00196632      -0.00616954       0.00281613
H       11.08077463      -0.07174779       9.40240071      -0.00531466      -0.00537813      -0.00214703
H       12.42453892       0.79508668       8.64966200      -0.00773935      -0.00486529      -0.00561422
H       12.48782627       0.38202206      10.35681525      -0.00081199      -0.00832750      -0.00698301
H       11.88298761       5.35335559       9.94958705       0.00099652      -0.00735609       0.00803486
H        8.22747345       3.35214963      10.93332427       0.00084652      -0.00638231       0.00926154
H        9.52723544       5.45087357      10.72550533       0.00194599      -0.00708281       0.01115499
