145
Lattice="12.667064276176866 0.0 0.0 0.0 12.667064276176866 0.0 0.0 0.0 12.667064276176866" Properties=species:S:1:pos:R:3:forces:R:3 energy=-143752.0625 stress="-0.0009409902268089354 0.00021420804114313796 -0.0004963595565641299 0.00021420804114313796 -0.0005208355723880231 0.0005081869312562048 -0.0004963595565641299 0.0005081869312562048 -0.001472728792577982" pbc="T T T"
Ti      12.48013554      12.98951012      -1.79836937       0.00528753       0.00914224      -0.02217883
O        8.68447561      14.29529392       4.89147633      -0.01280081       0.04051876       0.00441232
O        9.89707790      12.49791962       4.20581761       0.02657342       0.05605304       0.04037702
C        8.89218080      13.07226213       4.63241767       0.00944853       0.03950626       0.01552209
H        7.99535180      12.42059687       4.82447907       0.00748217       0.04260975       0.00547194
O        3.36383829      11.47068279      11.16801389      -0.00826478      -0.03305060       0.03593156
O        1.58692430      12.82669315      11.15009297      -0.00363982       0.01967470      -0.02484071
C        2.81499534      12.44364679      10.75914703       0.00030112       0.03398207      -0.01049358
H        3.22438331      13.12459513      10.00106491       0.03848143      -0.00647154       0.03197867
O        5.15485857      11.70733882       5.32293537       0.02181101       0.04067254       0.04205918
O        3.34658839      13.06009284       5.30636932      -0.00247049      -0.00274885       0.06020737
C        4.32990328      12.49111438       4.79926120      -0.00655773       0.00340503       0.04567468
H        4.51909178      12.70675615       3.70803620      -0.03631033      -0.01505825       0.03651226
O       11.75923831      12.02799769       9.44350387      -0.00686955       0.00242576      -0.01770669
O       10.82112007      11.92870327      11.49464451       0.01683456      -0.00291964      -0.00931007
C       11.48443642      11.30316926      10.55355972       0.00443709      -0.00008470      -0.01947155
H       11.67268812      10.23675630      10.56870025       0.00766638       0.00087476      -0.02116168
O        9.26509706       1.37839627      11.28547298      -0.00282001      -0.00965542       0.02341949
O       11.44213699       1.92452909      11.41366488      -0.00412232      -0.00243509      -0.00656935
C        9.81982520       3.54839924      11.99106340      -0.00040337      -0.00842404       0.01638788
C       10.22288004       2.20501228      11.53287289      -0.00127128      -0.00683632       0.00972088
H        8.97017844       3.91696073      11.41779279       0.00356117      -0.00420524       0.01332596
H        9.51036503       3.46580606      13.03448759      -0.00623626      -0.01096825       0.01439935
H       10.65560206       4.23754895      11.91587352       0.00110853      -0.01020616       0.02103594
H        9.58942549       0.44272447      11.13493769      -0.00259510      -0.00696492       0.01106735
O        9.10676501       4.17287498       5.15916325       0.01988727      -0.01293701      -0.04686356
O       11.06109802       4.13970477       6.28198672       0.00621426      -0.04233718       0.00188106
C        9.85212955       6.19900646       6.10805192      -0.00037096      -0.04271674      -0.01479122
C       10.09139905       4.73443375       5.87114786      -0.03164518      -0.04775631       0.00631894
H        9.68712664       6.73355501       5.17592357       0.00626104       0.01437395      -0.04080395
H        8.94971169       6.35097962       6.70248923      -0.02117795      -0.04948176       0.00121449
H       10.70344463       6.64960005       6.60648177       0.00951330      -0.03744613       0.01554314
H        9.20112534       3.16723035       5.06758128      -0.00435791      -0.00346212      -0.02425969
O        4.06855212       6.32241960       2.70197136      -0.00262630       0.00187337       0.00124758
O        3.63435278       8.19294844       3.86787601       0.00717238      -0.00419629       0.01432201
C        2.28926371       6.23046366       4.22430808       0.00057894      -0.00017399       0.00611043
C        3.37523696       7.04410953       3.60010166       0.00176793       0.00045812       0.00908109
H        1.82815794       5.56979896       3.49026051       0.00047117       0.00182003       0.00487095
H        2.73230487       5.60287844       4.99757182      -0.00106162      -0.00246784       0.00562048
H        1.56679106       6.88442408       4.69652353       0.00176743       0.00058982       0.00701097
H        4.80113023       6.86950648       2.35165524      -0.00114805       0.00063172       0.00250218
O        6.01930581      10.50608008      10.10224301      -0.00462502       0.01333559       0.00543469
O        7.96842332      11.53004222      10.53745081       0.00620127      -0.00400305      -0.00814819
C        6.52399905      12.38530947       8.81439263       0.01559526      -0.00639820      -0.01574647
C        6.93493574      11.44030400       9.89520533       0.00807732       0.00206825      -0.00579762
H        6.11714654      11.85420169       7.95279599       0.01001181      -0.00914089      -0.01108001
H        5.72688806      13.01640759       9.21811012       0.02239837       0.00602942      -0.02276541
H        7.34797688      13.02778586       8.52402912       0.02195519      -0.01755191      -0.02145578
H        6.23532420       9.97702529      10.90686201      -0.00533694       0.01573013       0.00644994
O        6.00418103       7.66764549       1.30186742       0.00062895      -0.00492904      -0.00296776
O        6.41168433       8.95749623      -0.45391075      -0.00447440       0.00896429       0.00667837
C        4.22230619       9.03575440       0.55686899      -0.00785834      -0.01754579       0.00096557
C        5.62726699       8.57994773       0.39072656      -0.00266075      -0.00369573       0.00090826
H        3.54295785       8.20778206       0.34313992       0.00022094      -0.02519530       0.00602019
H        4.04685353       9.31497690       1.59712380      -0.00490009      -0.00860571       0.00026232
H        4.00948758       9.86136181      -0.11292293      -0.01541023      -0.02473503      -0.00513189
H        6.99218846       7.59096059       1.28689626       0.00208381       0.00267293       0.00099936
O        3.26993990       4.19995454      12.40406743       0.01607639       0.00386381       0.02408839
O        3.56774896       2.02448495      11.96906261       0.01501602       0.00773776       0.00966494
C        5.49560683       3.43682583      12.15470267       0.01475197       0.00643684       0.00165406
C        4.03240651       3.11743298      12.17233255       0.01427197       0.00466758       0.00951973
H        5.83864890       3.44266211      11.11814206       0.01044779      -0.00234677       0.00075689
H        5.70623865       4.40379295      12.60399981       0.01723619       0.00886193      -0.00523379
H        6.03269361       2.64079124      12.66558975       0.01615382       0.00957096       0.00530791
H        2.35027186       3.89492456      12.42237634       0.01708159       0.00186789       0.03411326
O        1.65456614       8.97714812       6.92204092      -0.00371826       0.01774564      -0.00425045
O        3.13426945       7.30904009       7.02221299      -0.02167264       0.00332594       0.01978645
C        3.91284144       9.57481698       7.29188665      -0.00139380      -0.00169533       0.00593632
C        2.91785483       8.49845520       7.06854170      -0.01028261       0.00656796       0.00819150
H        3.99178172      10.22195085       6.41119576       0.00156508      -0.00324225       0.00592381
H        3.60143676      10.21229162       8.11884372       0.00363117       0.00183762       0.00496981
H        4.88254804       9.13848183       7.50534192      -0.00488155      -0.00823583       0.00593929
H        1.09306818       8.19991719       6.79147485      -0.01144975       0.02242419      -0.00087930
O        7.03240990       6.51005167       8.62525435      -0.00617424      -0.00429710       0.00235584
O        7.91733650       4.93710046       9.93739644       0.01924865      -0.00015724      -0.01064098
C        8.49204842       7.21960535      10.33130458      -0.00418940       0.00424826      -0.00389209
C        7.77554956       6.12258663       9.61621447       0.00419547      -0.00001514      -0.00489355
H        9.28215794       7.59725343       9.68036708      -0.00724716       0.01138873      -0.00295454
H        7.83170058       8.05619655      10.54220239      -0.01107767      -0.00172606      -0.00304817
H        8.93088355       6.83934713      11.24900404      -0.00077625       0.00762426      -0.00440006
H        6.69281609       5.70946986       8.07420609      -0.00163396      -0.00524595      -0.00076794
O       10.84203951       7.89508426       1.05527545       0.00028497      -0.00930285      -0.00022058
O        8.63130110       8.00656450       1.31068106       0.00066812       0.00279880       0.00329702
C        9.76449352       5.95475964       1.85280914      -0.00697100      -0.00056505       0.00923705
C        9.65015010       7.36346647       1.38410377      -0.00147289      -0.00321876       0.00414734
H       10.61747803       5.45183226       1.40442788      -0.00919566      -0.00538832       0.01061964
H        9.90098842       5.96904181       2.93609701      -0.00626259       0.00179275       0.00918618
H        8.84115049       5.42030604       1.64978036      -0.00912583       0.00203469       0.01271103
H       10.72641015       8.84148669       0.86862448       0.00431165      -0.00953615      -0.00444518
O        7.22958408       2.94528384       8.39886628      -0.03145614      -0.00178564       0.01787823
O        6.25665097       4.54841366       7.17760067       0.00489178       0.00153077      -0.00411823
C        6.03782181       2.27104723       6.48298025       0.00114855       0.00538063      -0.00516868
C        6.50071305       3.35618826       7.37442761      -0.00643885       0.00161076       0.00121017
H        6.87857248       1.99079648       5.82772167       0.00320229       0.02509467      -0.00991033
H        5.77188958       1.38363222       7.04891471       0.01016947      -0.00441712      -0.01720803
H        5.18748956       2.60116981       5.89942283      -0.00174223       0.00484460      -0.00175032
H        7.49368097       3.73214214       8.95466628      -0.01779446       0.00058538       0.00859731
O        3.80959458       2.91365912       8.50105207      -0.02097854      -0.01042873      -0.02791870
O        1.77958293       3.38272691       9.32866948      -0.00573039      -0.03312159       0.01924528
C        3.48216722       5.09793188       9.29504892      -0.01428059      -0.02282715       0.00350635
C        2.90931009       3.73692892       9.07184309      -0.01069540      -0.02281031      -0.00181395
H        4.44277227       5.03646467       9.80481510      -0.00716881      -0.02103284      -0.00800509
H        3.66632510       5.57246816       8.32978089      -0.02571933      -0.01542041       0.00497466
H        2.79493329       5.71130238       9.86839808      -0.00877073      -0.02728634       0.01571482
H        3.35668342       2.09863121       8.23455939      -0.01808345      -0.01000866      -0.02946017
O        7.86114712       9.23002543       7.78408626      -0.00980163       0.01396567      -0.01976109
O        9.28895439       9.18509158       6.05327290       0.00683144      -0.04012507      -0.00135767
C        9.97446089      10.21045666       8.10203791      -0.00316936       0.00216782      -0.02355444
C        9.02345560       9.50920815       7.19244942      -0.00069964      -0.01250169      -0.01617932
H        9.45282098      10.77742975       8.87000587      -0.00366979      -0.00251608      -0.02161524
H       10.58563499       9.45040701       8.59944774       0.01291406       0.01199214      -0.02957962
H       10.64084600      10.84490033       7.52741082      -0.01805705       0.00998199      -0.03191248
H        7.32671662       8.65827174       7.17468087      -0.01069241       0.00698558      -0.01311226
O        7.18829803       6.73978519       4.03043096      -0.00975010       0.00942504       0.00473791
O        6.70838427       7.54023733       6.04958253      -0.02272427       0.01350334      -0.00149608
C        6.74676959       9.07956443       4.21114602       0.00300400       0.01174212      -0.00284424
C        6.85823664       7.75268258       4.86327656      -0.01090749       0.01152647      -0.00045675
H        7.63209927       9.65085841       4.50156808       0.01340622      -0.00149841      -0.01113799
H        6.71110711       9.00177427       3.13219921      -0.00517820       0.00873810      -0.00226547
H        5.87869050       9.61898789       4.58830053       0.01369552       0.02515206       0.00121155
H        7.31239904       5.94246044       4.57670100      -0.01517651       0.01076335       0.00685298
O        3.10221150       3.10029926       4.82511872       0.01743507      -0.00861901      -0.04884183
O        2.70213659       2.78185280       2.63652454       0.01225770      -0.01518786       0.00762308
C        4.90521559       3.42098501       3.34672293       0.03256345       0.01382452      -0.01874913
C        3.46056689       3.07702952       3.52739478       0.00924253       0.01437983       0.00142562
H        5.23498532       4.17007533       4.06388318      -0.01146500      -0.00877628       0.00081268
H        5.48483513       2.51122257       3.52427327       0.00791893       0.00034083      -0.02042517
H        5.07473735       3.76609933       2.33389763      -0.00473509       0.02453477      -0.02547365
H        2.33545408       2.51459277       4.92645625       0.05003428      -0.08546453      -0.00875343
O       12.03969118       7.70022915       3.91589838       0.00205906       0.03015971       0.01505414
O       13.08431566       9.05899400       2.47101744      -0.01129889       0.01453258      -0.00819373
C       11.96000760      10.01054774       4.38825212      -0.00018528       0.03483909      -0.01457447
C       12.43728035       8.93778174       3.48216894      -0.00620431       0.02311138      -0.00002170
H       10.88526138       9.93197291       4.55349925       0.00119546       0.03368635      -0.00622530
H       12.43413735       9.88438726       5.36343623       0.00674660       0.04821441      -0.01606618
H       12.19267768      10.98871382       3.98715313      -0.00524827       0.03156513      -0.02731466
H       12.43571547       7.06579629       3.30211117      -0.00262886       0.02280565       0.02127934
O       12.03380976       6.29397908      11.63069290       0.00557289      -0.00985307       0.00286871
O       11.99858296       8.05667787      10.25441322      -0.02066236      -0.01115310       0.00547420
C       12.09891368       5.84173519       9.31204815       0.00256369      -0.00683141       0.00209016
C       12.05176210       6.85684544      10.40317627      -0.00527808      -0.00657290       0.00414631
H       12.71516126       4.98310047       9.57179901       0.00535510      -0.00359541       0.00252882
H       11.08530545       5.47477879       9.12749221       0.00555947      -0.01170409       0.00008656
H       12.46126238       6.29300097       8.39379880       0.00070821      -0.00353257       0.00333422
H       11.92080257       7.00603274      12.28588385      -0.00128344      -0.01234382       0.00343075
