148
Lattice="12.004634286483705 0.0 0.0 0.0 12.004634286483705 0.0 0.0 0.0 12.004634286483705" Properties=species:S:1:pos:R:3:forces:R:3 energy=-463762.625 stress="-0.0005782937514595687 0.0001657731263549067 -0.0007143091061152518 0.0001657731263549067 0.00048820505617186427 -0.0004114483599551022 -0.0007143091061152518 -0.0004114483599551022 -0.0013885117368772626" pbc="T T T"
Tm      15.51382751      10.38835190       0.61753962       0.00143379       0.00195831      -0.00855845
O        3.73584585      11.03393805       5.68757638      -0.01221162      -0.01211605       0.01189464
O        3.71057572      12.10427585       3.75272724      -0.00139207      -0.00847295      -0.00963014
C        5.63284307      10.74656881       4.24965111       0.00285172       0.00384134      -0.00182617
C        4.28373029      11.27823391       4.63483073       0.01965609      -0.00022385      -0.03635985
H        5.65207936      10.44994832       3.20597749       0.01026262       0.00156153      -0.00487527
H        5.89286129       9.90511966       4.88302757       0.01046757       0.00502649      -0.00329515
H        6.37448358      11.53631801       4.38669510       0.00114615       0.00757395      -0.00392102
O        7.79537123      11.84676576       9.44633699      -0.02661955       0.00151711       0.01281846
O        6.05631099      12.94021845       8.55819307      -0.00818110       0.01817000       0.00103347
C        6.99749700      11.18727360       7.28854750      -0.02267006       0.00329041       0.01111054
C        6.94921237      12.04620852       8.53799821      -0.01814616       0.00767237       0.00826013
H        7.38777976      10.19413076       7.50005066      -0.02207628       0.00390097       0.01295514
H        7.67012365      11.66239350       6.56877510      -0.02814201       0.00203378       0.00612047
H        6.00930643      11.12734957       6.84394173      -0.02229208       0.00237157       0.01152414
O        3.41510271       9.33179638       2.58216354       0.00808495      -0.00851448      -0.01310314
O        1.50466686       9.94334057       1.64597763       0.00704941       0.00264567      -0.00093016
C        1.45651993       8.98183248       3.86473359       0.01379061      -0.00107309      -0.00303191
C        2.15444678       9.44424701       2.63439179       0.01121935      -0.00233484      -0.00657743
H        0.38269234       9.14000495       3.81927055       0.01375467      -0.00116043      -0.00107083
H        1.88123496       9.51523070       4.71709871       0.01553787       0.00102498      -0.00592130
H        1.70157381       7.92677289       3.99665561       0.01449704      -0.00080132      -0.00193147
O        3.32053800       1.62619990      11.55826189      -0.00623859      -0.00394061      -0.00806218
C        3.35914985       0.47045393      10.76143251      -0.01617105      -0.00462425      -0.00607468
H        2.50826202      -0.21725740      10.99436420      -0.01607937      -0.00207800       0.00138362
H        4.32815479      -0.05583876      10.82135931      -0.01699568      -0.00711873      -0.01391665
H        3.23884193       0.74846925       9.71543668      -0.02396864      -0.00551327      -0.00564167
H        3.77540490       1.41493049      12.38845749       0.00202015      -0.00364065      -0.01146191
O        4.36248219       7.09316289       7.94720641       0.01166814      -0.00402343      -0.00058714
C        5.11173252       8.26917619       7.70103173       0.01060478      -0.00343236       0.00115387
H        5.24383017       8.88203103       8.60076839       0.01773996      -0.00925817       0.00374523
H        4.56063322       8.86327213       6.97166850       0.00561062       0.00125700       0.00871068
H        6.10531305       8.04783142       7.29742339       0.00695118      -0.00152937      -0.00818716
H        4.84305679       6.48326199       8.52736193       0.01245441      -0.00347675       0.00014354
O        7.79109335       7.72230991      11.11770657       0.00473219       0.00202554       0.00698349
C        6.81764920       6.93991124      10.46921320       0.00980398      -0.00190678       0.00437155
H        6.49288260       6.16261247      11.16178419       0.01730908      -0.00844929       0.00042140
H        7.21038511       6.45768178       9.56566107       0.01195170       0.00682628       0.00098157
H        5.94057359       7.53299676      10.19576637       0.00472677      -0.00741640       0.00903632
H        8.16864783       8.39367998      10.49915234      -0.00068633       0.00657945       0.00881216
O        7.95734277       7.42716687       1.75816148       0.01640078       0.00570208       0.00344527
C        7.46846421       8.61033135       2.34547064      -0.00746068      -0.00510943       0.00396746
H        6.71526665       9.09401416       1.71100751      -0.01373971      -0.01915871       0.00165567
H        8.25988857       9.34877832       2.52225744      -0.02212256       0.00914940       0.00667948
H        7.00814371       8.35895647       3.30019183      -0.00599593      -0.01543848       0.00144202
H        7.97275258       7.56784607       0.78831877       0.01332440       0.00669361       0.00404733
O        7.76379574       4.88689968       5.45268641      -0.01302516       0.00294223      -0.00118095
C        7.41445616       5.17487413       6.79815360      -0.00878684       0.00120565       0.00003201
H        7.97407459       6.03592913       7.17408943      -0.00796303       0.00113565      -0.00083975
H        7.61518730       4.32185723       7.45512368      -0.00644181       0.00076717      -0.00122690
H        6.34849734       5.40713225       6.84751551      -0.00866163       0.00078646       0.00359051
H        8.65000222       5.27752106       5.28276798      -0.01197362       0.00008944      -0.00246475
O        4.63028443       4.78482196       9.48986612       0.01612213      -0.00005379       0.00555064
C        3.64080157       4.13805249       8.68555135       0.01258741      -0.00107424       0.01088718
H        2.66057134       4.21025020       9.16389203       0.01489377      -0.00151697       0.01547624
H        3.88706281       3.08315612       8.55391133       0.01271376      -0.00084367       0.00988918
H        3.59050725       4.61800819       7.70590412       0.00790292      -0.00101930       0.01137501
H        5.32774728       4.09079972       9.72919163       0.00992906      -0.00298697       0.01636496
O        8.70048117       9.43750028       9.32817175      -0.01615304       0.00651792       0.00511348
C        9.83932522       9.39331299       8.50121174      -0.01343307       0.00741103       0.00927341
H        9.88091440      10.27135443       7.85120097      -0.01430355       0.00427341       0.00495315
H        9.79648029       8.50516189       7.86974287      -0.00778297       0.00386754       0.01377413
H       10.76919395       9.34130865       9.08356111      -0.01516414       0.01396089       0.01253480
H        8.40294056      10.39445488       9.43881821      -0.01891419       0.00592984       0.00588358
O        3.55342657       6.28922851       4.11947157      -0.01340163      -0.00982395      -0.00281380
C        4.85698797       6.84408721       4.05378311      -0.01479810      -0.00647736      -0.00197300
H        5.63341980       6.07734186       4.13183736      -0.01323318      -0.00172490       0.02062421
H        4.97963399       7.53639298       4.88955073      -0.02567472       0.00989735      -0.01483193
H        5.01004029       7.39708805       3.12453967      -0.00786350      -0.02394763      -0.01045126
H        3.61470578       5.40093732       3.71416888      -0.01045164      -0.01067695      -0.00128216
O        3.73528005       3.73841185       3.24788648      -0.00660205      -0.01074339       0.00079170
C        2.66014718       3.20505944       4.01263665      -0.00586399      -0.01105659       0.00159326
H        2.22203698       2.33780432       3.51513368      -0.00118749      -0.01565367       0.00623465
H        1.89634964       3.97826814       4.12304479      -0.00892222      -0.01341960      -0.00431934
H        2.98696367       2.89834772       5.00914045      -0.00636986      -0.00341523       0.00417167
H        4.58599835       3.44467818       3.64670940      -0.00630157      -0.00955562       0.00095987
O        0.05287841      10.66646174       6.37705432       0.00620204      -0.00966651       0.01092207
C        0.42366896      11.76191580       5.52589418      -0.00095562      -0.00911805       0.00877865
H        1.48580081      11.99262949       5.61799676      -0.00134706      -0.00867373       0.00552125
H       -0.18223850      12.64435970       5.74549613      -0.00107057      -0.00926280       0.01040257
H        0.21945426      11.45406215       4.50349838      -0.00446694      -0.00986461       0.00988838
H        0.06114711      10.98979327       7.28161385       0.00872983      -0.01005808       0.01093608
O       10.02413403       6.31367994       5.32094832      -0.00730991      -0.00666994      -0.00434756
C        9.49052976       7.60088140       5.02056098       0.00140153      -0.00238734      -0.00082076
H       10.23227268       8.38917125       5.18253038       0.00673649      -0.00821763       0.00212304
H        8.60813940       7.82503649       5.63133956       0.00292784       0.00165490      -0.00017437
H        9.19792454       7.59615096       3.97490773       0.00205307       0.00302976      -0.00087717
H       10.31045483       6.31144488       6.26424034      -0.00457441      -0.00893569      -0.00542292
O       10.78862494       6.25384870       7.90043050      -0.00241883      -0.00249159      -0.00695553
C       11.32549874       4.96353469       8.18750202       0.00192878      -0.00013462      -0.00437204
H       11.88056296       4.96258046       9.12719795      -0.00105113       0.00282302      -0.00264379
H       11.96905975       4.60602818       7.37808273       0.00590466       0.00218029      -0.00203666
H       10.48609519       4.27826779       8.29591500       0.00437945      -0.00354630      -0.00684911
H       11.50780459       6.92171591       7.89734655      -0.00453247      -0.00046653      -0.00840733
O        6.05891258       3.03742908       4.44685020      -0.00652733      -0.00643152       0.00278872
C        5.93255094       2.36559979       5.69790525      -0.00629643      -0.00375886       0.00386861
H        5.56137106       3.02635914       6.48478654      -0.00664003      -0.00254840       0.00261065
H        6.89024373       1.95537328       6.02325101      -0.00625548      -0.00271368       0.00493912
H        5.22363101       1.55006369       5.57912200      -0.00584859      -0.00448516       0.00574078
H        6.70407505       3.75874281       4.59650668      -0.00862718      -0.00440415       0.00190729
O        0.81493893       8.02142019       7.44584792      -0.00616860       0.00085312      -0.00151882
C        1.54492618       7.08723047       6.63622420       0.00259246       0.00514318       0.00168710
H        0.91542356       6.68226183       5.83822192       0.00893721       0.00257581      -0.00170085
H        1.86342543       6.28103667       7.29133773       0.00431285       0.00642353       0.00212204
H        2.43955253       7.52824235       6.20569871       0.00193936       0.01093765       0.00593102
H        0.61792872       8.80977781       6.91470656      -0.00676896       0.00023635      -0.00153622
O        4.74138460      -0.12151829       1.34055014       0.00470859      -0.00102773      -0.01214186
C        5.98094557       0.59017603       1.27769955       0.00531951      -0.00229344      -0.01131067
H        6.82769252      -0.10179641       1.27937409       0.00455287      -0.00314936      -0.00459226
H        6.07593463       1.26629565       2.13365340       0.00295777       0.00136930      -0.01404303
H        6.03474880       1.18749127       0.36174617       0.00873741      -0.00680375      -0.01410225
H        4.19228623       0.08047238       2.87010356       0.00349802      -0.00550278      -0.00827201
O        9.14024930      10.29528882      12.38137366       0.02441257      -0.01017058       0.02016333
C       10.12556533      11.13023813      11.80877818       0.00252995       0.00041384       0.00368857
H       10.77082529      10.57654827      11.11456937       0.00164354       0.00723502      -0.00202513
H       10.76165283      11.59637774      12.57317666       0.00498047       0.01477772      -0.00801438
H        9.61368284      11.90981079      11.24769682      -0.01687384      -0.01081008       0.00722331
H        9.60225831       9.55235833      12.79717598       0.03966738       0.00127974       0.02296781
O       10.99152695       8.48425063       1.58763952       0.02083030       0.01203799       0.00395198
C       11.20121555       7.16002110       2.06705241       0.01067250       0.00865734      -0.00361370
H       11.90691264       6.61043125       1.43485535       0.01023692       0.00863634      -0.00388047
H       10.23185471       6.66655175       2.04477951       0.00800094       0.01513369      -0.01074646
H       11.56435307       7.14531853       3.09641298       0.00580738       0.00070497      -0.00206631
H       11.83085723       8.97022263       1.58068799       0.02304330       0.00843108       0.00452507
O        3.75935587       6.01674741      -0.32111399       0.01065922       0.01676128      -0.00919008
C        2.63867376       5.31572620       0.23216083       0.01447427       0.01497186      -0.00431486
H        2.79809000       4.23971494       0.15502022       0.01931304       0.01542088       0.00236481
H        1.70866040       5.57743184      -0.28281361       0.01316109       0.00713862      -0.00552316
H        2.56405009       5.58167674       1.28541843       0.01343081       0.02073371      -0.00585261
H        4.07013998       5.54242219      -1.13548796       0.01426850       0.01163918      -0.00497003
O       10.88725184       4.61605844      11.46758171       0.00790346       0.00515693      -0.00128633
C        9.92120814       5.65764460      11.30876775       0.00836118       0.00484598      -0.00398229
H       10.25999532       6.60627064      11.72632536       0.01504551       0.00927031      -0.02090321
H        8.96745473       5.39662357      11.76931357       0.01348123       0.01334824       0.01027982
H        9.77013449       5.79572976      10.24095013      -0.00392448      -0.00908139      -0.00354409
H       10.90944625       4.37748282      12.39711574       0.01675728       0.01604556       0.00100163
O        3.74737689       8.52775241      -0.58822587      -0.01135659       0.01305187      -0.02854161
C        2.81246836       8.70334040      -1.67664269      -0.01700969      -0.00080153      -0.02536447
H        2.95544416       7.92573055      -2.42549803      -0.00647206       0.00199285      -0.02582443
H        3.01961230       9.65898452      -2.16469340      -0.03408079       0.00269753      -0.02398682
H        1.78038526       8.68489594      -1.31261110      -0.01500759      -0.01662290      -0.02269711
H        3.78783414       7.51113855      -0.40692116      -0.00248960       0.01439998      -0.02359732
O        6.30412911       2.93463040      10.06888646       0.00097752      -0.00422417       0.02966289
C        7.69341097       3.15472949      10.23779824       0.00241727       0.00001620       0.01145003
H        7.95290200       4.17332872       9.94362023      -0.00372362      -0.00211644      -0.00047595
H        8.27142503       2.44812362       9.63843480      -0.00386339      -0.00486973       0.01181966
H        7.97886544       3.01709915      11.28486940       0.01431950       0.00991674       0.00904149
H        6.19121558       2.07924492       9.52003476      -0.00328980       0.00456273       0.01879397
