150
Lattice="17.67077734280521 0.0 0.0 0.0 17.67077734280521 0.0 0.0 0.0 17.67077734280521" Properties=species:S:1:pos:R:3:forces:R:3 energy=-1867341.75 stress="8.426066051470116e-05 6.620268322876655e-05 6.947107976884581e-05 6.620268322876655e-05 -8.990724745672196e-05 -9.300880992668681e-05 6.947107976884581e-05 -9.300880992668681e-05 8.822304516797885e-05" pbc="T T T"
Tm      16.71240748      16.99129761       0.63752557      -0.01708052      -0.00461471      -0.01556227
Cl       7.80222585      15.99593130       6.86130013      -0.00623560      -0.00820506       0.00776684
O        7.54645041      14.55556127       6.99705508       0.01405144       0.03551531       0.01986371
O        9.15315418      16.37589403       6.42239339       0.03674710       0.00748670      -0.00527531
Cl       6.46826576      16.06917773       4.62275351       0.00681579      -0.00784087      -0.00399870
O        5.15598518      16.56231135       5.10948872      -0.00351584       0.01127189       0.00476873
O        6.56204671      14.60861619       4.45114068      -0.00539068       0.01180053       0.01235481
Cl       1.90573982      18.39954095       7.74384087       0.00648844       0.00257021       0.00298464
O        2.26246224      18.70153598       6.30285337       0.00767538       0.00786793      -0.00560141
O        0.44414719      18.43694012       8.05517634       0.01944983       0.00103265       0.00405496
Cl      12.24228327      12.36450066       7.05129524      -0.00668281      -0.00014687       0.00089979
Cl      14.93528532      13.40518939       7.35271217      -0.00449106      -0.00469647      -0.00352804
Cl      13.89962143      11.46902210       9.25724597      -0.00509281      -0.00180361      -0.00098991
Cl      12.85865592      14.18460407       9.21857595      -0.00029282      -0.00069633      -0.00003086
C       13.47139993      12.84682676       8.22643160      -0.00426301      -0.00161872      -0.00126556
Cl      17.89199200      13.37475515      12.92918594      -0.01093975      -0.00169903       0.01628610
Cl      14.99796811      13.20511906      13.11643147      -0.01381840       0.01608203      -0.00855111
Cl      16.25426831      14.04214954      10.63663255       0.00959622      -0.00315388      -0.00185084
Cl      16.29911508      15.79818566      12.94008302       0.00750765       0.00787166      -0.01069427
C       16.35872630      14.11490320      12.40050590      -0.00210205       0.00429548      -0.00163391
Cl       9.94415836       5.44519637      10.23393818      -0.00045151      -0.00461669      -0.00052616
Cl       9.99439158       6.21753417       7.43833767      -0.00905827      -0.00831880      -0.00117952
Cl       7.70992411       6.90094270       9.09375795      -0.00618663      -0.01038402       0.00364916
Cl       8.17693743       4.14337970       8.33716065      -0.00354522      -0.01061487       0.00614412
C        8.95389906       5.67692753       8.77872049      -0.00480405      -0.00847423       0.00193306
Cl       0.15865225      10.40803925      10.31370605      -0.00689811      -0.00081129      -0.00410190
Cl       2.46745325       8.67142485      10.01258525      -0.00759715      -0.00126025      -0.00887769
Cl       0.97171638       8.67034016      12.49645306      -0.00019057       0.00196546      -0.00432891
Cl       2.59093487      10.96183757      11.78177599      -0.00271317       0.00126314      -0.01223585
C        1.54392459       9.67825331      11.15085793      -0.00411647       0.00027198      -0.00740260
Cl      10.26387202       1.93460725       5.53852078      -0.00678432      -0.00601712      -0.00686519
Cl       8.63313148       4.07197895       4.46128768      -0.01365743      -0.00254482       0.01317945
Cl       7.36490658       1.68595962       5.51316860      -0.00744030      -0.00985365       0.00359040
Cl       8.85276095       1.56221241       3.02473249      -0.01756577       0.00467768      -0.00209904
C        8.79079126       2.32157386       4.64126521      -0.01122370      -0.00295278       0.00182465
Cl      12.80481260      16.73827861      13.99943541       0.01244149       0.01209590       0.00933695
Cl      11.90732056      14.73484875      15.88059084       0.03810880      -0.00565623       0.00099275
Cl      11.95810850      17.52828589      16.65158550       0.02367669      -0.00887651       0.01972563
Cl      14.49981913      16.06067009      16.26817085       0.03066143       0.00749213      -0.00623483
C       12.73986606      16.27634595      15.69407692       0.02304766       0.00208107       0.00637771
Cl      11.34325234       8.63557085       4.84392297      -0.00692704       0.00559078      -0.00317014
Cl      13.89940980       8.91537844       6.18310387      -0.01429147       0.00027938       0.01126635
Cl      13.35104772      10.42889597       3.76795602       0.00176015       0.00416565       0.00937410
Cl      13.75322271       7.55631832       3.62587256      -0.00141971       0.00412703       0.00876011
C       13.08710281       8.87555229       4.61192616      -0.00537266       0.00372667       0.00645994
Cl       6.37785233       4.27783658       1.40758265       0.00536883       0.00309056       0.00443084
Cl       3.85340296       5.35921758       2.34369122       0.00113466      -0.01213895       0.01061313
Cl       5.35108616       6.74312270       0.28021007      -0.01683925      -0.00806603      -0.00019497
Cl       6.33322896       6.70497726       3.00808693      -0.00596476       0.00849682      -0.00411320
C        5.48108201       5.77327860       1.75893180      -0.00407699      -0.00197074       0.00260717
Cl      14.24839810       0.10470462       2.03794934       0.01347693       0.00891131       0.02880458
Cl      15.91883670       2.09426895       0.71197784      -0.00709456       0.00306621      -0.01031238
Cl      14.90123143       2.57252172       3.42784641       0.01339463       0.03118612      -0.00653206
Cl      13.09800009       2.65497874       1.17266377      -0.00458288      -0.00345480       0.01052920
C       14.49568253       1.89674221       1.88140453       0.00621602       0.01066649       0.00465277
Cl      12.13445208       6.14380051      18.14247045      -0.00298728       0.00529222       0.00061074
Cl      12.51794419       9.00022156      17.89743070       0.00445975       0.00401264      -0.00543152
Cl      11.92040334       7.41817603      15.54298363       0.00168651       0.00015491      -0.00225717
Cl      14.50573389       7.18042198      16.82781619       0.00041318      -0.00406149       0.00022104
C       12.77110005       7.43739656      17.08969007       0.00087694       0.00112667      -0.00182912
Cl       7.32549560       8.82032023       5.85009280       0.00810050      -0.00553840       0.00783882
Cl       5.60484801      11.05277795       6.54921961       0.00480762      -0.00155616      -0.01280046
Cl       6.33733124      10.61277881       3.78436021       0.00849745      -0.02400031      -0.00847095
Cl       8.32887073      11.53289415       5.68251126       0.00510603      -0.00578099      -0.01363841
C        6.89995109      10.50921023       5.46500347       0.00625074      -0.00931936      -0.00708692
Cl       9.23837291       2.59109211      13.37490171       0.01229037      -0.00781739      -0.01398861
Cl      11.61136851       4.26005707      13.26384113       0.00088081       0.01063136       0.00634374
Cl      10.44534513       3.57026431      15.82981809      -0.01025414      -0.00808786      -0.00331235
Cl       9.06146623       5.40165712      14.05660099      -0.01161665      -0.01079682      -0.00545215
C       10.08653763       3.95654516      14.12212609      -0.00219265      -0.00402305      -0.00412013
Cl       7.35148378      13.62497020      -2.21139805       0.00255518       0.00779912       0.01077178
Cl       7.35613935      16.12900646      -0.74099439      -0.01873324       0.01639599      -0.01174967
Cl       8.42361288      13.72753814       0.48427059       0.00376430       0.03585768       0.00862959
Cl       5.56265711      13.98027898       0.04542995       0.00200829      -0.00066840       0.01230618
C        7.18557174      14.36461552      -0.60830850      -0.00426493       0.01605023       0.00575808
Cl       0.73345893       5.99885380      18.25293936      -0.00940191       0.01125205       0.00615191
Cl      -0.49067090       5.03117755      15.81054405      -0.00217764      -0.00732386       0.01074091
Cl       2.35031006       5.58323424      15.87181947      -0.00204527      -0.00278503       0.01379133
Cl       0.45191887       7.77143551      15.97713887      -0.00417027      -0.00538993      -0.00916758
C        0.76693734       6.09005245      16.47835659      -0.00448892      -0.00098264       0.00550462
Cl       9.34119380       9.60371864      11.62981061       0.00695338      -0.00297692       0.00000706
Cl      10.16312252      12.10159689      10.40532590       0.00053343       0.00136817       0.00496192
Cl       7.69058912      10.83140665       9.58292221       0.00775927      -0.00802808      -0.00318190
Cl      10.24045428       9.64456877       8.87305230       0.01448178       0.00355890       0.00212592
C        9.36071884      10.54649708      10.12186835       0.00727170      -0.00150494       0.00091858
Cl       2.82530339       3.39416166      12.42050915       0.00033754      -0.00034105       0.00729434
Cl       0.44400729       4.99756026      12.00315793       0.00692609       0.00479490      -0.01358665
Cl       0.24336856       2.38700070      13.26889124      -0.00778994       0.01299965       0.00039268
Cl       0.84874494       2.58476782      10.44634667       0.00765999      -0.00615072       0.00269419
C        1.09131679       3.34515313      12.02535580       0.00178909       0.00283176      -0.00097346
Cl       4.10078132      14.73291142       7.43372671       0.00305162      -0.00823611       0.00095642
Cl       4.48482114      13.51737864      10.02917257      -0.00632522       0.00206002       0.00729847
Cl       2.80960510      12.20050597       8.06188168       0.00004519      -0.00512502       0.00643986
Cl       1.89605730      14.63328259       9.32234028      -0.00256300       0.00111011      -0.00524229
C        3.32777402      13.77493683       8.71682281      -0.00145449      -0.00249181       0.00179371
Cl       9.47882860      10.53232069      -1.29032245       0.00052428       0.00529918       0.00030863
Cl       8.90696822       8.09086832       0.16366038       0.00217023      -0.00281820      -0.01155071
Cl       6.98884791      10.26712911       0.16552131       0.00309342      -0.00252452       0.00353573
Cl       9.49211944      10.52475337       1.61584757       0.00590314      -0.00901403      -0.00070655
C        8.71476084       9.85383716       0.16308747       0.00324798      -0.00241252      -0.00194955
Cl      10.66326876      16.23804411       3.14654630      -0.01023623       0.00639552      -0.00651073
Cl      12.94039890      15.07698286       4.50900739      -0.01813237      -0.00380154       0.01988965
Cl      12.49674505      14.53505189       1.68743769       0.00479866      -0.00624458       0.02835490
Cl      10.73449006      13.38674588       3.68235529      -0.03654253       0.00974792       0.00503024
C       11.70163660      14.81269414       3.27051519      -0.01944190       0.00074822       0.01435181
Cl       3.03737551      14.48696561       3.45566551       0.00901186       0.00406951      -0.01297235
Cl       1.00829274      13.85648650       5.36888749       0.01043868      -0.00660914      -0.01542884
Cl      -0.80175949      15.23821704       2.35262952       0.01223984      -0.02093732      -0.02137496
Cl       1.92268687      16.56509031       5.09627030       0.00480775      -0.00336361      -0.00670362
C        1.96688557      14.98471241       4.62616456       0.00628616      -0.00180039      -0.01315815
Cl       1.38446883       0.44800861       1.89317225      -0.02272910       0.01453030       0.01256573
Cl       3.99794583       1.48908038       2.61254608      -0.00227368      -0.00822794      -0.00706536
Cl       2.90086357       2.14955883       0.01069313      -0.02355146       0.00950944       0.00635999
Cl       3.83187762      -0.53888243       0.55609138      -0.03690732       0.00143084      -0.01346728
C        3.10968200       0.90608837       1.22121104      -0.01978251       0.00360298      -0.00069255
Cl      13.38826049       4.65500262       6.18421586       0.00271642      -0.00580379      -0.00769261
Cl      15.76791055       5.82286268       7.36593014      -0.00830770       0.00674689       0.00356104
Cl      15.40067093       2.94768463       7.39790296       0.01213506       0.00466949      -0.00810457
Cl      13.72837543       4.64176620       9.06157475      -0.00598747      -0.01290368      -0.00722039
C       14.56896079       4.51207322       7.51089645       0.00031875      -0.00195245      -0.00478995
Cl       6.55167836      -1.03525542      10.25465627       0.01221281       0.00020635       0.00154465
Cl       3.80581315      -0.32791038      10.87797757       0.01413208       0.01174209      -0.00697625
Cl       5.33539801       1.30170076       9.03332644       0.01953419      -0.00389963      -0.01599288
Cl       5.98794381       1.31003155      11.86240004       0.01842624       0.01387882      -0.01649603
C        5.41944751       0.31115897      10.50921923       0.01630472       0.00510377      -0.00885096
Cl      -0.61910663      10.83037060       5.14882922      -0.00048134      -0.00352496      -0.00554465
Cl       1.16478135       9.08860687       6.63106656       0.00113880       0.00153843      -0.00283250
Cl       2.13799661      10.47700308       4.27750514      -0.00070992      -0.00334961      -0.00692698
Cl       0.22764008       8.31534466       3.98972115       0.00167681      -0.00536610      -0.00113882
C        0.73173139       9.67165514       5.02354119       0.00038198      -0.00249733      -0.00406654
Cl       4.26919364       6.66347359       6.90436631       0.00051397       0.01009381       0.01389807
Cl       1.80858273       5.47534148       7.89450801      -0.00149715       0.00406711       0.00082950
Cl       4.29803983       5.04379456       9.31075144      -0.00561631      -0.00125694       0.00637805
Cl       3.85979243       3.79722484       6.72756499       0.00294538       0.01064330      -0.00088531
C        3.56019475       5.24666935       7.70896634      -0.00098278       0.00586832       0.00514236
Cl      14.91869980      11.75462749       0.36670632       0.00431657      -0.01887420      -0.01125088
Cl      17.91223544      16.20877586      -1.33626843       0.01014966      -0.00447793       0.00027147
Cl      17.07343385      12.66684783      -1.28731793       0.00473556       0.00060737      -0.00093895
Cl      17.59469399      10.92468020       0.93474266       0.00137937      -0.00433630       0.00125307
C       16.53077580      11.77268278      -0.01252117       0.00633901      -0.00213143      -0.00195366
Cl       4.22898729       9.09573287      15.00190842      -0.00109783      -0.00133777       0.00190699
Cl       4.82323821       7.13524654      12.94646819      -0.00896622      -0.00955051       0.00813323
Cl       6.92515021       8.06553905      14.72750916      -0.00446367      -0.01070961       0.00412893
Cl       5.84777583       9.83648284      12.70859735       0.00077830      -0.01403409      -0.00143111
C        5.45684071       8.53435992      13.83808330      -0.00324634      -0.00887340       0.00309306
Cl      14.69748016       6.32981997      12.94917002      -0.00118519      -0.00474879      -0.00127617
Cl      12.54310926       7.91588120      11.81678099      -0.00416797      -0.00783437       0.00006732
Cl      15.15357556       7.90553714      10.56220746      -0.00663435      -0.00717731      -0.00436014
Cl      14.78164623       9.22527699      13.11926365      -0.00297275      -0.00470933      -0.00495300
C       14.28816311       7.84506599      12.11076835      -0.00369757      -0.00616837      -0.00267890
