148
Lattice="17.57129291124306 0.0 0.0 0.0 17.57129291124306 0.0 0.0 0.0 17.57129291124306" Properties=species:S:1:pos:R:3:forces:R:3 energy=-1788841.5 stress="-0.0008365267422050238 0.00033180846367031336 0.00026275285927113146 0.00033180846367031336 -0.0016227926826104522 -0.00014034795458428562 0.00026275285927113146 -0.00014034795458428562 -0.0008321893401443958" pbc="T T T"
Tm      16.45433356      19.47456242       2.05779855      -0.00696912       0.00038356       0.00255898
O        0.95415383      17.45294698       9.15405661       0.01790352      -0.00207567      -0.00160670
O        1.84874013      17.52417206       7.19966273       0.01802278       0.00282156      -0.00062728
O        0.07530496      16.35773013       7.52889536       0.01205420       0.01072001      -0.00499344
N        0.96022806      17.11007101       7.96160700       0.01601169       0.00376768      -0.00310674
O        8.80225376      14.62942874       7.18252512       0.00338068      -0.00203729       0.00479037
O        9.79252788      16.53299693       7.00973621      -0.00636506       0.00041223      -0.01049160
O        7.64426634      16.44170477       7.10042282      -0.00613809      -0.01055539      -0.03014713
N        8.74036988      15.87200333       7.10006640      -0.00322774      -0.00427831      -0.01222901
O        6.44562649      15.14347264       4.33505504      -0.03482801      -0.00490904       0.00973082
O        6.37383064      16.46812140       2.60322610      -0.01405135       0.01285386       0.03927761
O        4.42868884      15.21185918       3.25135066      -0.01185270      -0.00449020      -0.01054659
N        5.98849749      15.72676306       3.42899100      -0.02467501      -0.00798260       0.02761563
Cl       4.44648246      14.46957530      11.07057119       0.01264858      -0.00455698       0.00018042
Cl       7.07302003      15.38821781      10.26187439       0.00235575       0.00823694      -0.01748826
Cl       4.69711746      16.25599357       8.80932148      -0.01054281      -0.00697529      -0.00400132
Cl       5.63408496      13.52784307       8.59193100       0.00158231      -0.00213844      -0.00434554
C        5.45711312      14.92369096       9.67811104       0.00155040      -0.00134807      -0.00643920
Cl      14.08895212      12.77425644       6.82507578      -0.00349605       0.00169206      -0.00450963
Cl      11.30890624      13.23124898       7.52591538      -0.00050026       0.00254369       0.00275199
Cl      13.10251104      11.98130578       9.43390597       0.00165662      -0.00517867      -0.00517786
Cl      12.26269769      10.53194993       7.06632119      -0.00501885       0.00356686      -0.00735605
C       12.67734065      12.14009214       7.71018102      -0.00186591       0.00066486      -0.00340800
Cl      14.07960641      11.00691127      14.60981033      -0.00449777      -0.00186244       0.00054100
Cl      15.42816732      10.55381549      12.09199713      -0.00974913       0.00081225      -0.00185812
Cl      14.01435246       8.37804691      13.38861421       0.01125076      -0.00565320       0.00892942
Cl      16.47216307       9.37849926      14.53159581       0.00685400       0.01616551      -0.00210887
C       14.99440290       9.83587159      13.65674229       0.00093735       0.00244042       0.00146713
Cl       1.50950402       6.56242647       1.92966357      -0.00401852       0.00501636       0.00776684
Cl       2.42932356       7.26675965      -0.73155756       0.00366640      -0.01283059       0.00592825
Cl       1.57965761       9.33712193       1.10523147       0.00939044      -0.00028074      -0.00630754
Cl      -0.36849937       7.51554902      -0.04229368       0.00452209       0.00245630      -0.00069562
C        1.29551440       7.65947707       0.57364616       0.00345487      -0.00141494       0.00165880
Cl       9.68956599       4.52630601       8.63302955       0.00427660       0.00606468       0.00006151
Cl       8.53819338       7.18541637       8.64769339      -0.00465002       0.00141823       0.00443935
Cl       6.92163532       4.91329917       7.86770424       0.00254983      -0.00312281       0.00486371
Cl       9.05328768       5.84380389       6.13430578      -0.00397471       0.00612172       0.00296199
C        8.55137232       5.62051404       7.82212409      -0.00042283       0.00272028       0.00295720
Cl      15.39445695       8.65510203       6.52821150      -0.01263431      -0.01392710      -0.00010490
Cl      15.80577713       6.26892341       4.92087045       0.00777586       0.00087947      -0.01664584
Cl      16.77380614       8.82373389       3.98771498       0.00190115       0.01168984       0.00975719
Cl      13.92337883       8.29906160       4.06280238       0.00421345      -0.00128943      -0.01154327
C       15.47571236       8.00324138       4.87758706       0.00014462      -0.00067255      -0.00438713
Cl       2.97228762       9.26433674      12.02148639      -0.01457289       0.00772572       0.02879283
Cl       0.92594647       9.89156977      10.06883783       0.00186574       0.00385275       0.01126441
Cl       3.51914243      11.17678805       9.92373593       0.01056731      -0.01460716       0.01520717
Cl       1.68414601      11.85960037      12.05669175       0.00263855       0.01643899      -0.00227320
C        2.28372053      10.55106307      11.01452268       0.00003191       0.00318370       0.01352734
Cl       8.89839592       0.62994043       3.53923097       0.00867572       0.00796908       0.00027022
Cl       9.32002187       3.48148648       3.43943626       0.00654610       0.00742751       0.00104108
Cl      11.02176237       1.81801662       5.10620828       0.00848073       0.00854369      -0.00056273
Cl       8.26253589       2.23995256       5.85016277       0.00918335       0.00593875       0.00052732
C        9.36352197       2.04413280       4.49350589       0.00824963       0.00677918      -0.00022919
Cl      11.94346412      14.23568963      13.25300090      -0.00084075       0.00432324       0.00549391
Cl      11.74272970      15.26928223      15.96310794       0.01315460       0.00139036       0.00648338
Cl      12.57913477      17.01025558      13.79890475      -0.00029495       0.00381631       0.00555815
Cl      14.34521210      14.90921594      14.73579678       0.00601611       0.00434937      -0.00688327
C       12.64740063      15.35553055      14.43608517       0.00448832       0.00325339       0.00274112
Cl      15.36275676      12.06489331       2.81285037       0.00206250       0.00498189      -0.00160289
Cl      14.35184959      12.88949604       0.21820252       0.01046418       0.00484782      -0.00411886
Cl      12.87192655      10.95958926       1.79195767       0.01023597      -0.00122733      -0.01313797
Cl      15.39702720      10.21255277       0.60140312       0.01672614       0.00806284      -0.00309986
C       14.48987388      11.53110014       1.35802898       0.00982752       0.00413365      -0.00557255
Cl      14.34756048       2.19105510       0.11493607      -0.00421083      -0.00054343      -0.00375255
Cl      13.46772020       2.84247108       2.84583581       0.00765926       0.00649751      -0.00313498
Cl      14.45450015       4.96266710       1.12261466      -0.00175981       0.00211069      -0.01422909
Cl      17.51295131       3.65877250       3.46546694      -0.00238058      -0.00159764       0.00058228
C       14.59407821       3.30083091       1.56108679       0.00125611       0.00419718      -0.01032841
Cl      16.31502704      18.43512576       4.71937326       0.00810070      -0.00978680      -0.00026473
Cl      13.79313887      17.10540229       5.32941894       0.00751561       0.00168866       0.00869948
Cl      16.15357302      15.53519791       4.74449087      -0.00097916      -0.00768811       0.00202936
Cl      14.87318301      17.04876488       2.62862483      -0.00697425      -0.00076826       0.00736594
C       15.26517027      16.98492036       4.39434842       0.00411555      -0.00403410       0.00427416
Cl       7.84815703       9.24766799       5.30589646      -0.01056385       0.00268793      -0.01040298
Cl       6.24405732       9.99060051       7.60546163      -0.01406153      -0.00409713      -0.01197851
Cl       5.43961947      10.82174408       4.95309684       0.00667053       0.02862611      -0.00747037
Cl       7.76483027      12.01068096       6.19639693       0.01190072      -0.00491613       0.01452233
C        6.83005406      10.52811448       6.01091328      -0.00094140       0.00607125      -0.00352658
Cl       9.26691848       2.97577186      13.68384408       0.00693795      -0.00271779      -0.00438482
Cl      11.05840642       4.64363101      12.12348149       0.00001013       0.00941516       0.00201318
Cl       9.88075364       5.67116615      14.56178356      -0.00640835      -0.00287649       0.00327438
Cl       8.22185341       5.25342681      12.22368110      -0.00223827      -0.00419998       0.00135466
C        9.60458626       4.63467271      13.14684266      -0.00039750      -0.00003530       0.00056525
Cl       5.16694025      11.32685554      -0.73670661       0.00930622      -0.01936336      -0.02458164
Cl       6.81868834      10.63227964       1.54679356      -0.00119668      -0.00423598      -0.01227137
Cl       4.86094353      12.75008758       1.76020157      -0.01619029      -0.01672357      -0.02985311
Cl       7.24267144      13.14640062       0.17533877      -0.00860962      -0.00496352      -0.01497489
C        6.01949585      11.95965866       0.69424727      -0.00342291      -0.01139025      -0.02090746
Cl       8.49604368       9.17781034      11.88607542       0.00761038      -0.00640634       0.00127143
Cl       9.41506487      10.73369521       9.62105126      -0.00209785      -0.00174600       0.00131744
Cl      11.16953316       8.77618386      10.84465272       0.00793207       0.00660899      -0.00103778
Cl      10.51406175      11.22498725      12.25477207      -0.00212422       0.00235671       0.00007772
C        9.89890450       9.98143465      11.14374064       0.00279269       0.00017961       0.00035742
Cl       0.11480095       1.92496969      15.49336416      -0.00563580      -0.00455683       0.00460559
Cl       2.48830412       3.52956488      15.88952475      -0.00644809      -0.00149906      -0.00949634
Cl       0.32535508       3.74223004      17.79593488       0.00403357      -0.00409909       0.00202221
Cl      -0.00124773       4.78415145      15.10382394      -0.01175961      -0.00540715       0.00381187
C        0.73268589       3.47355523      16.03222657      -0.00506806      -0.00362078       0.00035545
Cl       0.13775563      13.12429433       6.09767244      -0.01302034      -0.01704699       0.01211360
Cl       1.93340207      10.97671641       6.74586317       0.01859073       0.01107329       0.01112491
Cl       2.99046831      13.51369420       5.83976073      -0.01874769       0.02792454       0.01656061
Cl       1.60390809      11.75818416       3.98683147       0.01043056       0.01035006       0.01135999
C        1.67825594      12.35159918       5.67213908      -0.00039806       0.00802202       0.01246572
Cl      10.85327280      11.71014301      16.21400869       0.00099257      -0.00335521      -0.00027343
Cl      10.94913904       9.01632796      15.13507937       0.00821331      -0.00282788       0.00042239
Cl       8.40704027      10.35569690      15.49319691       0.00543350      -0.01016349       0.00055321
Cl       9.92743464       9.46188096      17.79460902       0.00743251      -0.00524180       0.00000662
C       10.03610242      10.13589678      16.15530517       0.00553684      -0.00535059       0.00005492
Cl       7.88857327       6.68534820       1.72012896      -0.00269285      -0.00717253      -0.00094041
Cl       6.52634905       7.57001398      -0.68311814      -0.00332543      -0.00587896       0.00100499
Cl       5.07659263       7.35057651       1.81688109       0.00063586       0.00299218       0.00334927
Cl       5.94291261       4.96063220       0.42731552      -0.01088913      -0.00146985       0.00529294
C        6.34943514       6.63970373       0.81721728      -0.00406668      -0.00288933       0.00224310
Cl       1.00977914       4.00816053      11.58608530      -0.00063719       0.00065851       0.00158418
Cl       2.21048058       6.14869266      10.07054296      -0.00122848       0.00530311       0.00841987
Cl       2.79641243       5.89124820      12.89443974      -0.00553757      -0.00084934       0.00794914
Cl       0.16719651       6.74031774      12.04183751      -0.00464246      -0.00177482       0.00571299
C        1.54224790       5.69074920      11.64077774      -0.00290389       0.00095552       0.00593504
Cl      10.61656668      15.40733616       4.60371530      -0.00013342       0.00267634      -0.00319594
Cl      10.15250953      13.71386043       2.29128149      -0.01328960      -0.01084495       0.01227897
Cl      12.84237100      14.13787868       3.30051156      -0.00701356      -0.00716931      -0.00460722
Cl      11.43182171      16.28475976       1.95681410      -0.00977585      -0.01496351      -0.01137584
C       11.25436800      14.88395846       3.05513319      -0.00745716      -0.00783241      -0.00191085
Cl       3.79242345      16.97834525       1.37257782       0.00307888      -0.02312517      -0.03154284
Cl       3.00967591      17.19306215       4.16494948       0.02455914       0.02395844      -0.03253305
Cl       2.07625048      14.95936480       2.54805898      -0.01721597       0.01429334       0.00573286
Cl       0.27838283      17.76838161       0.99299177      -0.00902843      -0.00255364       0.00560868
C        3.45007441      16.06160192       2.86293901      -0.00355948       0.00137356      -0.01822893
Cl       3.38723871       3.42184441       2.87437490      -0.00304657      -0.00202575       0.01330620
Cl       5.65197425       4.72112770       4.15197138      -0.00129399       0.00389582       0.00383540
Cl       5.87536149       2.00932422       3.16855263      -0.00071871       0.00347310       0.00793925
Cl       4.26757022       2.58698154       5.51188522       0.00582379       0.00550431       0.01171118
C        4.79089700       3.18402806       3.92376055       0.00072369       0.00281332       0.00875610
Cl      13.26333432       5.83376648       8.48049590      -0.00175130       0.00063357      -0.00243130
Cl      14.83645279       7.78932494       9.92611350      -0.00539165      -0.00057596       0.00173776
Cl      16.13811353       5.50476736       8.70770458      -0.00171685       0.00502983      -0.00312290
Cl      14.44944824       5.14327990      11.03414352      -0.00108649      -0.00339246      -0.00489619
C       14.67471978       6.06527261       9.52537548      -0.00247259       0.00033650      -0.00229743
Cl       4.31533240       2.81285935      12.76298235       0.00854848      -0.00535357      -0.00510396
Cl       2.87735133       0.68491765      11.41821782       0.00346553      -0.00326477      -0.00168955
Cl       3.70203512       0.35601169      14.17744701      -0.00742601       0.00309873       0.00157630
Cl       5.68088981       0.36331443      12.06105760      -0.00098217      -0.01414552       0.00832710
C        4.14099439       1.04828035      12.59496487       0.00082986      -0.00508872       0.00062479
Cl       1.24995371       7.64679168       7.04795388      -0.00165433       0.00371000       0.00361180
Cl       2.02023889       5.49476382       5.30180395      -0.00873831       0.00488544      -0.00066230
Cl       4.00250005       6.74088989       7.02649929      -0.00884444      -0.01749571       0.01335675
Cl       2.94372169       8.17903622       4.75522735       0.01364852       0.00057662       0.01504499
C        2.55488061       7.00606116       6.02908645      -0.00176063      -0.00190531       0.00776711
