148
Lattice="12.450010491101255 0.0 0.0 0.0 12.450010491101255 0.0 0.0 0.0 12.450010491101255" Properties=species:S:1:pos:R:3:forces:R:3 energy=-1067738.125 stress="-0.0022793894167989492 0.0007670047634746879 0.0006127542583271861 0.0007670047634746879 -0.001771946088410914 -0.0006889070791658014 0.0006127542583271861 -0.0006889070791658014 -0.00016927003161981702" pbc="T T T"
Tm      12.14012131      12.17218718       2.30225240      -0.00271754       0.00296634       0.00438955
I        2.85548741      10.87369667       0.59234951      -0.01794246      -0.00651778      -0.01398689
O        3.71009222      10.89419370       2.15943237      -0.00094295      -0.00828288      -0.02335459
O        1.11119736      11.33310029       0.99775096      -0.01503502      -0.01497754       0.00484807
O        3.45915169      12.17253224      -0.46252614      -0.03440205      -0.00177601      -0.01638231
O        2.77020902       9.25947165      -0.13816210      -0.01922000      -0.00482716      -0.01777046
I        0.47269070      11.00440589       5.70297759      -0.00823742       0.00073037      -0.00094473
O       -0.39943273      10.95541572       4.06985194      -0.02464505       0.00983349       0.00821245
O        0.00221146       9.50403949       6.53036420      -0.00591029       0.00029986       0.00020209
O        2.20833113      11.04529063       5.31452036      -0.01296714      -0.00704009      -0.02052944
O       -0.06179288      12.51063240       6.46857714       0.00749828      -0.00025128       0.01093546
I        8.81362449      11.39253862       9.30426911      -0.00537777       0.00207018       0.00813159
O        7.11483784      11.39133083       8.75511233      -0.00529510       0.00842218       0.00934088
O        9.39863253       9.70667196       9.22176740      -0.01184982       0.00004840       0.01166780
O        9.85657538      12.39011855       8.24725100      -0.00389212      -0.00179976       0.00625342
O        8.94530704      11.93933033      11.01909382      -0.00210698       0.00605717       0.00642478
O        7.71564389       1.91666007       9.11559325      -0.00639117       0.01842815      -0.00082874
N        5.89116297       2.00061520      10.49374911      -0.00876749       0.00553221      -0.00331530
C        5.02765177       1.25200007       9.60445915      -0.00241829       0.00043420      -0.00481663
C        5.31250822       2.56348884      11.69400371      -0.01350822      -0.00229418      -0.00223011
C        7.16532711       2.25650212      10.15094194      -0.01081753       0.01628029      -0.00199199
H        4.35991377       1.92570593       9.06349903      -0.00019938      -0.00313154      -0.01184951
H        4.44156661       0.54232489      10.18523915      -0.00488541       0.00269070      -0.00487021
H        5.64751886       0.71278716       8.89584759       0.00210270      -0.00249483       0.00147614
H        4.51473334       3.27006464      11.44165076      -0.01813710      -0.00735256      -0.00027695
H        6.06768843       3.11101299      12.25638680      -0.01794466       0.00036675       0.00093198
H        4.88781235       1.77055146      12.31438802      -0.00857194      -0.00732598      -0.00552233
H        7.68965550       2.82411428      10.93986015      -0.01582652       0.01941603      -0.00147784
O        8.99118462       6.94928874      11.93406096       0.03358877      -0.01698613       0.03232084
N       10.83616134       8.18372598      11.41559688       0.01449198      -0.00537849      -0.00510253
C       11.61787054       7.04302503      11.01197776       0.02136882      -0.00093366      -0.00341687
C       11.46790412       9.47520670      11.28961611       0.00554178      -0.00162436      -0.01080163
C        9.54228243       8.02929803      11.76753843       0.02261806      -0.01327097       0.01628913
H       12.50028954       6.92932396      11.64582778       0.02153319       0.00449658      -0.00280198
H       11.95414405       7.18071429       9.98103047       0.02169135       0.00094714      -0.00273535
H       10.99058834       6.15606599      11.06905569       0.02692831      -0.00453839      -0.00318288
H       12.33018891       9.53323262      11.95740585       0.01005226       0.00255905      -0.01780879
H       10.75089294      10.25866803      11.52489934       0.00338089      -0.00573394      -0.00416069
H       11.80480392       9.63804236      10.26472716      -0.00409693       0.00032156      -0.01303247
H        9.02314966       8.99110051      11.90538893       0.01634574      -0.01742661       0.01745024
O        8.06827136       6.53896840       7.22703650      -0.03286374       0.00099623      -0.00819278
N        8.21273747       8.63201576       6.33256762      -0.01125616       0.00492370       0.00470972
C        6.79048272       8.88848091       6.42899242      -0.00941461       0.01697477      -0.00017371
C        9.05577732       9.69312079       5.84549882      -0.00069129      -0.00217408       0.00808042
C        8.72395289       7.47456774       6.79164536      -0.02373177      -0.00180507      -0.00037050
H        6.39626549       9.19356257       5.45728643      -0.00462878       0.01410647      -0.00288689
H        6.59851876       9.67724813       7.15955059      -0.00396617       0.02301195      -0.00560766
H        6.29381845       7.97941771       6.74951194      -0.01753268       0.02321902       0.00401069
H        8.76894880       9.96835128       4.82532937       0.00489423       0.00109097       0.00771582
H       10.09424435       9.37045244       5.85374241      -0.00353152      -0.01086028       0.01055845
H        8.97719410      10.58443926       6.47149715       0.00551851      -0.00196955       0.00835320
H        9.82646519       7.44272415       6.72198161      -0.02385926      -0.01144675       0.00390667
O        3.79317852       8.15694719       6.41373327      -0.02234614      -0.00388062      -0.00800809
N        2.15769914       7.62486948       4.90206527      -0.01378336      -0.00496890      -0.00489241
C        2.71599948       8.38531809       3.80582341      -0.00844984      -0.00814288      -0.00781234
C        0.90099334       6.95790976       4.66925220      -0.01387077      -0.00432308      -0.00459284
C        2.73099006       7.63760765       6.13047514      -0.00401580       0.00434750      -0.00269675
H        1.97937627       9.10682214       3.44994119      -0.00897762      -0.01038682      -0.01113086
H        2.99585562       7.73797335       2.97113673      -0.01071992      -0.01372114      -0.00369492
H        3.58592278       8.93375126       4.15118918      -0.01161262      -0.01017140      -0.00889410
H        0.12198251       7.67493817       4.39764222      -0.01211607      -0.00452235      -0.00582268
H        0.58286717       6.43550362       5.56970455      -0.01370704      -0.00150517      -0.00264663
H        1.00376147       6.22998329       3.85804547      -0.01325560      -0.00562987      -0.00124273
H        2.11732945       7.10228302       6.87572789      -0.01443604       0.00161725      -0.00338608
O       11.25903940       1.56750061       1.52042288       0.00223763       0.00405484       0.00320604
N       10.68394282       3.76459676       1.41507091       0.00112010       0.00284930      -0.00610968
C        9.37561780       3.51829095       0.83031912       0.00369942      -0.00100341      -0.01109719
C       10.99489889       5.13452795       1.79557553      -0.00243564       0.00434220      -0.00748920
C       11.50993594       2.78636189       1.70275682       0.00048596       0.00472620       0.00013407
H        9.22041834       4.21908184       0.01127808      -0.00038107       0.00862071      -0.00155631
H        8.59071310       3.71450435       1.55833205       0.00081328      -0.01853351      -0.00988865
H        9.33076196       2.49021605       0.48366762       0.01348327       0.00357366      -0.02473143
H       10.63393247       5.80994425       1.02079460      -0.01588376       0.00240217      -0.00254920
H       12.07088853       5.23993905       1.91657018      -0.00185364       0.01031848      -0.01971330
H       10.50193336       5.37670192       2.73969291       0.00683407       0.00024686      -0.00179559
H       12.46308824       3.09648517       2.13767476      -0.00092530       0.00709534       0.00163142
O        5.67025670       3.08190251       6.81812859       0.00022888       0.01315492      -0.01398337
N        7.32940592       2.12847501       5.56076511       0.00780609       0.00544262       0.00330902
C        7.16829545       0.78222324       6.06783002      -0.00208681       0.00759383       0.00538408
C        8.25415197       2.31238274       4.46859983       0.01909734      -0.00106614       0.01201885
C        6.62048633       3.16356323       6.05086339       0.00702524       0.00887652      -0.00551718
H        8.12868726       0.42508728       6.44358173      -0.00880200       0.00661670       0.02067658
H        6.81013580       0.10999266       5.28098285       0.00806488       0.00610603       0.00238478
H        6.46903316       0.79142847       6.89546909      -0.01440790       0.01215060      -0.00548151
H        9.25750566       1.99054289       4.75153179       0.01543650      -0.00183901       0.02323765
H        8.30390326       3.36509876       4.20437486       0.02374836      -0.00263059       0.00749988
H        7.91804756       1.73763006       3.59708275       0.02681240      -0.00438908       0.01150814
H        6.97654857       4.12838867       5.65923994       0.01341930       0.00676894      -0.00415701
O        6.95063403       9.05263864       2.54127819       0.00474012       0.00480026       0.01147568
N        8.28181307      10.73903898       1.76436309       0.00396129       0.00167240      -0.00088745
C        7.18370663      11.65031802       1.50245896       0.00627418       0.00131482      -0.01041984
C        9.62033084      11.26065398       1.62785717       0.00377010       0.00161910      -0.00149812
C        8.04555136       9.49906904       2.25928195       0.00446391       0.00633806       0.01035976
H        7.21032944      11.97017751       0.45914125       0.01606821      -0.00156384      -0.01085269
H        7.26000370      12.52862492       2.15106266       0.00296679       0.00353101      -0.01310007
H        6.25478967      11.12928837       1.72050987       0.00438389       0.00314155      -0.01470647
H        9.73012960      11.74421580       0.64853100       0.00443079      -0.00255617      -0.00342646
H       10.33500149      10.42774589       1.71862970       0.00413924       0.00275464       0.00337492
H        9.79238638      12.00667585       2.43331064       0.00118434       0.00565916      -0.00492291
H        8.97790950       8.91699390       2.38142713       0.00492805       0.00961226       0.01797588
O        3.98209133       6.40031827      11.01923984       0.00385888      -0.01953673       0.00112414
N        2.97523686       5.11299595       9.42807507       0.00227210      -0.01199433      -0.00301312
C        1.78723551       4.89562436      10.21613579       0.00321958      -0.01384291      -0.00300540
C        3.04891349       4.47931533       8.13457249       0.00197598      -0.00591934      -0.00567789
C        3.98736812       5.87816584       9.92092251       0.00346956      -0.01470268      -0.00035632
H        1.68721390       3.84209699      10.49710074       0.00420054      -0.01376444      -0.00300688
H        0.89808573       5.18815186       9.65100704       0.00292033      -0.01319870      -0.00135294
H        1.86631903       5.50117288      11.11617411       0.00267374      -0.01418915      -0.00403291
H        2.91994435       3.39787954       8.22746956       0.00068482      -0.00620550      -0.01137631
H        4.02371633       4.65444938       7.68410352       0.00221774      -0.00482460      -0.00460881
H        2.26414006       4.85800257       7.47118809       0.00249904      -0.00201264      -0.00385211
H        4.82521854       5.97314653       9.21017629       0.00400507      -0.01407615       0.00009578
O        1.04765417       1.16089047       3.29573463       0.01036772      -0.00834854      -0.00250608
N        3.15805423       1.95722091       3.61444950       0.00628230      -0.00110999      -0.00069182
C        2.76652080       3.35007985       3.70689396      -0.00223587      -0.00436017       0.00858714
C        4.57814209       1.65514727       3.69525233       0.00795507       0.00682583      -0.00033976
C        2.28923538       0.98445092       3.44008197       0.01122469      -0.00419480      -0.00607587
H        3.04387294       3.88054256       2.79185019      -0.00972536       0.00191383       0.01026082
H        3.28435248       3.80716566       4.55014106      -0.00157543      -0.00561940       0.00864604
H        1.69294661       3.40921211       3.85809678      -0.00179639      -0.01237423       0.01317824
H        5.10398968       2.14463680       2.87158599       0.00737636       0.02003923       0.00759989
H        4.71410311       0.57933951       3.61696044       0.01465866       0.00879842      -0.01267542
H        4.96919890       2.01010215       4.64578692       0.00289773      -0.00152029       0.00476786
H        2.72516667      -0.01507681       3.42368530       0.01507834      -0.00212541      -0.01399020
O        6.71300836       4.72394665       1.38503795      -0.01249588      -0.03298354       0.02910876
N        6.27298062       5.82802492       3.33601714      -0.00007324      -0.00300732       0.01183280
C        7.65544223       6.12734153       3.64559684       0.00270979      -0.00116530      -0.00205248
C        5.27390439       6.29602196       4.26670082       0.00800763       0.00848763       0.01431847
C        5.93517485       5.21418262       2.19087896      -0.00706983      -0.02081466       0.02514696
H        8.00386965       5.58310794       4.52706101       0.01090418       0.00253224      -0.00310081
H        7.73844443       7.19572186       3.84292678       0.00294075      -0.00039822      -0.00677336
H        8.25485517       5.87165283       2.77640479      -0.00464194      -0.00389950      -0.00637001
H        5.39669089       5.81724129       5.24162280       0.01738901       0.02175571       0.01896715
H        4.28668439       6.05907831       3.87573021       0.00467834       0.00274857       0.02681613
H        5.34719397       7.37269649       4.40507659       0.00854836       0.00986665      -0.00067445
H        4.84313493       5.18609363       2.03148407      -0.00697017      -0.02185871       0.03284205
O        9.92656501       4.13595749       6.10343347       0.02143776       0.02041407      -0.00037503
N       10.64059041       3.42475363       8.15046360       0.00679931       0.00832015       0.00047335
C       11.77094781       2.68266694       7.64469511       0.00151385      -0.00241672       0.00439432
C       10.37051943       3.29355515       9.56242263       0.00012761       0.00914366      -0.00068475
C        9.77501916       4.03776835       7.31933761       0.01624271       0.01863655      -0.00126386
H       11.67094097       1.63036307       7.91100896      -0.00777453      -0.00057316       0.00725302
H       12.70397998       3.06980554       8.06435704       0.00421500      -0.00996739       0.00452669
H       11.79592768       2.77500094       6.56235041       0.00467469      -0.00587565       0.00430420
H       10.14062750       2.25505248       9.81151671      -0.00834170       0.01081431      -0.00279722
H        9.51957461       3.91753159       9.82803653       0.00347430       0.01476078      -0.00398494
H       11.24207566       3.62101900      10.14007706      -0.00001246       0.00222954       0.00325651
H        8.90925314       4.47037565       7.83468464       0.01768166       0.02507550      -0.00412107
