146
Lattice="12.644144557683399 0.0 0.0 0.0 12.644144557683399 0.0 0.0 0.0 12.644144557683399" Properties=species:S:1:pos:R:3:forces:R:3 energy=-694780.5625 stress="-0.0010231378255411983 -0.00014193776587489992 -0.0006506046338472515 -0.00014193776587489992 -0.0011314424918964505 -0.00023319627507589757 -0.0006506046338472515 -0.00023319627507589757 -0.0013061128556728363" pbc="T T T"
Tm      10.94911725      11.80444251       0.41168215       0.00123841       0.00812734       0.01256648
O        4.40541160       3.04986148       8.93666225       0.00107670      -0.00117028      -0.02424634
O        4.81390970       0.55101820       9.50553249       0.01299888       0.00416839      -0.01065552
O        6.55208278       1.85476162       8.07850483       0.00480151       0.00344187      -0.02035990
O        4.22739941       1.21422229       7.05775936       0.00638831      -0.01124734      -0.01352835
Mn       4.99101035       1.66973159       8.38762624       0.00656690      -0.00063524      -0.01673522
O       10.47644596      11.61009944       8.57694776       0.01089728       0.02362061       0.01618910
O       11.29233976      11.42678721      11.08123212       0.00076213       0.00798835       0.00612432
O       13.00845964      11.44042582       9.07348239      -0.00773048      -0.01424748       0.01715177
O       11.48385004       9.35327965       9.40854863      -0.02947722       0.00847697       0.00670884
Mn      11.57604300      10.92846330       9.49350641      -0.00467993       0.02806544       0.01246440
O        6.55435290       6.86492179       4.65368044       0.00713512       0.00858402      -0.00916529
O        7.31245794       7.41647298       7.10070562      -0.00309414       0.00244129      -0.00496447
O        7.83321896       5.07222796       6.07674630      -0.00178349       0.00446177      -0.01009023
O        5.38329564       5.73559987       6.68580580      -0.00262833       0.00437838      -0.02026701
Mn       6.77701809       6.28191064       6.13737676      -0.00075116       0.00080271      -0.01528829
S        2.62850988       6.23832170       5.05058763      -0.01515245      -0.00672239       0.00294435
O        1.42540282       6.10166640       4.15959171      -0.01947510       0.00371471       0.00748861
C        2.06397809       6.77005456       6.66540211      -0.00529721      -0.01269796       0.00854373
C        3.45671849       7.76207064       4.58234687      -0.01134780      -0.00762796       0.00851741
H        1.61661857       5.90743216       7.15527557      -0.00629628      -0.01313686       0.00649376
H        1.32782264       7.56610835       6.54236262      -0.00278509      -0.00952201       0.01558041
H        2.93107905       7.12315659       7.22712183      -0.00165635      -0.01834456       0.00588951
H        4.28872538       7.92275512       5.26324008      -0.00719768      -0.01571235       0.00503595
H        2.74353210       8.58660035       4.61065985      -0.00766496      -0.00505437       0.01871492
H        3.84002948       7.61284564       3.57577350      -0.01782748      -0.00191545       0.00537922
S        9.13227018      10.12196462       2.84453958       0.00254804       0.00160148       0.00743335
O        9.53018100      10.64719844       1.43465847       0.00005057       0.00307027       0.00725609
C       10.70889380       9.83783292       3.60526027       0.00377643       0.00028448       0.00407598
C        8.61112802       8.44360981       2.56768986       0.00089284       0.00282252       0.00736207
H       11.10387473      10.81974473       3.86038376       0.00432175       0.00015387       0.00321945
H       11.34295795       9.28317433       2.91091222       0.00201634       0.00034647       0.00262913
H       10.52411077       9.25055428       4.51011469       0.00601982       0.00018109       0.00438049
H        8.41299465       7.99914602       3.54640300      -0.00203604       0.00415304       0.00730684
H        9.38870848       7.89934955       2.03344273       0.00100167       0.00147322       0.00936998
H        7.69062724       8.49233829       1.98872566       0.00171861       0.00365552       0.00628263
S       11.73585996       2.58128131       1.10338107       0.00369495       0.00900888       0.00772312
O       11.04968107       1.19759396       1.09513315       0.00861502       0.00671458       0.00983295
C       12.15153021       2.90476583       2.81083996       0.00055140       0.01322047       0.00695968
C       10.40551268       3.76612516       0.92919411      -0.00115949       0.00260139       0.00510682
H       12.72573876       2.05468432       3.17735575       0.01632911       0.02383581       0.00622395
H       11.24124594       3.03284723       3.39428602      -0.00063497      -0.00307768       0.00813287
H       12.77448740       3.80167698       2.83561137      -0.01495601       0.02346969       0.00758230
H       10.87037389       4.73867406       0.77389219      -0.00565115       0.00576787       0.01323538
H        9.77482613       3.75155936       1.81548756      -0.00590440      -0.00558099       0.00135720
H        9.84735706       3.49696355       0.03650588       0.00448469       0.00581675       0.00080156
S        4.33787947       4.70008609       2.81504122       0.00160867       0.00686240       0.00411427
O        3.56662068       3.84485418       1.85961211      -0.01170170       0.02245092       0.00091839
C        5.98771023       4.93915063       2.12340105      -0.00002170      -0.00680538      -0.00196654
C        4.80253266       3.65104853       4.19841530      -0.00574611      -0.00737059      -0.00479519
H        5.86435190       5.55291267       1.23157221       0.00271305      -0.00165767       0.00144166
H        6.41472356       3.97358021       1.85638750      -0.00859325      -0.00837633      -0.00852847
H        6.58367729       5.47164446       2.86757980       0.00737609      -0.01611228      -0.00188927
H        5.58147509       4.12489367       4.79362018      -0.00312040      -0.01926205       0.00120869
H        5.11845813       2.69620461       3.77799592      -0.00919874      -0.00470798      -0.01142520
H        3.92317807       3.51422933       4.82372905      -0.00843154      -0.01367322      -0.00997674
S        6.33174838       0.65005957       2.80343421       0.00304842      -0.01344681      -0.01270050
O        6.70975012      -0.58166335       2.05288480       0.00151443      -0.01049376      -0.02072620
C        7.78093163       1.72285114       2.80834617      -0.00032705       0.00231028      -0.00207319
C        6.34831200       0.21792342       4.55757847       0.00822109      -0.00614193      -0.00272483
H        7.92818483       2.03066851       1.77472258      -0.00649367       0.00524226      -0.00112915
H        8.63414557       1.15560154       3.18461298       0.00408229       0.00514495      -0.00692788
H        7.57774866       2.59200181       3.43418601       0.01601148       0.00925513      -0.00317489
H        6.17694569       1.10066516       5.17491412      -0.00144224      -0.01832458       0.01631714
H        7.30232589      -0.25894251       4.77860639       0.01268545       0.00063762      -0.00413997
H        5.52443637      -0.47701833       4.71236202       0.01354685      -0.01271722      -0.00875115
S        9.88171785       0.52130567       5.98396694       0.00400428       0.00139427      -0.00737572
O        9.74594333       0.01124008       4.57398652       0.01513966       0.00670314      -0.01070499
C        9.19990472       2.19163620       5.98711645       0.00380835       0.00077802      -0.00751470
C       11.61573596       0.95808058       6.14752951       0.00210774       0.00030115       0.00860478
H        8.12445166       2.13412163       6.14260676       0.00273481      -0.00077045      -0.01775008
H        9.43701747       2.66840332       5.03755406       0.01207387       0.00322696      -0.00403011
H        9.62134876       2.76245874       6.80748501      -0.00502627      -0.00046427      -0.00221416
H       11.78099353       1.44882264       7.10225074      -0.00712887       0.00212175       0.00899604
H       11.90180513       1.59929249       5.31635459       0.01142032      -0.00193925       0.01022646
H       12.18891586       0.03469723       6.10354873       0.00118783      -0.00038728       0.01720134
S       11.39115797       2.92511266      10.56492642       0.01236749      -0.00341511       0.00097167
O       12.19698278       4.14456209      10.86651268      -0.00508678       0.00783849       0.00458622
C       12.42981029       1.75123839       9.69152105       0.02899539       0.01606843      -0.00221488
C       10.26949230       3.32869270       9.23015461       0.00930274      -0.01456037       0.00179845
H       13.07605764       1.24623080      10.40733091       0.03541756       0.02785772      -0.00075451
H       13.03324164       2.27468757       8.94886773       0.02070634       0.02588911      -0.00206144
H       11.77890814       1.01167996       9.22766678       0.04226805       0.00556612      -0.00303704
H        9.66072645       2.45324380       8.99679472       0.02054132      -0.02123752      -0.00107019
H       10.84622294       3.65900618       8.36392829       0.00568047      -0.00627052       0.00278500
H        9.61668294       4.13500096       9.57368632       0.00124136      -0.02285822       0.00429799
S        6.56385226       4.55505338       9.71429330       0.00049269      -0.00006938      -0.01029336
O        7.84281360       5.32416443       9.89664839       0.00484371      -0.01008546       0.00716215
C        5.23521225       5.66705542      10.20027537       0.00578290       0.00654173      -0.01596913
C        6.52321061       3.47740253      11.16534959      -0.02038337      -0.00963002      -0.02011460
H        5.09984210       6.36994450       9.37849370       0.02277743       0.01669133      -0.00942481
H        5.52632490       6.19654351      11.10862033      -0.00371338      -0.00501386      -0.00668439
H        4.33354518       5.07593004      10.34354965      -0.00214455       0.01481257      -0.03506400
H        5.54089112       3.03432793      11.31057441      -0.02483657      -0.00359668      -0.03434810
H        6.82402780       4.08962390      12.01731682      -0.02461719      -0.01919335      -0.01222634
H        7.25717822       2.69286241      10.98266415      -0.02449839      -0.01286291      -0.02066453
S       10.93954430       7.17757073       6.38609999       0.00433135      -0.00771585       0.01126337
O        9.87504698       7.76305058       5.50899470       0.01304042      -0.00039458       0.00709152
C       11.32531686       5.58362263       5.64283507      -0.01368889      -0.01408273       0.01888108
C       10.13915491       6.56352513       7.86644282      -0.00322676       0.00829580       0.01362723
H       11.88011297       5.78858249       4.72906527      -0.00881867      -0.02322111       0.02005860
H       10.37541037       5.07906056       5.46235129      -0.01935741      -0.00251564       0.01736055
H       11.96967642       5.01190785       6.31109059      -0.02393115      -0.01920629       0.02363002
H       10.90702788       6.16402182       8.53017152      -0.00857893       0.00350242       0.01648278
H        9.38980313       5.82113602       7.59648963      -0.01105949       0.01503159       0.01807480
H        9.65093969       7.41468536       8.33130357       0.00681841       0.01661935       0.00866100
S        1.47204999       7.89802984       1.30751549      -0.00240099      -0.00017148      -0.00564659
O        0.34533155       8.64362835       0.63679872      -0.00449193       0.00595897       0.00377512
C        3.00121153       8.34501445       0.45263275      -0.00907260      -0.00454609      -0.02359414
C        1.38749056       6.19908285       0.74036324      -0.01593877       0.00221574      -0.00879917
H        3.19733124       9.39569661       0.65652549      -0.00124505      -0.00332803      -0.03359944
H        2.91906599       8.18493647      -0.62074325      -0.02923431      -0.00927445      -0.02138957
H        3.81542672       7.75307057       0.87081645      -0.00452941      -0.01020502      -0.03969563
H        2.22129764       5.62206066       1.14373997      -0.01633379      -0.00279699      -0.01521561
H        1.36831295       6.17908261      -0.34837651      -0.02869967      -0.00283578      -0.00881433
H        0.46041499       5.79399831       1.13859697      -0.01424524       0.01208949       0.00364694
S        7.09510023       8.72155264      10.50653271       0.00751162      -0.00900805       0.00124955
O        5.97805388       9.07923860      11.43004895      -0.00510788      -0.03229398      -0.00752974
C        8.32934967       7.87206949      11.51413229       0.01240772      -0.00470400       0.00040573
C        8.12008374      10.19047688      10.27802602      -0.01012057       0.00332838       0.02104614
H        7.88546120       6.93426222      11.83603049       0.01474832      -0.00502796       0.00227673
H        8.58480427       8.51800319      12.35332600       0.00995347      -0.00274195      -0.00135446
H        9.20178811       7.65221490      10.90137143       0.01556111      -0.00307547       0.00449616
H        9.02509848       9.87139021       9.76422379      -0.01356968       0.02288938       0.00604429
H        8.35076169      10.61325561      11.25710725       0.00175545      -0.01096132       0.02272686
H        7.59768286      10.91588466       9.66274885      -0.02096601       0.01119500       0.04088775
S        1.67363089      12.82858265       2.35017459       0.00406867       0.00619790       0.00021458
O        1.11305104      12.89707994       3.73429021       0.00934088       0.01981835       0.00127327
C        0.71498160      11.47089878       1.58466000       0.00212717       0.00279623       0.00824606
C        3.24649919      11.98625505       2.46899096       0.00119835       0.00099832       0.00137752
H       -0.24658137      11.56855677       2.10875544       0.00336225      -0.00197925       0.01103104
H        1.11239975      10.49637454       1.85015012       0.00458394       0.00234717       0.00264052
H        0.68109373      11.54566342       0.48719578      -0.00194024       0.00659500       0.00887528
H        3.69727138      11.86066043       1.48525153      -0.00051690      -0.00877199       0.00152455
H        3.11377393      11.03433831       2.98274089      -0.00343068       0.00553855       0.00820221
H        3.86802300      12.65456228       3.05874950       0.00431756       0.00247806      -0.00384474
S        4.25614388       9.91033639       7.24252507       0.00385770      -0.00200772       0.00256848
O        4.36517404       8.54306244       7.83450696      -0.00361121      -0.00033903       0.00836909
C        5.73772785      10.80169237       7.70135882       0.00799084      -0.01188689       0.00059175
C        3.08669167      10.80682502       8.25295155       0.00668067       0.01634276      -0.00816453
H        6.57646326      10.20899613       7.33910662       0.00194382      -0.02088423       0.00305956
H        5.74811969      10.91047991       8.78313549       0.01316889      -0.00357515      -0.00038332
H        5.71270438      11.78615004       7.23725273       0.01316036      -0.01681691      -0.00861076
H        3.04482618      11.85041957       7.94124330       0.01573947       0.01299781      -0.02230437
H        3.39004826      10.72959006       9.29674051       0.00011431       0.02579502      -0.00529112
H        2.12499534      10.32379228       8.10283479       0.00244588       0.02532970      -0.00836908
