145
Lattice="12.13312208162002 0.0 0.0 0.0 12.13312208162002 0.0 0.0 0.0 12.13312208162002" Properties=species:S:1:pos:R:3:forces:R:3 energy=-486176.96875 stress="-2.7052110453951173e-05 -0.0012854969827458262 0.0004634472861653194 -0.0012854969827458262 -0.00018827964959200472 0.0008094288932625204 0.0004634472861653194 0.0008094288932625204 -0.002240943256765604" pbc="T T T"
Tm      11.19719008      11.59949830       0.50767740       0.00055739      -0.01102003       0.00336802
S        6.85856160      11.27075147       7.32526916       0.00348628      -0.01126166      -0.01509374
O        7.29862287      10.02415154       7.93772187      -0.00702608      -0.01030338      -0.00694698
O        7.75645747      11.69462301       6.22552253       0.00678122      -0.02759197      -0.01931393
O        6.61844609      12.34167704       8.29161317       0.01803350      -0.00126910      -0.02322161
C        5.29083116      11.00915520       6.53841449      -0.00047946      -0.00285037      -0.00911760
H        4.53577565      10.75264347       7.27460239      -0.00102063       0.01414182      -0.00379328
H        4.99972553      11.93598983       6.04987194       0.00788513      -0.00640757      -0.01975963
H        5.37645513      10.21932416       5.79760824      -0.01151318      -0.01262863       0.00050117
S        1.69874644       9.31439841       1.23497677      -0.00495499      -0.01376152       0.02975401
O        0.62060815      10.44628967       1.17045393       0.01004177       0.00588149       0.01768926
O        1.79931546       8.69002907      -0.05486468      -0.00149083       0.00379443       0.01595473
O        1.43460989       8.47463563       2.36529225      -0.00651875       0.00587249       0.00022936
C        3.16279579      10.25957352       1.50789835       0.00804824      -0.01199651       0.02574532
H        3.08905210      10.73159112       2.48387128       0.00884302      -0.02322362       0.02962688
H        4.00277890       9.57095820       1.47930037       0.00034544      -0.02382445       0.02310630
H        3.26384049      10.97242247       0.69256112       0.01598635      -0.01043327       0.03491074
S        1.58306457      10.27665430       5.56314915       0.00307345       0.01436251       0.01750859
O        2.59609612      10.63018130       4.56914009       0.01281023       0.01761872       0.02621663
O        2.07496450      10.37858975       6.93795598      -0.01281106       0.03475155       0.02179229
O        0.87250783       9.03709098       5.28343588       0.02342010       0.00521576       0.02096292
C        0.37540454      11.59420209       5.41416826      -0.01007760      -0.00072128      -0.00918726
H        0.06438842      11.64703748       4.37166401       0.00504392      -0.01252695      -0.01404539
H       -0.48026413      11.38647159       6.04877310      -0.01696918      -0.00691911      -0.02053680
H        0.86041192      12.52135746       5.71369541      -0.02638109       0.00709000      -0.00846222
O        2.86582016       9.28273055       9.36910341      -0.01659548      -0.00380933       0.00486499
C        4.12872289       8.73451258       9.71877745      -0.01519752      -0.00052425       0.00434677
C        4.77810286       8.00886680       8.55125111      -0.01706564      -0.00346175       0.00477344
C        5.05650112       9.79641465      10.30420470      -0.01392680       0.00201052      -0.00243810
H        3.91286068       8.01203469      10.51334169      -0.01318289       0.00240064       0.00660402
H        5.71212145       7.53854168       8.86213192      -0.01909529      -0.00699008       0.00523604
H        4.11388708       7.24487336       8.14506308      -0.02018911      -0.00140432       0.00561429
H        5.03754762       8.70738347       7.75912707      -0.01464916      -0.00486913       0.00441468
H        6.05116531       9.37880697      10.47739430      -0.01726154      -0.00056520       0.00855961
H        4.66597313      10.16720103      11.24990739      -0.01901127       0.01369983      -0.00857678
H        5.17925332      10.63987144       9.62636889      -0.00581692      -0.00653899      -0.01073267
H        2.83648753       9.54657916       8.43526234      -0.01195300       0.01340398       0.01019976
O        3.94751594       4.05648875       8.15566494       0.00286129       0.00050414      -0.00346851
C        4.08465834       3.78319629       9.55013883       0.00141388      -0.00915056      -0.00536162
C        4.42609529       5.04130538      10.32836679       0.00304160      -0.01533586       0.00361282
C        2.84144644       3.10629563      10.10602223      -0.00030667      -0.01069680      -0.01118815
H        4.91843495       3.07849938       9.60469024       0.00024152      -0.01072121      -0.00976333
H        4.60232083       4.81160204      11.38043653       0.00205103      -0.02339038       0.00200421
H        5.31544980       5.51791922       9.91913587       0.00433910      -0.01406348       0.00768965
H        3.60359158       5.75949101      10.27612313       0.00470310      -0.01337282       0.00826793
H        2.99611992       2.86625974      11.15968944      -0.00133678      -0.02013341      -0.01325828
H        2.61999225       2.19029403       9.55936304      -0.00269899      -0.00537857      -0.01908715
H        1.97934535       3.77547088      10.03765880       0.00169465      -0.00788829      -0.00583155
H        3.28409493       4.74656965       8.04921232       0.00036794      -0.00102883       0.00048798
O       10.63750053      11.12629345      10.58171269      -0.00221741       0.00153387       0.00153694
C       10.55572759       9.91724634       9.70508345      -0.00396627       0.00079609       0.00283165
C       11.08560285      10.29587395       8.34740909      -0.00558266      -0.00101233       0.00164467
C       11.35168396       8.82437354      10.36818499      -0.00491664       0.00104043       0.00311032
H        9.49171257       9.67437454       9.64096918      -0.00437695       0.00198904       0.00396876
H       11.11348382       9.42277435       7.69541172      -0.01051563      -0.00179468       0.00231854
H       10.43172882      11.03279145       7.87592290      -0.00422822       0.00050615       0.00254505
H       12.10952043      10.66671731       8.41421012      -0.00431880      -0.00456074      -0.00165689
H       11.27190299       7.91695953       9.76824848      -0.00553098       0.00088342       0.00371005
H       10.99093170       8.56962349      11.37189679      -0.00595828      -0.00189783       0.00405329
H       12.40953389       9.07916336      10.42819177      -0.00464597      -0.00048534       0.00367214
H       10.38739388      11.93421541      10.04685157      -0.00254707       0.00149167       0.00143033
O        8.45500465       6.03445089       5.21206552       0.01862490      -0.00565106      -0.01694477
C        8.72285171       6.94300047       6.29879789       0.00557813      -0.00489518      -0.01434076
C        9.92169116       6.46317230       7.09955505      -0.00024080      -0.00055838      -0.00343734
C        8.91480733       8.35335193       5.78621857       0.00542921      -0.00450957      -0.01269227
H        7.82411615       6.89947472       6.91844675       0.00014001      -0.00790194      -0.02257240
H       10.06101422       7.08528578       7.98504279      -0.00989357       0.00110987      -0.00320703
H        9.78394686       5.43055168       7.42000195      -0.00034121      -0.00034294      -0.00296621
H       10.83206200       6.52961176       6.49889020       0.00475958       0.00065635       0.00441639
H        9.00471040       9.05689582       6.61063122      -0.00356560      -0.00413281      -0.01217172
H        8.05032815       8.66711550       5.20459575       0.00961612      -0.00754834      -0.02014853
H        9.81716879       8.41545938       5.16922251       0.01010729      -0.00175031      -0.00524984
H        9.13786489       6.19686666       4.55459504       0.02181102      -0.00058401      -0.01221045
O        2.55354193       6.52441063       4.50312587      -0.00752914      -0.00705829       0.00378478
C        3.88551445       6.74625027       4.05950255      -0.00860715      -0.00806302       0.00286447
C        4.49138213       7.98251402       4.69699872      -0.00955498      -0.00438035      -0.00311983
C        4.68641793       5.51514882       4.42681878      -0.00743702      -0.00563425       0.00948542
H        3.89115563       6.86814435       2.96315111      -0.00779378      -0.01363429       0.00263387
H        5.55338017       8.05100826       4.45299501      -0.01060118      -0.00252204      -0.00622155
H        3.98643791       8.89431590       4.37946679      -0.01232494      -0.00673974      -0.00524155
H        4.39712689       7.90561281       5.77992763      -0.00702675      -0.00028916      -0.00289170
H        5.72199806       5.61400916       4.09749100      -0.00850929      -0.00828186       0.00587505
H        4.25810950       4.62200754       3.97905141      -0.00907376      -0.00812066       0.01582423
H        4.68626248       5.38413272       5.50987686      -0.00545886       0.00060099       0.00996609
H        2.05114880       7.34982151       4.42112415      -0.00548463      -0.00409671       0.00731413
O       10.24081077       1.33827136       9.52541679      -0.00467259      -0.00135818      -0.00171125
C        9.06061572       2.11102055       9.91502796       0.00149609       0.00833225      -0.00380903
C        8.36925734       2.66419689       8.69453430       0.00802055       0.01392862      -0.00463706
C        8.19221631       1.20015467      10.75561949      -0.00895301       0.01452348      -0.00796217
H        9.44374837       2.94125020      10.52105224       0.00688517       0.00433832      -0.00174180
H        7.46530678       3.19962087       8.98652322       0.01869984       0.03189776      -0.00477932
H        9.01492749       3.36146245       8.15757974       0.01830822      -0.00012016      -0.01024127
H        8.05472373       1.84926318       8.04470614      -0.00706564       0.01524979       0.00121593
H        7.38960204       1.75015369      11.24672469      -0.00570539       0.02132979      -0.01058516
H        8.79416911       0.74582215      11.54775968      -0.01715661       0.00686043      -0.00635742
H        7.74613939       0.41794754      10.14208214      -0.01325066       0.02032329      -0.01237762
H       10.36345533       1.42137830       8.57426644       0.00683380       0.00808564       0.00074965
O       11.57199967       1.66484942       1.29428605      -0.01324326      -0.01088402      -0.00118947
C       10.72878758       2.65143397       2.04391526      -0.00244033       0.00034578      -0.00243878
C       11.27225695       4.05469332       1.91895399       0.01121801      -0.00656727      -0.01117422
C        9.33471157       2.52485088       1.50250219      -0.00753656       0.01193208       0.00710338
H       10.77318604       2.33192648       3.08629401       0.00083599       0.00468533      -0.00147000
H       10.60109165       4.71570861       2.47039585       0.02753459       0.00097750      -0.00097267
H       12.26094285       4.16335296       2.36059911       0.01885369      -0.01776042      -0.02679178
H       11.29812094       4.39938865       0.88226635      -0.00110015      -0.00435177      -0.01269361
H        8.66409178       3.16671302       2.07157942       0.00614405       0.02577925       0.00719170
H        8.94051741       1.51275120       1.59345113      -0.02080929       0.01849669       0.01708011
H        9.30282160       2.83472390       0.45991304      -0.01089516       0.00530230       0.00546479
H       12.48698882       1.83602242       1.56159257      -0.01195824      -0.01731491      -0.00243843
O        6.58542800       0.80180434       4.10258686       0.03581914      -0.01888490      -0.00924231
C        6.92717193       2.14679197       4.46726993       0.01414120      -0.01356310      -0.00929040
C        6.12616302       2.63953585       5.66401285      -0.00311852      -0.02107298      -0.01806957
C        8.42052842       2.23908562       4.75387559       0.00948155       0.00912825       0.00687772
H        6.67863130       2.75421024       3.58903662       0.01426265      -0.01949361      -0.01308250
H        6.44468891       3.64855438       5.93437953      -0.02134411      -0.01474485      -0.02092396
H        5.05602911       2.66954227       5.46103138      -0.00236873      -0.03991410      -0.02501125
H        6.28971262       1.98896869       6.52446721       0.00243820      -0.01340032      -0.01351915
H        8.74600421       3.27778220       4.84361148      -0.00575988       0.01445770      -0.00181854
H        8.97241876       1.74218089       3.95917223       0.02606076       0.00661829       0.02047990
H        8.64403631       1.71065441       5.67932396       0.00646920       0.02443543       0.01614414
H        6.93218617       0.25012154       4.84064061       0.03546705      -0.01574118      -0.00495438
O        6.67971723      11.45744211       1.35692336      -0.00196487       0.02450854       0.03742373
C        7.51492443      10.32076879       1.41874797      -0.00490570       0.02249685       0.01727667
C        8.97064808      10.78394421       1.63439598      -0.00112835       0.01515529       0.00817961
C        7.07864056       9.32444082       2.46997880       0.00539264       0.01179129       0.01135051
H        7.45625044       9.86631970       0.42452687      -0.01520329       0.03245538       0.01365715
H        9.69476011       9.97473745       1.41649406      -0.00880581       0.01032242      -0.00069373
H        9.04839012      11.63484621       0.93835986       0.00084028       0.01831590       0.01204003
H        9.11601120      11.13914290       2.66074898       0.00854645       0.00904824       0.00864795
H        7.76383494       8.47614198       2.52942507       0.00806904       0.01311257      -0.00149099
H        6.08403693       8.94357690       2.24433172       0.00469035       0.01105954       0.01545411
H        7.04802625       9.80695664       3.44899980       0.01083442       0.00252230       0.01586309
H        6.57779500      11.85737514       2.23898373       0.01560042       0.02357169       0.04096155
O        4.32398468       1.73109139       1.47835269       0.01271811       0.00601667      -0.00061500
C        3.53971575       2.36717269       2.48792951       0.00782418       0.00657350      -0.00479385
C        2.82549785       3.59136528       1.93821014       0.00999257       0.00541323      -0.00909024
C        2.58864337       1.39340778       3.15837024       0.00576547       0.00688857      -0.00727797
H        4.27680487       2.68780684       3.22478562       0.00450113       0.00843830      -0.00232714
H        2.33757455       4.15821820       2.73444267       0.01083124       0.00922024      -0.01115674
H        3.52749881       4.25877581       1.43910496       0.01136181       0.00225149      -0.01120012
H        2.07014819       3.30127450       1.19823375       0.00949264       0.00372331      -0.00782404
H        1.95273302       1.90733255       3.88297096       0.00131492       0.00803988      -0.01207762
H        3.10849088       0.59169380       3.67979720       0.00320505       0.00877205      -0.00234871
H        1.94096482       0.90416960       2.41640100       0.01034125       0.00473281      -0.01007318
H        3.73216162       1.26286771       0.88192857       0.01773505      -0.00513310       0.00431933
