146
Lattice="12.417164737202208 0.0 0.0 0.0 12.417164737202208 0.0 0.0 0.0 12.417164737202208" Properties=species:S:1:pos:R:3:forces:R:3 energy=-385969.09375 stress="-0.0013074807357043028 0.00029980541148688644 -8.147819607984275e-05 0.00029980541148688644 -0.0011685927165672183 0.00038265153125394136 -8.147819607984275e-05 0.00038265153125394136 -0.00036781092057935894" pbc="T T T"
V       11.61730502      12.18850161       0.32635314      -0.00264525      -0.00128758       0.00983310
Br       6.44568996      10.57360642      10.70139500       0.00936268      -0.00427591       0.00338286
O        5.60826723      10.24268793       9.35022670       0.01706660       0.00346312      -0.00295603
O        5.80395508       9.70740643      11.93158499       0.00089914      -0.00798047      -0.00477433
O        8.00047593      10.18386110      10.52765406       0.00982642      -0.00707361       0.01180942
O        6.28332506      12.14893517      11.07610710       0.01096555      -0.00512576       0.00704536
Br      10.91563416       9.81555674      10.84084204      -0.00255349      -0.00338864       0.01258743
O       11.80972444      10.33120126      12.28353918      -0.00138894      -0.00126061       0.01031625
O       10.24317982       8.33438641      11.16875254       0.01225781      -0.01019514       0.01174149
O       10.13544567      12.40612915      12.16274417      -0.00504231      -0.00158221       0.01601839
O       12.63364301      12.93850607      11.76525705      -0.00805128      -0.00081176       0.00504613
Br       8.24722825      10.99797580       4.33945770       0.00582443       0.01067994      -0.01190997
O        9.47877293      11.29403663       5.34982734       0.00295222       0.00607419      -0.00726342
O        8.81458358      10.75227455       2.83688181       0.00908887      -0.00314587      -0.00813234
O        7.41145991       9.70111691       4.84343900      -0.00727403       0.02063298      -0.00779697
O        7.26332934      12.30733441       4.32416340       0.02006423       0.02058721      -0.02438899
O        3.93148162       9.49773588       6.27496566       0.00216360      -0.01130174      -0.00629377
O        3.32582943      10.64205776       4.47302994       0.00031517      -0.00123280       0.00105819
O        4.08568800       8.53706270       4.24267717      -0.01484060      -0.00465882      -0.01016128
C        3.64972097      10.84193956       6.75564554       0.01370725      -0.01110271      -0.00007278
C        2.87131388      11.44216600       5.59826555       0.01304874      -0.00115392       0.00593060
C        3.81583274       9.47493847       4.94211281      -0.00527942      -0.00600344      -0.00578499
H        4.59929529      11.33602062       6.95189409       0.01741284      -0.01757553      -0.00226028
H        3.08587853      10.77062824       7.67927224       0.01705724      -0.01098195       0.00171578
H        1.79323702      11.31822296       5.68751304       0.01272476       0.00751454       0.01075711
H        3.08944299      12.48727122       5.39445425       0.02131703      -0.00261313       0.00818231
O       11.10820669       1.20092516       1.80232016       0.00228140      -0.00274625       0.01333855
O       11.24299135       2.57050900       3.53664388       0.00624120       0.00918791       0.00305462
O       12.99724183       2.43078036       2.11969490       0.00637412      -0.01212436       0.00962126
C        9.72838040       1.35536157       2.26475538       0.00188172       0.00923732       0.00748980
C        9.97633879       1.87024008       3.66235712      -0.00075587       0.02218840       0.00305325
C       11.91516225       2.12408030       2.48494685       0.00730282      -0.00214624       0.00809817
H        9.24129349       0.38408347       2.22192880      -0.00255674       0.01151061       0.01391917
H        9.24792356       2.07564818       1.60515631       0.00718981       0.00506631      -0.00063679
H        9.23028095       2.59483473       3.97387372       0.00468925       0.03329471      -0.01027593
H       10.09510865       1.07315452       4.39786884      -0.01204807       0.02917248       0.01189923
O        6.31057379       0.82332132       7.33203942       0.00379705      -0.01596954      -0.00656896
O        8.39798874       1.55733972       7.06462320      -0.00090063      -0.00876731       0.00312510
O        8.02999670      -0.39988204       8.12772837      -0.00456637       0.00700068      -0.01168704
C        6.22616675       1.92187783       6.41853586       0.00095987      -0.01274779      -0.00245668
C        7.55650333       2.62590399       6.62425341      -0.00156778      -0.01045632       0.00152813
C        7.61799019       0.55541772       7.55875104       0.00246581      -0.01445836       0.00039789
H        5.35835552       2.51944677       6.67883103      -0.00245267      -0.01337790      -0.00357446
H        6.12185839       1.50647400       5.42025926       0.00215066      -0.00703451      -0.00629872
H        7.97624430       3.05538083       5.71781876      -0.00093509      -0.00545247       0.00176308
H        7.51722336       3.38282074       7.41070250      -0.00642180      -0.00827879       0.00107557
O        3.10413981       2.08344528       7.41762941      -0.00603012      -0.00656509      -0.01099539
O        2.37656271       2.64013941       9.44494754       0.00357825      -0.00744531      -0.00771904
O        2.88429152       0.49180167       8.99477891       0.00332583      -0.00552607      -0.01093686
C        2.91535180       3.50283214       7.36517192      -0.00734985      -0.00683836      -0.01082754
C        2.12596202       3.79398548       8.63150097       0.00242260      -0.00591758      -0.00524718
C        2.78542752       1.62777182       8.65060219       0.00076251      -0.00790209      -0.00979677
H        2.38534727       3.74020853       6.44733576      -0.01454204      -0.00825632      -0.00674063
H        3.89767316       3.98563205       7.36445685      -0.00783226      -0.00631155      -0.01977314
H        2.43427716       4.67974993       9.17574493       0.00929336      -0.00761911      -0.00671065
H        1.06167687       3.85241278       8.43337899       0.00144726      -0.00213144       0.00200123
O        3.58811943       4.22464200       3.48889820       0.01195522       0.00415391       0.00429565
O        4.58582784       2.25074613       3.71951322      -0.00559697      -0.00692374      -0.01681949
O        2.46827757       2.51171381       4.44053237       0.00545180       0.00988758       0.00392509
C        4.89377985       4.38362798       2.88880656       0.00717591      -0.00468969      -0.00726381
C        5.64478424       3.17298169       3.39613997      -0.00036699      -0.01668385      -0.02557248
C        3.44531818       2.94964289       3.92069707       0.00298619       0.00248727      -0.00142473
H        5.31802970       5.32721749       3.21251390       0.02095976      -0.01235068      -0.00425588
H        4.79169872       4.37597412       1.80521661      -0.00451466       0.00626498      -0.00597751
H        6.31364812       2.72091678       2.67445323      -0.01666132      -0.01933557      -0.03837508
H        6.20131977       3.40868906       4.30076495       0.01543558      -0.03094035      -0.03260285
O        9.80213130       4.90344924       1.98433021       0.00728863      -0.00220144       0.01177183
O        8.70351945       6.77449230       2.43348879      -0.00616661      -0.00920010       0.00630786
O        7.71472528       4.79063135       2.78391794       0.00989389      -0.01595247       0.01713538
C       10.78655463       5.94833030       1.82009994      -0.00035596       0.00392866       0.00845584
C        9.94674375       7.21883502       1.84285584      -0.00907248      -0.00178158       0.00615840
C        8.65983652       5.44682953       2.42640591       0.00518745      -0.00889215       0.01194984
H       11.30234096       5.78046368       0.88140911      -0.00018352       0.00513315       0.00845057
H       11.47404222       5.88657559       2.66106386       0.00005367       0.01033478       0.00854182
H       10.36166105       7.99517677       2.47961385      -0.01469444       0.00254375       0.00462827
H        9.72944033       7.61047434       0.85144545      -0.01046422      -0.00468001       0.00536007
O       12.31492814       1.82680368       7.88651678      -0.00821298       0.00075269       0.00255276
O       11.15138391      -0.05476082       8.09056010       0.00518686      -0.00599730       0.01534700
O       12.43359095       0.27169869       6.25953623       0.00456995      -0.00980216       0.01335740
C       11.79872414       1.82533540       9.23968534      -0.00997716       0.00807208       0.00142960
C       10.68688313       0.81131543       9.15279016      -0.00108194      -0.00237525       0.00931494
C       11.99640681       0.63384781       7.30960996       0.00055435      -0.00492102       0.01175517
H       11.44611362       2.82291353       9.48828795      -0.01906596       0.00712124      -0.00820429
H       12.58954765       1.52378861       9.92256625      -0.00845534       0.02025831       0.00480187
H       10.52846027       0.23785271      10.06059240       0.00535209       0.00281471       0.01358628
H        9.74626239       1.25202759       8.84368932      -0.00521666      -0.01288927       0.00722957
O       11.08062294       5.05926176      10.96418738       0.02623838       0.02105545       0.00779493
O       12.51881240       5.80662077       9.44843251       0.00946344       0.00761610      -0.01359797
O       13.29279254       4.87778111      11.34617336       0.02996218       0.02083880      -0.01639318
C       10.26683598       5.44595490       9.84064863       0.01259953       0.01891419       0.01692045
C       11.23302595       6.25997003       8.99186309       0.00528112       0.00309846      -0.00511530
C       12.37668604       5.22585891      10.65966242       0.02209377       0.01690567      -0.00824571
H        9.42781357       6.01986455      10.22260941       0.02329037       0.02894178       0.02413186
H        9.91448121       4.53375084       9.35523992      -0.00248066       0.01789939       0.03146495
H       11.16885609       6.07398056       7.92199544      -0.00744743      -0.01422708      -0.00088024
H       11.15941755       7.32315685       9.20380997       0.01008530       0.00652623      -0.02263346
O       10.02967664       8.26302073       6.62752128      -0.00989433       0.00298655      -0.00031811
O        8.67246298       6.69629853       5.83022325      -0.02156776       0.00699961       0.01242555
O       10.73868665       6.91536784       4.97151524      -0.02081907      -0.01444572       0.00809050
C        8.81351376       8.45426175       7.37321343      -0.00677451       0.01548058       0.00091618
C        7.87442048       7.38598350       6.80436682      -0.01529247       0.01927182       0.00848943
C        9.88862119       7.27412513       5.73268822      -0.01883596      -0.00267890       0.00806606
H        8.46415048       9.46867312       7.20292526       0.00044587       0.01710004      -0.00319786
H        9.02451921       8.31454465       8.43348119      -0.00592515       0.01937738       0.00117707
H        7.56031788       6.65858386       7.55373537      -0.01942164       0.02639103       0.01307169
H        7.01240666       7.81654146       6.30100640      -0.01236668       0.02217516       0.00642049
O        1.02131585       7.24594988       1.26942618      -0.00775298       0.00703285      -0.02395028
O        2.80800225       7.30349255      -0.05097315       0.00874239       0.00603265      -0.00094423
O        0.79669302       7.85635349      -0.88901457       0.02368402       0.02212536      -0.02303565
C        2.13682506       6.97109925       2.14206388      -0.02011061      -0.00498492      -0.01243520
C        3.25186249       6.66377409       1.15523350      -0.00927216      -0.00338188      -0.00001487
C        1.46693416       7.50205453       0.02958346       0.00903654       0.01247928      -0.01638824
H        1.88635817       6.13095068       2.78350650      -0.03183848      -0.00848997      -0.02212447
H        2.34217956       7.85254132       2.74521636      -0.02358067      -0.01031637      -0.00386214
H        4.21779943       7.07765950       1.43710450      -0.01165652      -0.00870690       0.01482488
H        3.33714580       5.59723237       0.95269646      -0.01112993      -0.00222367      -0.00593422
O        6.72171899       7.30029718      10.19799836       0.00047170      -0.01956466      -0.00709185
O        5.77787350       5.59485533      11.26655849      -0.02229491       0.00395581       0.00885767
O        7.85771829       6.25113403      11.84534737      -0.00956428      -0.02642667      -0.00393891
C        5.33159783       7.30879569       9.80659693      -0.00065525      -0.00024158      -0.00210255
C        4.91747125       5.89831613      10.15339295      -0.02416664       0.01133269       0.01265411
C        6.88473228       6.38990068      11.17332498      -0.01094538      -0.01550847      -0.00195998
H        5.26836394       7.57314064       8.75553282      -0.00058632      -0.00876403      -0.00410897
H        4.81679582       8.05775225      10.40462515       0.01480512       0.01325417      -0.00689837
H        3.88422395       5.80026955      10.47640740      -0.02300096       0.03488822       0.02104527
H        5.14650030       5.19493947       9.34692968      -0.04452695       0.00023523       0.01766211
O        2.14843869      10.13225601       1.54592731       0.00183457      -0.00218014       0.00204600
O        2.60615303      12.28665951       1.52406071       0.00491914      -0.00302234      -0.00005107
O        0.50594127      11.60292791       1.89339309       0.00455701      -0.00016470       0.00362229
C        3.58585220      10.17601105       1.32192740       0.00120693      -0.00485128      -0.00044099
C        3.85785757      11.66197948       1.12499455       0.00481713      -0.00500420       0.00358780
C        1.68601114      11.35823488       1.66655407       0.00371891      -0.00150178       0.00188591
H        3.80599902       9.59075888       0.43851211      -0.00188965      -0.00299838      -0.00235951
H        4.06581358       9.75184835       2.20019255       0.00116301      -0.00881669      -0.00250918
H        4.64381539      12.05468977       1.76299239       0.00346500      -0.00824720       0.00732642
H        4.04685592      11.91928584       0.08544300       0.00950926      -0.00365809       0.00488758
O        6.87530225       2.53559056      12.13670206       0.00812426       0.00896396      -0.00708288
O        6.93062192       2.68928098       9.91792958      -0.00218362      -0.00465789      -0.00763202
O        8.84950897       2.81821550      11.08384753      -0.00020885       0.01287864      -0.01728169
C        5.50048999       2.44622263      11.73977363       0.00713128      -0.00436587      -0.00036234
C        5.56206690       2.37538494      10.21473748       0.00012667      -0.00729313      -0.00053251
C        7.66536124       2.68281937      11.05957285       0.00411272       0.00694558      -0.01136813
H        4.98144812       3.33326132      12.09910916       0.00111696      -0.00853431       0.00058623
H        5.07606059       1.54609715      12.17192929       0.01820646      -0.00741374       0.00367628
H        5.34534032       1.37952229       9.83890576       0.00060153      -0.00825930       0.00215548
H        4.92879328       3.11924043       9.73753251      -0.00376856      -0.00969586       0.00139794
