145
Lattice="12.269370099210459 0.0 0.0 0.0 12.269370099210459 0.0 0.0 0.0 12.269370099210459" Properties=species:S:1:pos:R:3:forces:R:3 energy=-102981.125 stress="-0.0007190104806795716 5.895045251236297e-05 -0.0005360954091884196 5.895045251236297e-05 -0.00016353609680663794 6.978807869018055e-05 -0.0005360954091884196 6.978807869018055e-05 -0.0004123592807445675" pbc="T T T"
V       10.40450820      12.72814481       0.56575441      -0.00453609       0.00463857       0.01326971
O        7.81396687       8.19956773       4.31522301       0.02200437       0.07012641       0.04409230
N        6.08484462       9.48784058       3.23598823      -0.00292540      -0.00307548       0.00082386
C        6.92978507       8.85212824       3.76241827       0.00407207       0.03534749       0.01872334
O        7.61872503      11.50794587      10.58610857      -0.01045024       0.02656619      -0.03719325
N        9.84551785      12.11892129      11.18887870      -0.04144260       0.00026941       0.00832552
C        8.70517208      11.80380635      10.89704838       0.02369121       0.02678233       0.00201577
O        9.13697185      11.31436878       4.24222266       0.05210413      -0.00187580       0.03560314
N       10.23471754      12.01125425       2.25099061      -0.01569229      -0.01805929       0.05400908
C        9.65522558      11.59768476       3.23555063       0.04416652       0.01001415      -0.00331822
O       11.92170802       3.05514559       3.50075630       0.00547689      -0.02832329      -0.00549617
C       10.84456621       2.98272369       2.58016905       0.00919892       0.00285554      -0.01089728
C       11.30148842       2.58885038       1.17869740       0.00627081      -0.00222330      -0.01042685
H       10.07391359       2.29250339       2.93743638      -0.00948751       0.02102178      -0.01711372
H       10.39946355       3.97847138       2.56358278       0.03382977       0.01271275      -0.00799339
H       10.42834982       2.55170400       0.51000621       0.00777401       0.00651222      -0.01169915
H       11.99240285       3.31795201       0.74953108       0.01728842      -0.01296604      -0.00989152
H       11.89491228       1.63968673       1.17181845      -0.00156161      -0.00813693      -0.00936981
H       12.25602424       2.16403887       3.63995377      -0.01305653      -0.03619277      -0.01428821
O        7.82843005       4.07820627       4.19455289       0.01762474      -0.02285334      -0.01356518
C        7.81974773       2.72308094       4.62587035       0.00550440      -0.02058506      -0.00710915
C        7.09029590       1.81304402       3.66468942      -0.00852218      -0.01709488       0.00042969
H        8.84973602       2.37695759       4.78319617       0.00272107      -0.03112465      -0.01150187
H        7.33298979       2.71592328       5.60535860       0.01121920      -0.01193761      -0.00445843
H        7.10990786       0.77793537       4.00603881      -0.01418280      -0.01658916       0.00263201
H        6.04950767       2.12519692       3.56526644      -0.00701058      -0.00979441       0.00687954
H        7.55507580       1.85739830       2.67380010      -0.01504818      -0.02340571      -0.00269258
H        7.81125519       4.08778243       3.23255007       0.00347348      -0.02754216      -0.01318900
O        0.41669442       1.07623433       9.64287359      -0.00767931      -0.01340038       0.00194985
C        1.26412353       2.21751002       9.64336482      -0.01654220      -0.00899515      -0.00281820
C        2.53111378       1.94575283      10.42910914      -0.01444149      -0.00522543      -0.00488290
H        1.50366522       2.53027756       8.62144249      -0.01803089      -0.01173484      -0.00494087
H        0.71729931       3.04837697      10.10954059      -0.01723099      -0.00874671      -0.00432849
H        3.02417009       2.86993134      10.72627965      -0.01228546      -0.00420636      -0.01215765
H        2.27246786       1.39496519      11.33454570      -0.01140353      -0.00080050      -0.00072041
H        3.23697577       1.34373158       9.86012254      -0.01820811      -0.00879273      -0.00591595
H        0.27031415       0.75720867       8.74130696      -0.04595925       0.01409746       0.00319244
O        3.60475754       3.78360131       0.83702537      -0.01366365       0.01184970       0.00885259
C        3.64360325       2.55729446       1.57909976      -0.00317524       0.00705487       0.00017697
C        3.03469092       2.69894415       2.95464898       0.00706579      -0.00367473       0.00557852
H        3.12205687       1.78009550       1.01273043      -0.00460339       0.00898412      -0.00113282
H        4.69420933       2.26693815       1.63475559      -0.00161237       0.01048633      -0.00957650
H        3.02345939       1.73372744       3.46459820       0.01363701      -0.00666167      -0.00015154
H        3.59027408       3.40777097       3.56790613       0.01002036      -0.00567791       0.00539289
H        2.00503873       3.05687388       2.88102525       0.00534713      -0.00689016       0.01590843
H        2.88107976       4.32220303       1.17414767      -0.01093474       0.00815717       0.02049565
O        5.80975126       5.56246810       0.49924746       0.00296041      -0.02113083       0.00056088
C        6.13761312       6.16689554       1.75549220       0.00873842       0.00123913      -0.01273102
C        5.33020202       5.58421445       2.89199030       0.01283884       0.02506578       0.00200927
H        7.20990867       6.01301675       1.94017708       0.00934911       0.00111012      -0.01633035
H        5.97117520       7.24497911       1.68792174       0.01079272       0.00036550      -0.03011144
H        5.63885996       6.01591408       3.84411020       0.01803616       0.04356511      -0.00833140
H        4.26734236       5.77545918       2.74212889       0.01276354       0.02581729       0.00374632
H        5.47905794       4.50441961       2.95168267       0.00994158       0.02613968       0.02280301
H        5.08622247       4.93536676       0.65002623      -0.01312202      -0.00026022       0.00857742
O       11.45583620       0.25443078       7.10592598       0.02302653       0.01186628       0.04329091
C       10.28646654       1.04330799       7.37355370       0.00943995       0.00022191       0.01329128
C       10.59284713       2.52374970       7.31441820      -0.01327004       0.00295830      -0.01520057
H        9.48079981       0.76614172       6.68591829       0.02299213      -0.02750908       0.00964391
H        9.97575250       0.75259696       8.37739636       0.00308514       0.01652209       0.01572222
H        9.70876398       3.11264449       7.55751148      -0.02236281      -0.00714605      -0.02392788
H       11.36887290       2.76965532       8.04035990      -0.01644422       0.03026394      -0.02123947
H       10.93284846       2.83446552       6.32393375      -0.01899490      -0.00916476      -0.02068114
H       11.63990023       0.31792904       6.16461742       0.03264001      -0.01447970       0.04482305
O        8.28630894       2.83750073      12.31029657      -0.00114793      -0.01365066      -0.00018170
C        8.64548113       4.07995140      11.67836752      -0.00401430      -0.01023717       0.00436616
C        9.13877183       3.86625404      10.26604972       0.00482267      -0.00433375       0.00671023
H        7.79246448       4.76358082      11.71602501      -0.00800395      -0.01542249       0.00133689
H        9.43212953       4.50264833      12.30579718      -0.01010922      -0.00731565       0.01007178
H        9.46876031       4.81195564       9.82955812       0.00281118      -0.00149719       0.01110321
H        9.97527316       3.16492947      10.23936050       0.00810692      -0.00054812       0.00897799
H        8.33202477       3.47509927       9.64476303       0.00986458      -0.00567464       0.00112428
H        7.51055928       2.50046714      11.84887378      -0.00037569      -0.01314736      -0.00158688
O       10.99462802       5.70160268       5.80812855       0.00681454      -0.00762659       0.00593284
C        9.73025086       6.36329455       5.71130067       0.01427078       0.00492714      -0.00004937
C        8.70783724       5.81316589       6.67957622       0.00491369       0.01736805      -0.00301749
H        9.84460400       7.44526683       5.84496761       0.02539284       0.00413150      -0.00129291
H        9.38775472       6.20901634       4.69211454       0.01717632       0.00647429      -0.00154346
H        7.75518419       6.32357074       6.53638217       0.01425299       0.03520685       0.00097127
H        8.56129246       4.74912088       6.50606524      -0.01337740       0.02084796      -0.00858083
H        9.02394875       5.95502401       7.71673584       0.00774572       0.00630531      -0.00256920
H       11.28925123       5.76026052       6.72115991       0.01429476       0.01137961       0.00209847
O        1.95030376       6.88644515       2.52321225       0.00568318      -0.00964308       0.00388426
C        2.36331441       7.33258704       3.82626542      -0.00234453      -0.00367787       0.00485829
C        1.28860114       8.13287597       4.52510397      -0.00636655       0.00030231      -0.00608608
H        2.64317550       6.46431953       4.43458254      -0.00707742      -0.00114316       0.01040530
H        3.26555953       7.92457320       3.66298143      -0.00091240      -0.00519428       0.00793125
H        1.63353690       8.43696321       5.51431298      -0.01043796       0.00810996      -0.00718933
H        1.03014011       9.02694514       3.95719378      -0.00458727      -0.00434223      -0.01392853
H        0.38672259       7.53073876       4.66310562      -0.00643319       0.00054948      -0.00549907
H        1.02096541       6.64768295       2.59177757       0.00437772      -0.00581173      -0.00138350
O        2.71926965       9.48619805       9.50620655       0.00570665      -0.01313162      -0.02342464
C        3.16854210      10.83516033       9.58679210       0.00044072      -0.01167715      -0.01844846
C        4.59300108      10.94446203      10.08025942      -0.00163889      -0.00925306      -0.01200241
H        3.07167603      11.30913526       8.59966923       0.00287392      -0.01247752      -0.01844436
H        2.47684349      11.35681603      10.25166260      -0.00264686      -0.01243263      -0.02092460
H        4.90245980      11.98739884      10.16455917      -0.00628784      -0.00847179      -0.00414686
H        4.70375293      10.46591690      11.05349033      -0.00437145      -0.01415695      -0.01418370
H        5.28664984      10.46351829       9.38542143       0.00272055      -0.00270748      -0.01163097
H        3.49860941       8.92572999       9.49763675       0.00452393      -0.01215312       0.02338988
O        4.15602468       8.78737141       0.56199066      -0.03187166      -0.00623721       0.00002199
C        3.70658171       9.91575263       1.31006820      -0.02137893       0.00233138      -0.00690491
C        2.24109469      10.20936836       1.05611043      -0.02055281       0.00941760      -0.00390299
H        3.92353552       9.77581731       2.37125693      -0.01901373       0.00907670      -0.00645423
H        4.34133807      10.74506529       0.98956286      -0.01792926      -0.00406539      -0.01625744
H        1.92454035      11.11068687       1.58889803      -0.01497015       0.01005505      -0.00193878
H        2.04891575      10.34360388      -0.00891702      -0.02240917       0.01112272      -0.00347593
H        1.62447055       9.37970720       1.40780244      -0.02366035       0.01225004      -0.00261196
H        3.66781183       8.02004021       0.87557407      -0.03499461      -0.00016290       0.00985110
O        5.83510728       3.34992952       9.27799877       0.00176585       0.00255057       0.00494659
C        4.99429553       4.46848621       9.57805200       0.00191626       0.00340629       0.00360668
C        5.60838350       5.79029137       9.17591760       0.00425905       0.00257790       0.00476828
H        4.01525848       4.33786534       9.10079710       0.00281754       0.00419676       0.00169274
H        4.84448062       4.43464271      10.65562030       0.00004481       0.00357985       0.00307173
H        4.96468716       6.61169852       9.49419996       0.00476058       0.00329649       0.00375338
H        6.57712157       5.92450901       9.65602296       0.00343801       0.00091369       0.00667383
H        5.73709882       5.85732458       8.09316309       0.00617422       0.00304197       0.00517790
H        5.97424061       3.33742797       8.32701880      -0.00113546      -0.00050831       0.00482365
O        6.87955630      10.37745778       6.73345168       0.01867723      -0.03965199      -0.02965255
C        5.51183525      10.50683271       6.35446106       0.01239419      -0.01702002       0.01519219
C        4.79240118       9.17125933       6.35948484      -0.01394799      -0.01039445       0.02341370
H        5.07131507      11.18852967       7.08584798       0.03406966      -0.01580372       0.01355216
H        5.42661078      10.96296200       5.36180482       0.00477684      -0.02109399       0.01399052
H        3.71184953       9.30411281       6.28752581      -0.01233740       0.03624173       0.00389721
H        5.11747459       8.57425260       5.50684995      -0.00811701      -0.02692202       0.03831165
H        5.01428169       8.63044957       7.28152514      -0.03580854       0.00756433       0.03755936
H        7.29697418       9.76593549       6.11293347       0.00954680       0.05592142      -0.07016292
O       11.07502718       8.76442859       8.96611107      -0.01182152      -0.00039540      -0.02100807
C       10.38097694       8.23536516      10.08465950      -0.00271362       0.00083396      -0.01497692
C        8.87631552       8.24996469       9.90303985      -0.00389260       0.00395817      -0.00360287
H       10.73184930       7.21632864      10.30501350      -0.00299516      -0.00037104      -0.01852921
H       10.67506077       8.85954618      10.93089177       0.00577351      -0.00033912      -0.01707497
H        8.36208259       7.90117820      10.80102264       0.00246047       0.00483565       0.00003979
H        8.52250940       9.25365197       9.67197675      -0.00272165       0.00473744      -0.00133396
H        8.58046137       7.59917399       9.07743585      -0.01141163       0.00520179      -0.00173914
H       10.69413291       8.38448316       8.16943039      -0.03402368       0.01688128      -0.01771592
O        9.79115068       9.01995307       2.63732427       0.02452302      -0.00488424       0.01523978
C        9.32635804       8.45068225       1.42896315       0.01926987       0.00420642       0.01163620
C       10.10710705       7.19309845       1.09118877       0.00520688      -0.00329417       0.00730158
H        8.25415486       8.24060490       1.48828034       0.01702356       0.01565304       0.01019784
H        9.46065508       9.19469789       0.63387717       0.02806428       0.00486779       0.01408270
H        9.75703495       6.74645554       0.15947521       0.00249374       0.00644765       0.00331184
H       11.16819654       7.42860248       0.98419995       0.00832729      -0.01625385       0.01145267
H        9.99214468       6.45926354       1.89199800      -0.00598640      -0.00695849       0.00189166
H        9.18721398       8.71547058       3.34823955       0.01403449       0.01297890       0.01339823
