142
Lattice="12.227820114117153 0.0 0.0 0.0 12.227820114117153 0.0 0.0 0.0 12.227820114117153" Properties=species:S:1:pos:R:3:forces:R:3 energy=-190505.53125 stress="-0.0011681177420541644 0.0010333380778320134 -9.642831355449744e-05 0.0010333380778320134 -0.0004623692948371172 -3.9671847844147123e-05 -9.642831355449744e-05 -3.9671847844147123e-05 -2.1666694010491483e-05" pbc="T T T"
V       11.32999027      11.81164678       1.98541914       0.01584204      -0.02294978       0.00828093
P        0.76947557      11.07042219       4.62292522       0.00382176       0.00347087       0.00615561
O        0.55246059      12.11579727       3.21764598       0.01137275       0.00439388       0.00540823
O        2.33661071      10.81584077       4.51111001       0.00337547       0.00196776       0.01860967
O        0.40114024      11.93055805       5.76148867      -0.00696374       0.00115985       0.00451982
O        0.03854620       9.87192043       4.16285959       0.00881079       0.00391394      -0.00243363
H        0.76648540      13.04140037       3.46029707      -0.00013095       0.00644851       0.00512907
H        2.87268543      11.35994930       5.10569392       0.00194491       0.00071272       0.02114373
P        8.92423290       9.03625455      10.76546178       0.00467729      -0.00537890       0.00711104
O        9.69920940      10.40279904      11.22269227      -0.00757009      -0.00246668       0.01721364
O        7.48291630       9.66514455      10.40845367       0.00727558      -0.01060116      -0.00573640
O        9.56285812       8.46226454       9.54898457       0.01944965      -0.00263762       0.01415813
O        8.81764631       8.21889043      12.01534325      -0.00262043      -0.00765526       0.00477600
H       10.03010021      10.86901237      10.44893796      -0.02083313       0.01355898       0.02153613
H        6.96723749       9.01637928       9.88971798       0.00751355      -0.01689652       0.00077768
P        5.26104438       1.83227831      11.56259541       0.00314516      -0.00801843       0.00556368
O        4.49334953       0.96671334      10.43517630      -0.00475907       0.00017130       0.00423646
O        4.38781972       1.33631546      12.86411717      -0.00281286       0.00190002       0.00410354
O        6.66685388       1.36267396      11.69215259      -0.00239062      -0.02412838       0.00639200
O        4.97007238       3.26999411      11.29997014       0.01874658      -0.00573123       0.00294721
H        4.94221697       0.13060505      10.26996175      -0.01671269      -0.00691193       0.00885917
H        4.67445483       1.74757439      13.68954799       0.00269830      -0.00595272       0.00596440
O        9.89500215       7.40431510       5.54967617      -0.01453125       0.01358035      -0.00542546
O       11.77959897       6.92351278       6.61299499      -0.01200435      -0.01306608      -0.02322271
O       10.88171640       5.42705218       5.18792672      -0.03247743       0.00994790      -0.03296393
C       10.13343998       8.57610066       6.36811073       0.00021070       0.00235522       0.00563633
C       11.40650806       8.22695808       7.13304306       0.00295472      -0.01568399      -0.00780237
C       10.86205849       6.49571160       5.74607358      -0.02060804       0.00387663      -0.02221006
H        9.28499665       8.70195770       7.03669673       0.00595012       0.00197209       0.01304793
H       10.26325546       9.42157272       5.69627516       0.00200178       0.00862703       0.01385418
H       12.22305986       8.91627138       6.92458609       0.00733894      -0.02055731      -0.00762263
H       11.21397961       8.14408661       8.20129967       0.01135886      -0.02488093      -0.00765085
O        3.66637055       7.99235941       2.83763067      -0.01010087       0.00213574      -0.00040036
O        3.56072523       7.94785864       5.05602251       0.00896558       0.00487033       0.00025415
O        5.41609870       8.71267182       4.04334134      -0.00264573       0.01127762      -0.01600648
C        2.31121508       7.58913708       3.12120182      -0.00524300      -0.00491101       0.01117808
C        2.31548088       7.34495648       4.62794160       0.00634809       0.00232458       0.01225239
C        4.30419215       8.26489643       3.99671480      -0.00241226       0.00617024      -0.00655471
H        2.09945260       6.69108741       2.54493831      -0.00378039      -0.00911200       0.01718703
H        1.64856407       8.40773969       2.84226370      -0.01231408      -0.01030412       0.01240026
H        1.50031185       7.86197965       5.12513779       0.00997514       0.00471565       0.01567250
H        2.33402265       6.29190298       4.89540557       0.00845344       0.00368071       0.01699525
O        6.42130218      -0.36000537       8.44525348      -0.02325532      -0.01104397      -0.01287961
O        6.44763304       1.48565939       7.20419953      -0.02674869       0.00068307       0.00523713
O        5.01951834      -0.18611893       6.68672934      -0.03102314       0.00795549      -0.00428081
C        7.53796083       0.40951085       8.94192748      -0.02179825      -0.01601547      -0.00843486
C        7.26048266       1.78176260       8.35739541      -0.02091789      -0.01062143       0.00377472
C        5.87543246       0.26619678       7.38148365      -0.02713335      -0.00000232      -0.00386220
H        8.45357945      -0.04528861       8.55560669      -0.02318898      -0.01417983      -0.01361948
H        7.52004049       0.41309108      10.03120651      -0.01970898      -0.02512027      -0.00849259
H        6.68826874       2.41153450       9.03837657      -0.01587710      -0.01417211       0.01089573
H        8.15916523       2.30403474       8.03139822      -0.02070534      -0.01076011       0.00404185
O       11.71903912       8.06723798       0.47268489       0.00481880      -0.00825096      -0.02239180
O       10.44466528       8.43327139       2.23147724       0.02383769      -0.00283183      -0.01073998
O       11.60511297      10.10411068       1.28937367       0.02763250      -0.00925386      -0.01538140
C       11.09706257       6.77776804       0.70879979       0.00417170      -0.00695795      -0.01358557
C       10.23286381       7.02032830       1.95119922       0.01228702      -0.00145221      -0.00925559
C       11.23803335       8.91830156       1.32777876       0.01892829      -0.00737091      -0.01646224
H       11.90901881       6.08078338       0.86924386       0.00504270      -0.00623506      -0.01583668
H       10.50985221       6.54940099      -0.17316920      -0.00080213      -0.00956173      -0.00940245
H        9.17633339       6.90417188       1.74173019       0.01050410       0.00693406      -0.00352062
H       10.54102435       6.47294856       2.84002504       0.01330861      -0.00270668      -0.01054469
O       12.33129998       2.45029032       3.30391186      -0.01364880       0.00568862       0.00203508
O       12.39455481       4.39436109       2.23378366       0.00542575       0.00357136       0.00202226
O       13.58865806       4.13753641       4.13258303      -0.02304953      -0.01475239      -0.01412296
C       11.57044041       2.23545571       2.10831454      -0.00940509       0.01018468      -0.00264792
C       11.37923865       3.63198515       1.54500016       0.00139651       0.01150726      -0.00095960
C       12.85124352       3.72964646       3.30722147       0.01665217       0.01173657       0.02764064
H       10.61874650       1.76380960       2.35701049      -0.01209241       0.01565592      -0.00720055
H       12.14233375       1.59352662       1.41105970      -0.01008580       0.00588951       0.00243950
H       11.53600571       3.70063213       0.47223042       0.00384171       0.01234330      -0.00020272
H       10.40126284       4.04099095       1.79442733       0.00419283       0.01768342      -0.00014673
O        7.53056160       0.78325602       4.51257307      -0.00441334       0.00565054       0.00723030
O        7.18613838       2.92511950       4.01490486      -0.00839941       0.00271133      -0.00186352
O        5.51548679       1.44109421       3.73299589      -0.00126803      -0.00396958      -0.00817290
C        8.73979999       1.46160384       4.87830491      -0.00802091       0.01020002       0.01072857
C        8.60921213       2.78814461       4.14679350      -0.00888349       0.00871205       0.00795922
C        6.63041135       1.69518577       4.06506639      -0.00412005       0.00127877      -0.00156866
H        9.58879352       0.85489543       4.56773098      -0.00471416       0.01249027       0.01492442
H        8.75549040       1.58153159       5.96151237      -0.01280514       0.01221617       0.01035953
H        9.01173461       3.64496906       4.68298047      -0.01595248       0.01117441       0.00891832
H        9.01997483       2.75066705       3.13620410      -0.00151803       0.00929131       0.01123789
O        8.28467757      10.31872957       1.76997934       0.01203632      -0.00939110       0.00865551
O        7.26735771      12.26144512       1.84295868       0.02246740      -0.00407773       0.00710738
O        9.47652793      12.19513670       2.00446308       0.02074367      -0.01644707       0.01820771
C        6.87714232       9.99567414       1.48983619       0.01266381      -0.00116086      -0.00325072
C        6.17423572      11.28355657       1.87934924       0.01618874       0.00229239      -0.00869863
C        8.37639123      11.60781335       1.86257031       0.01819360      -0.01042926       0.01170654
H        6.60859487       9.16895081       2.13711017       0.00302527       0.00029093      -0.00581214
H        6.83040864       9.74061999       0.43360731       0.02041738      -0.00071634      -0.00347573
H        5.41961523      11.64408033       1.18847411       0.02801242       0.00832041      -0.01796031
H        5.79790989      11.28017803       2.90070475       0.00372885       0.00276571      -0.01365787
O        1.96811907       2.62450923       9.81224776       0.00365283       0.00850952      -0.01142552
O        2.49818758       4.74698932      10.21476648       0.02011305       0.00187510      -0.00007847
O        2.66193546       3.92963788       8.12008340       0.01487231       0.01206645      -0.00458646
C        1.84247096       2.74566170      11.23229922       0.00527538       0.00201756      -0.01067968
C        2.11463099       4.23031791      11.49105385       0.01023908      -0.00032586      -0.00403777
C        2.41955359       3.78586759       9.27829295       0.01232380       0.00785139      -0.00493610
H        2.57196372       2.09722525      11.70659512       0.00327659      -0.00290760      -0.01479670
H        0.83081122       2.44646714      11.50045622       0.00452542       0.00467803      -0.01115300
H        1.22562996       4.77028097      11.81409921       0.01031470       0.00213775      -0.00806459
H        2.94037066       4.37394747      12.17914260       0.00633866      -0.00571846       0.00152716
O        4.16617367       4.97160441       2.19296959       0.00071691       0.00037338       0.00291681
O        5.95206892       5.62105611       3.34544930       0.00156933       0.01377735      -0.00648808
O        4.22060445       4.69090931       4.42418794       0.00942725       0.01133317       0.00364041
C        5.06463472       5.49350086       1.18807955      -0.00957954       0.00751038      -0.00196564
C        6.25504838       6.00736809       1.99905653      -0.00101167       0.00167480      -0.01043162
C        4.73159605       5.05267688       3.40874600       0.00429782       0.00855654       0.00050497
H        4.54950974       6.28939886       0.65325355      -0.01479286       0.01180485       0.00973293
H        5.29431325       4.67744825       0.50294505      -0.01581240       0.01197833      -0.00916851
H        7.19154599       5.53721920       1.71415662      -0.00662401      -0.00880295      -0.01103440
H        6.35255010       7.09036982       1.97527954       0.00926238       0.00028855      -0.01868246
O       11.44942286       1.88761033       9.44010951       0.00497960       0.00733012      -0.00256374
O       11.70561929       3.71124593       8.20411609       0.01008322       0.00512960      -0.00479230
O       11.44258942       3.91558218      10.41701653       0.00125816       0.00942433      -0.00515938
C       11.79407017       1.37591657       8.13473370       0.00714673       0.00472754      -0.00096345
C       11.97035489       2.63628214       7.28020712       0.01118863       0.00299299      -0.00224614
C       11.53130705       3.22665966       9.43519270       0.00534339       0.00626633      -0.00609910
H       10.98821998       0.72923860       7.79236834       0.00754765       0.00471288      -0.00193396
H       12.70734728       0.79599311       8.22038430       0.00617158       0.00365844       0.00243622
H       12.98216195       2.76735300       6.90464827       0.01232255       0.00105210       0.00003044
H       11.25664449       2.71524459       6.46156642       0.01320952       0.00238485      -0.00417519
O        8.30433872       4.42814560      12.27201922       0.00987828      -0.00996676       0.00051194
O        8.74332146       3.33893147      10.39494309       0.00023163      -0.01383310       0.00050032
O        9.34193692       2.43801866      12.37943691       0.00876051      -0.01160789      -0.00006527
C        7.69048110       5.21720716      11.20817757       0.00525397      -0.01136169       0.00224569
C        8.43093451       4.69653941      10.00080496      -0.00291848      -0.01495555      -0.00106847
C        8.82375707       3.30383168      11.73309250       0.00578427      -0.00976223      -0.00097504
H        7.86704076       6.27173865      11.42062544       0.00725585      -0.01112187      -0.00040202
H        6.63281974       4.95912728      11.16283538       0.00500089      -0.01081765       0.00852184
H        7.81634006       4.65757250       9.10812124      -0.00939491      -0.01738864       0.00360894
H        9.36586940       5.22644572       9.80963030      -0.00429666      -0.01573312      -0.00924225
O        5.81610778       5.61810793       8.11454324      -0.00283468       0.01181304       0.01044711
O        7.05521750       7.25410512       7.27045779      -0.01052487       0.01305296       0.00222501
O        6.20914931       7.44671261       9.34575838      -0.00036144       0.01103252       0.00755000
C        6.23667351       5.11934604       6.82714972      -0.00818697       0.01077616       0.00964803
C        6.84773374       6.34769006       6.16289602      -0.01736665       0.01193509       0.00378609
C        6.34790618       6.82896078       8.32268247      -0.00366598       0.01164031       0.00572610
H        5.37184524       4.72258610       6.30458255      -0.00972700       0.00612843       0.01687929
H        6.96717459       4.32450173       6.99258777      -0.00473273       0.01392278       0.00895469
H        7.81031602       6.16492457       5.69334569      -0.02117145       0.01460437      -0.00476246
H        6.18304004       6.83557309       5.45792995      -0.02592114       0.01015180       0.01055712
