148
Lattice="12.408620728500548 0.0 0.0 0.0 12.408620728500548 0.0 0.0 0.0 12.408620728500548" Properties=species:S:1:pos:R:3:forces:R:3 energy=-118833.296875 stress="0.0004381657636258751 -0.000608155969530344 0.00025812875537667423 -0.000608155969530344 0.0004725267644971609 -0.00019019485625904053 0.00025812875537667423 -0.00019019485625904053 0.00029078416991978884" pbc="T T T"
V       12.95091424      13.40480495       1.06810527       0.00817585       0.00390258      -0.00327975
B        4.07535053      11.14124157       5.39703708       0.01652043       0.00955800      -0.01138944
F        5.05231042      10.60806098       4.69752680      -0.02119687      -0.00203016       0.00291178
F        3.29630237      10.35631141       6.11403175      -0.01710308      -0.02411404       0.00734516
F        3.94595750      12.44361011       5.47172007       0.00607784      -0.04421307       0.01900676
F        2.40695416      10.85636438       3.53986835      -0.02697828       0.01200990      -0.00327539
B        2.26072349      10.61690630       2.20174514      -0.00867799      -0.00316596      -0.00256957
F        1.73518379      12.05904532       1.64046551       0.00954166       0.00094742      -0.02305938
F       -0.57792592      12.84582458      -0.10563919      -0.00049883       0.00819159       0.00200534
F        3.38041655      10.40218809       1.51161430      -0.00163305      -0.01514278       0.01592878
F        1.20904291       9.79709054       1.91425372      -0.01291645       0.00374690      -0.01193604
B        5.97397143      10.49910865      10.46167681      -0.02109874       0.02252379       0.00365133
F        7.20815238       9.96209057      10.87835086      -0.01015687       0.02568430      -0.02349466
F        4.96881835       9.57520296      10.60166691      -0.02784276       0.02261436      -0.02026348
F        5.69774579      11.63842894      11.30323074       0.01131368       0.02295637      -0.01605308
F        6.08183354      10.95855219       9.14075540       0.04379729      -0.00109351      -0.00890172
O       11.72090079      10.37514228       8.19540187      -0.02639951       0.01194525      -0.01089489
C       11.31853434      10.87846445       9.46342400      -0.00294816       0.00797671      -0.01474988
C       10.98306728      12.34353715       9.25771266      -0.00425322       0.00931561      -0.00726219
C       10.15054359      10.09971216      10.03563480       0.00225908       0.01425040       0.00485364
H       12.16447113      10.81069959      10.16726387      -0.00252372       0.01000003      -0.01844960
H       10.63793616      12.79557494      10.18625271       0.01004403       0.01416830      -0.00144039
H       11.85708079      12.89015331       8.90004791      -0.00886777       0.00439480      -0.02160258
H       10.19270880      12.42346005       8.50913271      -0.01301049       0.00751780       0.00341421
H        9.86577172      10.49034380      11.01259066       0.01035440       0.01257957       0.01144665
H       10.40718585       9.04403694      10.15878644       0.00043613       0.01125573       0.00035763
H        9.26938681      10.17422127       9.39906045      -0.00372618       0.01411585       0.01050848
H       11.56931847       9.41797210       8.16505148      -0.01089609       0.00297558      -0.00166237
O       11.11951933       7.72569405       7.46131976       0.00182435      -0.00404254       0.00478798
C        9.82850228       7.13634639       7.69912317      -0.00112131      -0.00113183       0.00857145
C        8.71836599       7.99711218       7.12828121       0.00257504       0.00376642       0.00772280
C        9.80626247       5.71513663       7.16301740      -0.00506280      -0.00033194       0.00674510
H        9.74413360       7.11415948       8.78741601      -0.00113157      -0.00100810       0.00696576
H        7.74260659       7.61219233       7.42352367       0.00039256       0.00685123       0.00669231
H        8.79871709       9.02204610       7.48461438       0.00644850       0.00333217       0.00843216
H        8.75942437       8.00070492       6.03520218       0.00393981       0.00388288       0.00780568
H        8.87333922       5.21266926       7.42497416      -0.00707772       0.00331237       0.00673956
H       10.64035554       5.14124505       7.56924563      -0.00755543      -0.00410060       0.00703249
H        9.88742934       5.72157452       6.07167563      -0.00534919      -0.00095531       0.00669788
H       11.18344391       7.92334802       6.52086855       0.00594185      -0.01483019       0.01037323
O        2.94677896       7.31038413       6.32506294       0.00470469       0.00061190       0.00330263
C        2.56164421       6.74471636       5.07462631      -0.00105047      -0.00854335      -0.00251991
C        1.04609306       6.66114759       4.95346670      -0.00133127       0.00037826       0.00405704
C        3.16275176       7.50506428       3.90651496      -0.00174749       0.00062454       0.00269145
H        2.96970833       5.72859191       5.10226957      -0.00418447      -0.00502968      -0.00768482
H        0.76584542       6.11513899       4.04984499      -0.00528441       0.00441044       0.00265600
H        0.61030222       6.16726032       5.82233439      -0.00035648      -0.00206644       0.00319915
H        0.62651614       7.66697632       4.87092939       0.00110449       0.00164370       0.00895286
H        2.97684544       6.98972306       2.96241448      -0.01287449       0.01001181      -0.00154868
H        4.23733422       7.62359141       4.02776634      -0.00098790      -0.00827349      -0.00433020
H        2.71691361       8.49730945       3.83563004       0.00477989       0.00427873       0.01332334
H        2.86829957       8.26939525       6.26894651       0.00693136      -0.02535868       0.00905108
O        6.41901664       3.76634883       8.77782239       0.00912493      -0.00490791      -0.02533998
C        7.53537747       3.02686391       9.27525128       0.00084436      -0.00344467      -0.00354272
C        8.23506607       3.76373517      10.40540847      -0.00796211       0.00454175      -0.00297195
C        7.14997784       1.61181797       9.66553618      -0.00832781       0.00276995       0.00658047
H        8.22231005       2.99097546       8.42373524       0.01027691      -0.01323078       0.00478595
H        9.16466232       3.25276755      10.66238901      -0.01066147       0.00506333       0.00726262
H        8.46484102       4.79028330      10.11794229      -0.00040971       0.00116639      -0.00888925
H        7.60757352       3.78371720      11.29996995      -0.01332015       0.01124821      -0.00686367
H        8.03154426       1.01591893       9.90829795      -0.01369527       0.00134889       0.02022021
H        6.61057252       1.09874776       8.87004688      -0.00143428      -0.00312998       0.00657606
H        6.50970318       1.60431280      10.54883949      -0.01611476       0.01410319       0.00072788
H        5.81257135       3.97988387       9.50476928      -0.00367773      -0.00538494      -0.03689549
O       11.55829323       7.11670167       0.30847131       0.00826490      -0.00912821       0.02141266
C       10.46004398       7.84815773       0.88260563       0.00677729      -0.00048406       0.00534070
C        9.20715985       7.04086739       0.62879129       0.00509846       0.00662112      -0.00872792
C       10.71592931       8.09689474       2.35982377      -0.01100482       0.00060441       0.00785947
H       10.36525905       8.81008875       0.36583909       0.01933387      -0.00121462       0.00255576
H        8.32755369       7.60516255       0.93522864       0.00460275       0.01299368      -0.02117459
H        9.10465041       6.81119995      -0.43110097       0.01663353       0.00475740      -0.00930573
H        9.23217754       6.10700539       1.19424094      -0.00757338       0.00739983      -0.00718819
H        9.86917441       8.60687567       2.82106676      -0.01283860       0.00802784      -0.00468282
H       11.60719991       8.71033342       2.49895866      -0.00881596      -0.00498511       0.01766589
H       10.86543044       7.14687446       2.87565901      -0.02469028       0.00062239       0.01142507
H       12.34362020       7.66546899       0.39746023       0.01078967      -0.01009725       0.02735950
O       12.08672832       2.66834378       1.67806848       0.00632953       0.00033420       0.00245297
C       10.72011316       2.89116120       2.30172028       0.00393498      -0.00182079      -0.00280118
C       10.83165348       4.10462806       3.18625353      -0.00221104      -0.00101134      -0.00305021
C        9.69088385       3.02062966       1.21319735       0.00711355      -0.00377782      -0.00601140
H       10.58220843       1.97324807       2.87340357       0.00282127      -0.00152865      -0.00232983
H        9.84881252       4.33368956       3.60181316      -0.00406414      -0.00465992      -0.00537648
H       11.53873879       3.95114682       4.00095889      -0.00370404       0.00190262      -0.00118805
H       11.14435473       4.97059165       2.59605644      -0.00410597       0.00000562      -0.00268480
H        8.72061589       3.21024671       1.67772260       0.00480518      -0.00979885      -0.00841224
H        9.60383337       2.11440666       0.61655086       0.01259122      -0.00251147      -0.00858198
H        9.91920960       3.86938497       0.56625012       0.00451586      -0.00088455      -0.00315344
H       12.39393380       3.52687682       1.35191298       0.00640714       0.00162256       0.00390399
O        6.83118964       2.14620936       5.50838250      -0.00287786      -0.00438923       0.00391984
C        8.04566038       1.42271559       5.22901433      -0.00496045      -0.00766009       0.00505543
C        9.24892459       2.11656906       5.84401534      -0.00222433      -0.00716788      -0.00021470
C        7.92713299      -0.02371878       5.66556042      -0.00603843      -0.00611418       0.00949049
H        8.11872291       1.47258349       4.13809837      -0.00580138      -0.01129854       0.00437331
H       10.17706460       1.66732861       5.48451006      -0.00367279      -0.00920117      -0.00171620
H        9.24949153       3.17877651       5.60053766      -0.00212031      -0.00792369      -0.00295473
H        9.23945425       2.00720876       6.93003027       0.00073066      -0.00483285       0.00025256
H        8.84910772      -0.56503937       5.44420516      -0.00661463      -0.00787772       0.01110232
H        7.10531618      -0.51557710       5.14967441      -0.00666258      -0.00719482       0.01221344
H        7.75034441      -0.08760463       6.74215605      -0.00537125      -0.00318063       0.01036873
H        6.71878459       2.22522510       6.46438694      -0.00293326      -0.00026086       0.00261566
O        7.50531041      12.41875757       0.72229703       0.01476663       0.00400925      -0.01230413
C        8.15491145      11.24119862       1.19019374       0.00495410       0.00049031       0.00047803
C        9.37866391      11.69987239       1.95897250       0.00038517      -0.00104079       0.00944802
C        7.21685478      10.39204063       2.03513280      -0.00699633       0.00969121      -0.00441957
H        8.46913845      10.64518661       0.32660245       0.00943895      -0.00290293       0.00477666
H        9.98710894      10.85754146       2.28941063      -0.00462029      -0.00048131       0.02046179
H        9.99019628      12.33217612       1.31753260       0.00862239      -0.00753157       0.01126029
H        9.07739578      12.27506725       2.83770447      -0.00414469       0.00471120       0.00379307
H        7.72475995       9.48967825       2.38676893      -0.01465574       0.00935208       0.00643106
H        6.34727003      10.08741115       1.45201466      -0.00166060       0.00954633      -0.01240607
H        6.86882042      10.95484301       2.90197928      -0.01441743       0.01517606      -0.01185217
H        6.83302177      12.13176841       0.07221314       0.01802132       0.00882743      -0.01433915
O        4.21934525       5.04899910      10.05580415       0.01371297       0.00588110      -0.02429771
C        2.98270730       4.40341386      10.40236560       0.00926036      -0.00596994      -0.00288248
C        1.80366339       5.10583232       9.75590204       0.00516081       0.00321499      -0.00594240
C        3.05274797       2.92726900      10.05082427       0.00168847      -0.00983298      -0.01533780
H        2.91507335       4.51623312      11.48931996      -0.00061592      -0.01599105      -0.00694823
H        0.86465517       4.64231117      10.06321915       0.00216657      -0.00182372      -0.00092508
H        1.77005961       6.15888647      10.03313531       0.02404664       0.00639006      -0.00821935
H        1.86859629       5.04133366       8.66678400       0.00686776       0.00745489      -0.00651605
H        2.13321918       2.40644295      10.32897684      -0.01028894       0.01389311      -0.00083100
H        3.88935507       2.44340524      10.55646541      -0.00141811      -0.02626557      -0.01494120
H        3.19987871       2.80840419       8.97598236      -0.01264086      -0.02489142      -0.01854889
H        4.15946761       5.33661988       9.13733233      -0.01567352       0.01333617       0.01800460
O        4.19810026       0.96476219       2.70324707       0.00024101       0.01165181       0.01544571
C        4.10174327       1.64088075       1.45464459       0.00202522      -0.00236362       0.01492715
C        2.71052892       2.31367906       1.33769251       0.00561348       0.00270087       0.01268327
C        5.21835301       2.65118657       1.27960516       0.00635910      -0.01287776      -0.00932789
H        4.18309060       0.86119898       0.69303786      -0.00821362      -0.01305836       0.02107549
H        2.75493416       3.40644980       1.35711992       0.00771831       0.00213659       0.03564084
H        2.21240399       2.03030392       0.37479899       0.01237783       0.02318696       0.00497147
H        2.11890256       2.00181621       2.21380124      -0.00051753      -0.01006831       0.00360493
H        5.11125883       3.19918649       0.34066860       0.00292685      -0.02502731      -0.01487030
H        6.18166582       2.14047996       1.27972144       0.00323781      -0.01943751      -0.01010594
H        5.20768580       3.38266208       2.09417724       0.01780279      -0.00277939      -0.01767728
H        4.69010384       1.51181778       3.32282445       0.02535635       0.01596920       0.01073604
O        7.15299585       4.40643608       3.90943193       0.00666195      -0.00520647       0.00354924
C        6.28362919       5.49369358       4.24439643       0.00693678      -0.00450647      -0.00032949
C        6.02173277       5.54460201       5.73850428       0.00351561      -0.00014558      -0.00102240
C        6.93010952       6.75469533       3.70910116       0.00901228      -0.00614494      -0.00127095
H        5.31957264       5.35239316       3.72945305       0.00791538      -0.00487971      -0.00225735
H        5.35712231       6.37151310       5.99470341       0.00143570      -0.00057536      -0.00536924
H        5.55719937       4.62038105       6.08742950       0.00444851       0.00045446       0.00146860
H        6.95809543       5.66653271       6.28223570       0.00208424       0.00348479       0.00039191
H        6.37935925       7.64589546       4.01034751       0.00419505      -0.00586192      -0.01120465
H        6.97648143       6.73108051       2.62139265       0.01880763      -0.01139418      -0.00066532
H        7.94873705       6.83274852       4.09362978       0.00511843      -0.00146855       0.00785590
H        6.92967454       3.65580051       4.48940245       0.00455388      -0.00536710       0.00548393
