148
Lattice="13.395972198611846 0.0 0.0 0.0 13.395972198611846 0.0 0.0 0.0 13.395972198611846" Properties=species:S:1:pos:R:3:forces:R:3 energy=-316028.0625 stress="-0.0002189473161706701 4.5084838347975165e-05 0.0002939677215181291 4.5084838347975165e-05 -0.0005630454397760332 0.0001035286913975142 0.0002939677215181291 0.0001035286913975142 -0.0023397253826260567" pbc="T T T"
V       11.06805382      14.14591029       1.80226135      -0.01703453      -0.00755143      -0.00127232
Br       0.00259556      14.06702385       1.46099652      -0.02234210       0.00539991      -0.02810133
Br      10.33954699      12.40989381      13.79041987      -0.02258600      -0.02505643       0.02736280
Br       5.56460912      13.85983412      13.56020540       0.00894928      -0.00194824       0.00838813
C       12.18723032       8.67532968       8.37742034      -0.00384673      -0.01154319       0.00412776
C       11.44994315       7.50025654       8.30698560       0.00478522       0.01804075       0.01326814
C       12.07413810       9.50484382       9.48801241       0.01560442       0.01276182       0.00975139
C       10.59154377       7.16028148       9.34651642      -0.00517628       0.00046363       0.01144522
C       11.22977237       9.15673982      10.53472115       0.00570577      -0.00300099       0.00861961
C       10.48908176       7.98125533      10.46169529       0.01317292       0.02480011       0.01790744
H       12.83414643       8.95659047       7.55632130       0.00238357      -0.00092861       0.00407109
H       11.53254274       6.85423065       7.44224161      -0.00891098       0.00192395       0.00989181
H       12.64059088      10.42630710       9.53608008       0.01409110      -0.00274955       0.00384963
H       10.00371968       6.25438188       9.28002902      -0.00247218       0.01593736       0.01867535
H       11.13890062       9.80378793      11.39831306       0.01798984       0.01145665       0.01139551
H        9.82611335       7.70984207      11.27350281       0.00735416       0.01570356       0.01677306
C        3.70271953       7.81921806       4.24344282      -0.00212153       0.00480455      -0.00484061
C        4.96145362       8.40393625       4.28169286       0.00359766       0.01197851      -0.00586728
C        2.58760181       8.59217829       3.93949700       0.00254795       0.01897631      -0.00475870
C        5.10215235       9.76340410       4.02766658       0.00383854       0.00019798      -0.00168469
C        2.73209819       9.94778441       3.67294962       0.00288209       0.00696550      -0.00051943
C        3.99036218      10.53644102       3.72224893       0.00836583       0.01417387      -0.00198240
H        3.59532181       6.75928431       4.43886235      -0.00220482       0.01116885      -0.00767230
H        5.83097833       7.79764810       4.50488556      -0.00040512       0.00304147      -0.00610796
H        1.60870824       8.12998300       3.89114699      -0.00017422       0.01489039      -0.00417503
H        6.08445720      10.21921686       4.05258147       0.00641027       0.00396176      -0.00238755
H        1.87620094      10.54398946       3.37978829       0.00690785       0.01690423      -0.00111552
H        4.10721969      11.58564483       3.48147921       0.00964314       0.00742787       0.00052175
C       10.88470127       0.96284566       3.94495405      -0.01221951      -0.00939970      -0.00183489
C       11.38799302       2.18516336       3.45696222      -0.00733207      -0.01071861      -0.00172043
C        9.64766397       0.48076002       3.44438767      -0.01665451      -0.00073214       0.00179323
C       10.75198866       2.84790839       2.39633705      -0.00717632      -0.00673115       0.00100335
C        8.96676078       1.19207893       2.44461320      -0.01378922       0.00092696       0.00111470
C        9.53166522       2.34651705       1.88443205      -0.00779838      -0.00226089      -0.00066702
H       11.40612544       0.42631507       4.72333282      -0.01351604      -0.01239531      -0.00338876
H       12.33318365       2.55612694       3.83007805      -0.00497465      -0.01545654      -0.00407708
H        9.22021257      -0.42482011       3.84119085      -0.01992325       0.00040449       0.00112406
H       11.16626877       3.76345017       2.00022814      -0.00349168      -0.00851437       0.00111363
H        8.03949054       0.81102278       2.02797712      -0.01561937       0.00491441       0.00183655
H        8.99338850       2.88292399       1.12073696      -0.00506631       0.00122947      -0.00023156
C        5.94992285       5.44002258       1.12618471      -0.01345414       0.00047880      -0.00273429
C        6.96193417       6.13463262       1.77830394      -0.00532887      -0.00352940       0.01530884
C        5.53256675       4.20230108       1.59953325       0.00276792      -0.01003966       0.00299617
C        7.55373367       5.59691279       2.91393648      -0.01060575      -0.00358836      -0.00754090
C        6.11851527       3.66749403       2.74178007      -0.00203955      -0.01067068      -0.01919568
C        7.12423293       4.36613261       3.39923008       0.00615618      -0.01381939      -0.00141449
H        5.50696481       5.85611974       0.22930429      -0.01222934       0.00249690       0.01007216
H        7.30166916       7.08930036       1.39349583      -0.01692877       0.00410676       0.01249338
H        4.78593310       3.62494542       1.07011634      -0.00081582      -0.00761111      -0.00856359
H        8.34967352       6.12911383       3.41669860      -0.00542554      -0.00642297       0.00397092
H        5.80105756       2.69172482       3.08742100       0.01014961      -0.01757096      -0.01782552
H        7.59971143       3.94923818       4.27879517       0.00486751      -0.01632302      -0.01465309
C       12.70052580       3.33447536       8.72090501      -0.01337279       0.00380679      -0.00678723
C       12.46994042       2.39232363       7.72459605       0.01327018      -0.01597975      -0.01529387
C       11.62943114       3.89765352       9.40148916       0.02436123      -0.00470239      -0.02799486
C       11.16826104       2.01138320       7.42170273      -0.01989869      -0.00442512       0.00308291
C       10.32823601       3.51738776       9.09393490      -0.00973336       0.00753412      -0.00755316
C       10.09641645       2.56801959       8.10964681       0.01697545      -0.01191814      -0.01764792
H       13.71215521       3.62639073       8.97268618       0.00780344      -0.00436123      -0.02039276
H       13.30342085       1.95561671       7.18772513      -0.00581287      -0.01562338      -0.00432592
H       11.80579714       4.62806386      10.17986225       0.00710671       0.00883044      -0.02254264
H       10.98530633       1.28021895       6.64838440      -0.00303082      -0.01767611      -0.00061607
H        9.49504942       3.94197211       9.63911261       0.01001231       0.00476505      -0.01828864
H        9.08105872       2.26718149       7.87854000      -0.00339276      -0.00367737      -0.00427967
C        9.12722954       2.25508506      11.91562255       0.01519788      -0.00197706      -0.00418542
C       10.14455321       3.15304370      12.22057535       0.01160991       0.00083921      -0.00651325
C        7.81974794       2.70233413      11.77421478       0.01017728      -0.00014295       0.00033052
C        9.85608046       4.50345359      12.38905868       0.01440555      -0.00275916      -0.00425844
C        7.53606509       4.05512965      11.92186389       0.01294017      -0.00401960       0.00362927
C        8.54957766       4.95482642      12.23265745       0.00921118      -0.00094992       0.00134686
H        9.34542792       1.20046528      11.81250203       0.01343169       0.00019421      -0.00725704
H       11.16335941       2.80022120      12.32932385       0.01457317       0.00061201      -0.01124723
H        7.02080408       1.99185140      11.60666885       0.01278749      -0.00218455       0.00126947
H       10.64417309       5.20332393      12.63986514       0.01229063      -0.00035165      -0.00746579
H        6.51548458       4.40061065      11.82321510       0.01006988      -0.00319943       0.00737507
H        8.31414046       6.00220035      12.37813247       0.01096145      -0.00311749       0.00368172
C       10.16044103       4.92937372       5.53207462       0.00192940      -0.00230403      -0.00186146
C       10.96684442       5.69015645       4.69397169       0.00161243       0.00621816      -0.00159932
C        9.11103618       5.52776478       6.22162407       0.00143836      -0.00330690      -0.00274880
C       10.72317226       7.05036195       4.54033655      -0.00281952       0.00139803       0.00446954
C        8.86272385       6.88555372       6.06238284      -0.00283975      -0.00830254       0.00352512
C        9.66734000       7.64487652       5.22172278      -0.00300039       0.00062016       0.00403040
H       10.35463617       3.87277522       5.65712600       0.00553743       0.00018631      -0.00585704
H       11.78867802       5.22262535       4.16566829       0.00213704       0.00742078      -0.00148722
H        8.49335501       4.93397783       6.88449781       0.00175788      -0.00938448      -0.00384976
H       11.35389715       7.64551801       3.89206217      -0.00345255       0.00751290       0.00546879
H        8.05014587       7.35972018       6.59958082      -0.00338964      -0.00941566       0.00337966
H        9.48249468       8.70280277       5.11093062      -0.00610680      -0.00205852       0.00876940
C        3.17565721       7.77788813       0.63761625      -0.00572180       0.00573486      -0.00375362
C        4.24638595       8.65212044       0.77564628      -0.01527013       0.02031157      -0.00575504
C        1.91597100       8.26951661       0.31528465      -0.01673150       0.02421232      -0.00991104
C        4.06302024      10.01697640       0.59660404      -0.00218354       0.00052489      -0.00028966
C        1.72973772       9.63810899       0.14035481      -0.00369395       0.00614043      -0.00541993
C        2.80307874      10.51095227       0.28212533      -0.01244238       0.02015099      -0.00624346
H        3.32159282       6.71574075       0.79552465      -0.01447016       0.01508051      -0.00666251
H        5.22531252       8.26801830       1.02955499      -0.00924741       0.00757053      -0.00224610
H        1.08005788       7.58817875       0.21020066      -0.01084854       0.01555519      -0.00929909
H        4.89244123      10.70781904       0.68702023      -0.00748728       0.01058738      -0.00024693
H        0.74794350      10.02462840      -0.10477578      -0.00884004       0.01751487      -0.00941525
H        2.67137975      11.57793951       0.15068736      -0.00453741       0.01064762      -0.00297987
C        5.47750178       8.29046236      10.91993888       0.00216904       0.00077181      -0.00371750
C        6.84698303       8.51726972      10.86372817       0.00766487       0.00577150      -0.00253806
C        4.59525729       9.36148964      10.94608611       0.00736678       0.00661552       0.00006091
C        7.33597179       9.82012706      10.85580105       0.00306657      -0.00110014       0.00271482
C        5.08314629      10.66139380      10.94525892       0.00272830      -0.00061871       0.00519523
C        6.45276880      10.89284723      10.91023060       0.00812124       0.00511780       0.00652909
H        5.09314106       7.27756023      10.94297497       0.00474048       0.00416902      -0.00798054
H        7.53263693       7.67959401      10.81742355       0.00432384       0.00240589      -0.00521159
H        3.52938886       9.18195720      10.99617683       0.00439422       0.00333036      -0.00062991
H        8.40331060       9.99740386      10.81593755       0.00578137       0.00206334       0.00362316
H        4.40351688      11.50034192      11.02056813       0.00628088       0.00309220       0.00854407
H        6.82298665      11.90842155      10.96260456       0.00558686       0.00072271       0.01084103
C        5.06092879       8.06277158       7.77902635      -0.00028227       0.00087354      -0.00525126
C        3.77849121       7.52926595       7.80706226       0.00152607      -0.00533648      -0.00240877
C        5.24870481       9.42105781       7.56379648       0.00008313      -0.00496415      -0.00091678
C        2.67992012       8.35857576       7.62315385      -0.00119251       0.00087683       0.00177760
C        4.15084709      10.24821895       7.36850717      -0.00256853       0.00105815       0.00334611
C        2.86737507       9.71722484       7.39842412      -0.00075567      -0.00470699       0.00634365
H        5.91774959       7.42370216       7.95332339       0.00132976      -0.00268223      -0.00878327
H        3.63390650       6.46975522       7.97683735       0.00062032      -0.00208019      -0.00564006
H        6.24845066       9.83660926       7.56571035      -0.00117648      -0.00105759      -0.00299948
H        1.67960178       7.94485525       7.65075866       0.00030708      -0.00294284       0.00403874
H        4.29520068      11.30670418       7.19214136      -0.00229774      -0.00182378       0.00687453
H        2.01111243      10.36072937       7.23917428      -0.00231606      -0.00130527       0.01050241
C       12.67186518      11.65219961       6.50472458      -0.00599261       0.00417224       0.00452240
C       12.75072950      10.98134546       5.28900231       0.01302812       0.01333764       0.00762571
C       11.43609780      12.02632018       7.01878659       0.01081422      -0.00696485       0.01395886
C       11.59104148      10.69829151       4.57722665      -0.00495790       0.00602502       0.00136720
C       10.27576296      11.74173097       6.30815499      -0.00624703      -0.01271290       0.00711142
C       10.35641891      11.08063949       5.08874577       0.01228073      -0.00258144       0.01035245
H       13.57496571      11.87747988       7.05828178       0.00381767       0.00973359       0.00734162
H       13.71443830      10.67438321       4.90428261       0.00392434       0.02161533       0.00032643
H       11.37730225      12.54541523       7.96599275      -0.00176498      -0.01523779       0.01419456
H       11.64458914      10.18738234       3.62438599       0.00768510       0.01169299       0.00282897
H        9.31280914      12.04564408       6.69995870       0.00259389      -0.02045210       0.01476703
H        9.45517254      10.86833629       4.52722543       0.00133631      -0.00678311       0.00940704
C        5.69355312       4.31841760       7.58408043      -0.00568579      -0.00854284      -0.00075161
C        5.80238583       3.12598463       6.87753871      -0.00635891      -0.01385514       0.00186637
C        5.32972673       4.30015525       8.92657644      -0.00152883      -0.00971170       0.00067581
C        5.55194682       1.91612633       7.51577365      -0.00216271      -0.00850573       0.00470011
C        5.07007382       3.09052746       9.56162450       0.00294907      -0.00434631       0.00355029
C        5.18596914       1.89794213       8.85715133       0.00191533      -0.00961357       0.00643314
H        5.88528232       5.25902164       7.08183179      -0.00835864      -0.01163824      -0.00316727
H        6.07344623       3.14506222       5.83005155      -0.00907619      -0.01367801       0.00090832
H        5.25147700       5.23034851       9.47682253      -0.00121990      -0.00637722      -0.00144687
H        5.64028639       0.98818020       6.96431590      -0.00320950      -0.01187912       0.00699043
H        4.78828347       3.06186153      10.60687853       0.00600543      -0.00465181       0.00484997
H        4.99592543       0.96116748       9.36536594       0.00492956      -0.00640130       0.00864729
