144
Lattice="13.348898421192427 0.0 0.0 0.0 13.348898421192427 0.0 0.0 0.0 13.348898421192427" Properties=species:S:1:pos:R:3:forces:R:3 energy=-79243.5859375 stress="0.0002948216861113906 0.000150041509186849 -0.00020858184871030971 0.000150041509186849 0.0005177418934181333 0.0001774049742380157 -0.00020858184871030971 0.0001774049742380157 -3.076019129366614e-05" pbc="T T T"
V       13.07198103      13.88354253       0.13541199      -0.02424362       0.04209827      -0.01030578
F        3.01887971      13.47184851       5.89178659       0.03662760      -0.00178177       0.00012794
F        4.56201610      14.02273613       5.24003868       0.02627987       0.00908509      -0.01566981
F       14.94481330      12.94300662       6.51989037       0.04448476      -0.01001586       0.01385813
C        1.56103535       7.13878502       8.48001690      -0.00314575       0.00085714       0.00006124
C        2.63863911       7.86659244       7.68520157      -0.00281131       0.00143948       0.00107397
C        1.95160163       5.73118007       8.91582713      -0.00179294       0.00163630       0.00151109
C        2.24805650       9.29079437       7.30441052      -0.00311810       0.00092971      -0.00044296
C        0.86226783       5.04111009       9.72552735      -0.00179100       0.00047636       0.00051728
C        3.32898755      10.03947545       6.54016809      -0.00249210       0.00057295       0.00015843
H        1.30927023       7.73220308       9.36725287      -0.00509105       0.00118801      -0.00069815
H        0.64203841       7.09038563       7.88308764      -0.00228769      -0.00070370      -0.00122140
H        2.87261548       7.29429393       6.77894930      -0.00110874       0.00112729       0.00169155
H        3.56552921       7.89021746       8.27087327      -0.00355810       0.00260598       0.00228998
H        2.19048984       5.12856809       8.03441386       0.00025912       0.00142193       0.00212350
H        2.87370343       5.77869651       9.50415527      -0.00258291       0.00341151       0.00263298
H        1.32792700       9.26714495       6.71049030      -0.00253496      -0.00010418      -0.00148192
H        1.99824068       9.84729248       8.21269455      -0.00431304       0.00183706      -0.00125057
H        0.64592988       5.59685491      10.64090423      -0.00354677       0.00054193       0.00012314
H        1.14845139       4.02727213      10.00613889      -0.00065741       0.00095078       0.00126947
H       -0.06676850       4.97691753       9.15443600      -0.00108194      -0.00103680      -0.00047918
H        4.24883432      10.09375966       7.12651326      -0.00327048       0.00159371       0.00135140
H        3.57051385       9.53061968       5.60278418      -0.00139811      -0.00007042       0.00081660
H        3.01851867      11.05922824       6.31028172      -0.00300457       0.00034478      -0.00010840
C        9.76559178       8.54002316      12.69634777      -0.00009853       0.00078771       0.00394759
C        8.45296434       9.31026413      12.62190482      -0.00023305       0.00028092       0.00099138
C        9.58357162       7.02646503      12.67438501       0.00038052       0.00069019       0.00325044
C        8.63400504      10.82404126      12.60195079      -0.00088215       0.00046927       0.00284798
C       10.90466058       6.27022621      12.64955215       0.00066271       0.00098296       0.00603150
C        7.32718050      11.57539695      12.38722898      -0.00071821      -0.00009711      -0.00049883
H       10.40237261       8.83645119      11.85415330       0.00180221       0.00113739       0.00548607
H       10.31165918       8.82835050      13.60261083      -0.00244981       0.00076647       0.00544605
H        7.81226722       9.03216780      13.46697923      -0.00239287      -0.00081569      -0.00104254
H        7.90936298       9.00406746      11.72022415       0.00245520       0.00082082      -0.00082913
H        8.99646862       6.72020207      13.54622614      -0.00143011       0.00040101       0.00194857
H        8.98827998       6.75134384      11.79743613       0.00240831       0.00071228       0.00184518
H        9.09724121      11.14363295      13.54116213      -0.00414474      -0.00003061       0.00460112
H        9.34248719      11.08902034      11.80991273       0.00137454       0.00158361       0.00523204
H       11.48932264       6.53555212      11.76586270       0.00240584       0.00116511       0.00725462
H       10.75311423       5.18986999      12.63181398       0.00090314       0.00090945       0.00568045
H       11.51110698       6.51003286      13.52541803      -0.00139273       0.00100528       0.00744592
H        6.88453137      11.31873133      11.42252429       0.00248975       0.00057371      -0.00221135
H        6.59747785      11.32564681      13.15971646      -0.00286461      -0.00139304      -0.00293094
H        7.47400598      12.65592140      12.40711750      -0.00138275      -0.00001338       0.00089919
C        6.87407399       2.73059021       8.72861223       0.00010699      -0.00747618      -0.00234368
C        5.55730363       2.05740577       9.09717909      -0.00042075      -0.00577340      -0.00118387
C        8.06541859       2.23801967       9.54231322      -0.00093385      -0.00418177       0.00119555
C        4.38400172       2.52248057       8.24144399       0.00043572      -0.00702128      -0.00302348
C        9.37034431       2.93113503       9.17082438      -0.00098047      -0.00359261       0.00205153
C        3.06391039       1.87668120       8.63664616      -0.00074077      -0.00312203      -0.00043288
H        7.07210895       2.56584824       7.66461502       0.00127749      -0.01156052      -0.00154984
H        6.77440579       3.81608897       8.85469805      -0.00004278      -0.00696525      -0.00664574
H        5.33937539       2.24370461      10.15643881      -0.00086658      -0.00274301      -0.00174400
H        5.66744065       0.97289360       8.99258704      -0.00116379      -0.00617138       0.00187180
H        7.86217763       2.38334067      10.60890073      -0.00328119      -0.00155155       0.00045601
H        8.17032253       1.15788294       9.39894452       0.00054548      -0.00446597       0.00428992
H        4.30497509       3.61381490       8.31480876       0.00237022      -0.00658327      -0.00694007
H        4.58736850       2.28328721       7.19407270       0.00033241      -0.01091926      -0.00226617
H        9.58572946       2.81082001       8.10706798       0.00124537      -0.00601486       0.00271830
H       10.21863035       2.53046668       9.72808100      -0.00161798      -0.00110356       0.00479671
H        9.31787055       4.00336178       9.37417051      -0.00276223      -0.00311041      -0.00082447
H        3.07649386       0.80642693       8.43331948      -0.00315405      -0.00400937       0.00388473
H        2.84981796       2.02545118       9.69894801      -0.00036005       0.00177917      -0.00097424
H        2.23249735       2.28295254       8.06006968       0.00003476      -0.00361429      -0.00201137
C        8.45771537      10.68461658       5.59332796      -0.00176093       0.00183082      -0.00153796
C        8.76940661       9.25939289       5.15197212      -0.00095645       0.00217468      -0.00211820
C        7.19841156      10.79015612       6.44672123      -0.00162157       0.00030899      -0.00108477
C       10.04996835       9.13284057       4.33507218      -0.00064105       0.00285423      -0.00171177
C        6.86883394      12.21133378       6.87796680      -0.00289817      -0.00041342       0.00045821
C       10.37176214       7.69236041       3.95878643      -0.00113513       0.00312939      -0.00351559
H        9.31164305      11.08353916       6.15424510      -0.00187492       0.00210049      -0.00141315
H        8.35273450      11.32596153       4.71183728      -0.00260294       0.00222124      -0.00121564
H        7.92666229       8.86567440       4.57051259      -0.00065610       0.00193556      -0.00255717
H        8.84857650       8.61558297       6.03593803      -0.00094708       0.00182836      -0.00228402
H        6.35274923      10.37582963       5.89012536      -0.00142285       0.00015731      -0.00139700
H        7.31417494      10.15196889       7.33002299      -0.00079317      -0.00053602      -0.00176576
H        9.96169734       9.74215615       3.42966500      -0.00004811       0.00410753      -0.00096023
H       10.88186706       9.55809554       4.90600778      -0.00073177       0.00175084      -0.00070569
H        7.70553899      12.65603492       7.42385282      -0.00253047       0.00044296      -0.00064696
H        5.99141698      12.23345572       7.52412981      -0.00150169      -0.00257932       0.00253999
H        6.62782589      12.84880713       6.02689526      -0.00595459       0.00006416       0.00158718
H       10.50537273       7.07789432       4.85192512      -0.00229946       0.00171646      -0.00427431
H        9.56183370       7.24820942       3.37612157      -0.00088970       0.00450758      -0.00491942
H       11.28636309       7.61881564       3.36826066      -0.00058274       0.00335307      -0.00281656
C        4.26184197       3.93231628       4.60420013       0.00035408      -0.00270995       0.00141031
C        3.18391922       4.77649823       3.93841612      -0.00124188      -0.00473183       0.00127661
C        5.57712008       3.91467457       3.83414888      -0.00116408      -0.00398773      -0.00132301
C        1.84815347       4.72724463       4.67086913      -0.00036372      -0.00449052       0.00298220
C        6.64162398       3.08098918       4.53602035       0.00146487      -0.00087747      -0.00149336
C        0.79267578       5.62674660       4.04267435      -0.00195971      -0.00566208       0.00387256
H        4.44282233       4.31863358       5.61430058       0.00204795      -0.00006622       0.00015152
H        3.91798148       2.90096509       4.73442909       0.00113912      -0.00262064       0.00433013
H        3.03805345       4.43867353       2.90515348      -0.00229014      -0.00702561       0.00210240
H        3.51971929       5.81925588       3.86869721      -0.00207459      -0.00459826      -0.00094084
H        5.39627562       3.50800585       2.83370943      -0.00324299      -0.00752245       0.00043651
H        5.93600040       4.94075929       3.68731967      -0.00242391      -0.00406867      -0.00548189
H        1.49964264       3.69049779       4.70460134       0.00020315      -0.00460184       0.00382638
H        2.00245446       5.02362547       5.71320229       0.00076581      -0.00386436       0.00268805
H        6.90229671       3.52359091       5.49989149       0.00319170       0.00176063      -0.00309041
H        7.55605162       3.00781673       3.94414461       0.00011759      -0.00136252      -0.00357933
H        6.26063750       2.07637101       4.72934267       0.00273964      -0.00077549       0.00168893
H        1.11247960       6.67171512       4.05562953      -0.00309689      -0.00530842       0.00338805
H        0.61396891       5.35548452       2.99955393      -0.00292416      -0.00620057       0.00413807
H       -0.16122269       5.56742377       4.56964486      -0.00133865      -0.00665620       0.00497380
C        2.71199308       9.67083342       1.91277596      -0.00066119       0.00827307      -0.01623538
C        4.16310671       9.98949405       2.24335574       0.00223884       0.00199217       0.00001242
C        2.49331296       8.26465164       1.37086681       0.00200254      -0.00421590      -0.00278868
C        4.37055958      11.40729523       2.76451005      -0.00478750       0.00016934       0.00427112
C        1.04265619       7.98823455       0.99790371       0.00146890      -0.00395819       0.00256369
C        5.82836555      11.72044800       3.06397327      -0.00721058       0.00964870      -0.00078861
H        2.09413607       9.82393011       2.80443693       0.00728513      -0.00417155      -0.01053071
H        2.35994038      10.38894670       1.17339149      -0.03047016       0.03304458       0.00917047
H        4.77355418       9.83382453       1.34462461       0.01368421       0.00068978       0.00842637
H        4.53356851       9.27136272       2.98543870       0.01464996       0.00842395       0.00269741
H        3.12972396       8.12140051       0.49136385       0.00363824      -0.01816449       0.00113249
H        2.83022056       7.53179940       2.11079092      -0.00199168      -0.01424959      -0.00783908
H        3.98013295      12.12309942       2.03319841      -0.00743920      -0.00980321      -0.00141397
H        3.78176029      11.56401121       3.67127025      -0.00425339       0.00143945       0.00519127
H        0.38619618       8.11120241       1.86189965       0.00067556      -0.00239987       0.00258821
H        0.90934654       6.97223035       0.62351413      -0.00861353      -0.00006104      -0.00594959
H        0.69662645       8.67783774       0.22421781       0.01391462       0.00560518       0.00826181
H        6.24293287      10.97770772       3.74763194      -0.00142986       0.01037748      -0.00335735
H        6.44230884      11.70718154       2.15941747      -0.01576750       0.01292381      -0.00638735
H        5.91682426      12.69475758       3.54377471      -0.01251544       0.01094651      -0.00222293
C       11.36612741       9.80184874       8.85499932       0.00250566       0.00175726      -0.00069571
C        9.93128949       9.28994043       8.88066744       0.00267178       0.00092369       0.00040119
C       11.45586765      11.32428662       8.90037866       0.00245181       0.00182104       0.00120123
C        9.80734673       7.77187005       8.82562656       0.00373623       0.00081688      -0.00117315
C       12.88227832      11.85402366       8.85995926       0.00191331       0.00231177      -0.00362223
C        8.36099799       7.29239807       8.83342259       0.00378817       0.00039598      -0.00103845
H       11.92355294       9.37915750       9.69997962       0.00351420       0.00098780      -0.00172925
H       11.86894905       9.43550754       7.95254101       0.00140965       0.00252546      -0.00163800
H        9.38456943       9.72531221       8.03912913       0.00143309       0.00128390       0.00133431
H        9.42916863       9.65924588       9.78302137       0.00328998      -0.00044062       0.00138664
H       10.88653585      11.73744447       8.06102154       0.00152500       0.00378262       0.00281456
H       10.95079644      11.67979946       9.80584886       0.00572692       0.00031628       0.00352183
H       10.31299458       7.40167228       7.92699750       0.00327443       0.00225909      -0.00206670
H       10.34516919       7.33378692       9.67346158       0.00456062      -0.00005683      -0.00211817
H       13.47607186      11.43582106       9.67608574       0.00444788       0.00664378      -0.00331166
H       12.91230875      12.93961234       8.95259548       0.00139538       0.00273550      -0.00792640
H       13.38574002      11.60865775       7.92415377      -0.00224587      -0.00164206      -0.00479174
H        7.83829594       7.64012983       9.72696535       0.00435000      -0.00117690      -0.00003797
H        7.81392422       7.67524208       7.96975454       0.00329702       0.00210270       0.00002553
H        8.29312739       6.20390718       8.81169698       0.00374417       0.00041667      -0.00302306
