146
Lattice="12.056976213460592 0.0 0.0 0.0 12.056976213460592 0.0 0.0 0.0 12.056976213460592" Properties=species:S:1:pos:R:3:forces:R:3 energy=-551084.125 stress="-0.0009642363875173032 -0.0001736473714117892 -0.00028190189914312214 -0.0001736473714117892 0.0014121067943051457 0.0002167245402233675 -0.00028190189914312214 0.0002167245402233675 0.0018599869217723608" pbc="T T T"
W       10.56037411      13.47266574      -0.89526572      -0.00625432       0.00749904      -0.01390159
P        9.43074340      11.32796965       6.00846858       0.00465858       0.00242288       0.00422794
O        9.44825158      11.62459063       4.51041134       0.02017561       0.00300878       0.00450373
O       10.85812352      11.13105618       6.55249070      -0.00104117      -0.00411743       0.01783848
O        8.78101209      12.54062998       6.73240178       0.00072014       0.00396174      -0.00054646
O        8.71999428      10.01653767       6.33740398      -0.00278354       0.00434780      -0.00428170
P        4.00952158       9.26057713       4.45484165       0.00339451       0.00147858      -0.00891599
O        5.22216722       9.11117990       5.35943975       0.00408673      -0.00393796      -0.00906193
O        2.87207356       8.34145806       4.85816596       0.00068474       0.00667179      -0.00739753
O        3.53823838      10.80961526       4.68920154       0.01928236      -0.00248408      -0.00880471
O        4.33700360       9.10064160       2.97300860       0.00715692      -0.00348419      -0.00756407
O        7.61566729       1.89057823       8.64768469       0.02314252      -0.01436281       0.02760869
C        6.92257273       1.06927695       9.56551354      -0.00567186      -0.00793076       0.01227954
C        5.67217846       0.44295418       8.97417762       0.00342244       0.00244004      -0.01561108
H        7.56600561       0.26664093       9.94661872      -0.02184993      -0.01288527       0.02796170
H        6.66818728       1.70691852      10.42021801      -0.01894346      -0.00456125       0.00548869
H        5.12575561      -0.10252465       9.74740194      -0.01400701       0.00235364      -0.02827021
H        5.01902844       1.20916652       8.55506036       0.01602456       0.00749561      -0.02541809
H        5.92676825      -0.25615477       8.17697327       0.01552168       0.00303003      -0.01206021
H        7.89071082       1.32224471       7.89129171       0.01997003      -0.01195730       0.02422032
O        9.07800077      10.67293793       2.11106476       0.01012158       0.00092137       0.00610268
C        8.71279942       9.31189120       2.19142128       0.00399879       0.00261760       0.00889878
C        9.88105639       8.41331294       1.81120209      -0.00081480      -0.00291517       0.00751625
H        8.36027995       9.07635958       3.20124600       0.00524259       0.00550468       0.01000917
H        7.88476937       9.13192800       1.50104705       0.00184077       0.00542080       0.01070893
H        9.58544975       7.36028780       1.82956917      -0.00559100      -0.00155965       0.01005959
H       10.22066607       8.66070096       0.80326704      -0.00241195      -0.00557664       0.00625610
H       10.71276255       8.55591080       2.50292734       0.00159690      -0.00534584       0.00521448
H        9.21952224      10.97695750       3.04185283       0.01421157       0.00137444       0.00538066
O       10.54383244       1.31341537       0.87796394      -0.00914576       0.00268272      -0.01349914
C       10.57979696       1.27048501       2.31487566      -0.00817279      -0.00101233      -0.01362270
C       10.89691184       2.63498922       2.87464002      -0.00382781      -0.00345713      -0.01035227
H        9.61539919       0.90067895       2.64392030      -0.00900102       0.00096527      -0.01351570
H       11.32727445       0.53155543       2.59595396      -0.01038355      -0.00414586      -0.01631787
H       10.85180445       2.57288415       3.96241672       0.00125129      -0.00833268      -0.01044080
H       11.90001007       2.95057693       2.58980377      -0.00467974      -0.00353019      -0.01338569
H       10.16874782       3.37398740       2.53716028      -0.00471355      -0.00134557      -0.00401652
H       14.09868091       1.19997412       2.16968010       0.01192751      -0.00437917      -0.00412814
O        6.13141487       2.55332591       4.68421829      -0.01181567       0.03074409       0.00608116
C        7.34604042       2.43281645       3.95876876      -0.01223946       0.01385611       0.00851810
C        7.08256634       2.39537000       2.45929387      -0.01516584       0.00318932       0.00977117
H        8.02140414       3.26040247       4.20740998      -0.00481492       0.00987911       0.00054067
H        7.84148854       1.50912184       4.27250585      -0.01855436       0.01247036       0.01526555
H        8.01569084       2.34479500       1.89335329      -0.01724912      -0.01285414       0.00817494
H        6.49780667       1.51212104       2.20074565      -0.02650318       0.00812258       0.01893417
H        6.53872305       3.28338154       2.13163303      -0.00548503       0.00658770       0.00330544
H        6.05401194       3.44656839       5.04665578       0.00394990       0.02918029       0.01689927
O        1.21545207       4.11793166       9.01296659       0.00132100      -0.00811878       0.00155729
C        1.95703154       3.90425453      10.21277765      -0.00223076      -0.00626832       0.00351146
C        2.60761500       2.54023639      10.26971521       0.00710395      -0.00249249       0.00106117
H        2.70014886       4.69184154      10.34792845      -0.00514847      -0.00262052       0.00527097
H        1.23860737       4.00764029      11.02419902      -0.00051209      -0.01254062       0.00153357
H        3.14647101       2.42695857      11.21099928       0.00689332      -0.00064673       0.00191662
H        1.85960037       1.74931048      10.21510690       0.01162562      -0.00767072      -0.00009623
H        3.31571817       2.39992105       9.45269229       0.00841871       0.00232558       0.00218992
H        1.83558216       4.31915561       8.30605810      -0.00697365      -0.00469583       0.00776237
O        1.89125439       1.29378772       3.11248728      -0.00261807       0.00808620       0.01524994
C        2.76056698       2.32891780       3.59524373       0.00090364      -0.00388747       0.00356889
C        2.93907220       2.15090177       5.08074015      -0.01270076       0.00013678       0.00885862
H        3.73027636       2.27730862       3.09422728       0.00471932      -0.01018716       0.01452291
H        2.32315480       3.30933870       3.36862637       0.01306164       0.00097477       0.00121869
H        3.51810528       2.98689661       5.47481174      -0.00854261      -0.00094727       0.01090870
H        1.96578468       2.11946626       5.57394083      -0.01611754       0.00812514       0.00241770
H        3.47590125       1.22680561       5.28899877      -0.01816687      -0.00092852       0.01709983
H        2.69973980      -1.06796913       4.25355344      -0.00593251      -0.00142556       0.00052935
O        5.54098787       5.31999455       5.42429549       0.00054114       0.01644856       0.01836163
C        5.38708776       5.87102229       4.11232715      -0.00509027       0.00190166       0.01400828
C        6.70384678       6.34959226       3.53329289      -0.01164728       0.01459026       0.01074824
H        4.96789103       5.06999066       3.49456757       0.00748713      -0.00894654       0.02034730
H        4.66808032       6.69024534       4.13569727      -0.01648080      -0.00787634       0.00493585
H        6.54523222       6.76546818       2.53605274      -0.01359732      -0.00370727       0.00372398
H        7.12132321       7.14070247       4.15596442      -0.02870064       0.03138086       0.00008960
H        7.42003920       5.52656205       3.46115771       0.00209770       0.02542306       0.02510872
H        5.42926964       6.03825874       6.07499581      -0.01807116       0.01922093       0.01489432
O       10.26176676       2.44346538       6.91531400       0.00408575       0.00301379      -0.00585157
C       11.29583733       1.86867425       7.65349443       0.00530964      -0.00119442      -0.00996524
C       10.89124237       1.62993558       9.09775398       0.00878763       0.00491132      -0.00841859
H       11.58904412       0.89620938       7.22842676      -0.00257495      -0.00430566      -0.00902984
H       12.15469095       2.54469452       7.67373431       0.01030192      -0.00719014      -0.01771744
H       11.79302887       1.20755871       9.71519247       0.00329280      -0.00414081      -0.00348830
H       10.56980956       2.60552019       9.61205109       0.01838943       0.00852937      -0.00763699
H       10.01983243       0.89797224       9.24610778      -0.00202510       0.01558559      -0.00711107
H        9.57745225       1.65591324       6.73927042       0.00022748       0.00522707      -0.00247861
O        8.94856756       4.15822264      10.58509977       0.00396236       0.00047094       0.00888139
C        9.42740337       5.25091622      11.37226153       0.00127655       0.00687164       0.00256839
C       10.93499486       5.33333825      11.37838481       0.00119805       0.00875264       0.00551551
H        8.98528371       6.18401128      11.00987044       0.00098875       0.00361717      -0.00526917
H        9.04072456       5.08730164      12.38115140      -0.00101927       0.01366232       0.00279564
H       11.27059638       6.18310371      11.97637867      -0.00119924       0.01246876       0.00164518
H       11.35778681       4.42445177      11.81478700       0.00145474       0.01193646       0.01166371
H       11.32213876       5.43692155      10.36331905       0.00333424       0.00381802       0.00573167
H        9.11726677       4.36757871       9.62225187       0.00124357      -0.00313446       0.00771294
O        9.58474655       4.74629820       8.09416358      -0.00225616      -0.00353619       0.00507617
C        8.81989734       5.68511600       7.32592578      -0.00194063      -0.00377297       0.00373679
C        9.66503068       6.45738913       6.33365467      -0.00026858      -0.00095883       0.00721049
H        7.99524541       5.17389864       6.81941901       0.00021589      -0.00401312       0.00047901
H        8.38055157       6.37474713       8.04695907      -0.00530553      -0.00565481       0.00351202
H        9.08109879       7.26740200       5.89278200      -0.00127010      -0.00303429       0.00443599
H       10.52234641       6.90996565       6.83051515      -0.00339359       0.00136439       0.01073870
H       10.02718405       5.80481155       5.53644041       0.00489450       0.00016724       0.00860280
H        9.75239428       3.93044256       7.56334819       0.00200092      -0.00148110       0.00327385
O        3.25922591       4.89667381       1.06831355       0.00274056       0.00453517      -0.00137993
C        2.09132181       5.69526229       1.25588615       0.00005925       0.00152642      -0.00302601
C        2.18762837       6.63678074       2.43133928      -0.00501252      -0.00123286      -0.00030607
H        1.87478315       6.25358146       0.33425297       0.00243008       0.00398603      -0.00222951
H        1.27958016       4.97526517       1.38843717       0.00092733       0.00004974      -0.00778231
H        1.27399047       7.22373851       2.53636033      -0.00641395      -0.00296537      -0.00181219
H        2.34313978       6.10570282       3.36907050      -0.00705167      -0.00381488      -0.00134476
H        3.00792985       7.35231265       2.32557694      -0.00571367       0.00020018       0.00403474
H        4.02639293       5.47672908       1.10908891       0.00105026       0.00361809       0.01263657
O        7.49641271      10.28485521      11.26746291       0.00560594      -0.00866926       0.00338846
C        6.90923721       9.29042586      10.44413234       0.00493035      -0.00254071      -0.00347507
C        7.89929391       8.82842853       9.40682635       0.00282943       0.01158632      -0.01156896
H        6.56899888       8.44580602      11.05885870       0.00992325      -0.00971985      -0.01058149
H        6.02193251       9.68439342       9.92744864       0.00127167      -0.00003138       0.00462329
H        7.41271211       8.10550320       8.75169168       0.00468452       0.01730241      -0.01928846
H        8.24173034       9.64779465       8.77386838      -0.00108704       0.02005741      -0.00244814
H        8.76749977       8.36647023       9.88251489       0.00584403       0.00933541      -0.01946057
H        6.90104584      10.39274889      12.03258955       0.00100588      -0.00839880       0.00028595
O        5.37383351      10.17782452       0.97595976       0.00032234      -0.00026463      -0.00598672
C        4.16535437      10.35629486       0.28615794      -0.00047731       0.00180662      -0.00381485
C        3.47100790      11.64478680       0.70061544      -0.00106174      -0.00096309       0.00261897
H        4.37964617      10.37145822      -0.78721477      -0.00228299       0.00667729      -0.00424677
H        3.49485424       9.50820515       0.47821599       0.00008023       0.00046569      -0.00634542
H        2.52302651      11.77616946       0.16723504      -0.00175016      -0.00155900       0.00463057
H        3.28178453      11.61076670       1.77429425       0.00056264      -0.00519347       0.00272152
H        4.11372049      12.50244563       0.49067499      -0.00351943       0.00129172       0.00389401
H        5.10771382       9.79418310       1.88206389       0.00058922      -0.00332357      -0.00586811
O        6.48327620       5.24515971      11.14134036      -0.00032884       0.00160193       0.00238085
C        5.33002446       4.90238777      10.39951500       0.00123143      -0.00174136       0.00078541
C        5.59504871       4.76120465       8.91539497       0.00471386      -0.00810641       0.00188076
H        4.88808994       3.98009568      10.79821598       0.00083357      -0.00008082       0.00389802
H        4.60973324       5.70436336      10.58498054       0.00034574      -0.00144154      -0.00429037
H        4.67558220       4.49449464       8.38645511       0.00607470      -0.00999886       0.00025047
H        5.94488416       5.70447061       8.49736699       0.00628456      -0.01044986      -0.00190010
H        6.32843298       3.97506674       8.71767753       0.00537984      -0.00876680       0.00697350
H        7.21260970       4.66150383      10.86327198       0.00015675       0.00081760       0.00575503
O        5.01326529       7.58367167       7.35840814      -0.00638139      -0.03050753      -0.03887498
C        3.66920634       7.60861832       7.77700884      -0.00251567      -0.01950374      -0.02666557
C        3.18291829       8.98173686       8.22354534       0.02029595      -0.01570171      -0.01803309
H        3.01424251       7.27188465       6.96204065      -0.01427305      -0.00898477      -0.02152777
H        3.58249703       6.90178706       8.61500747      -0.00235399      -0.02177960      -0.02852947
H        2.14902805       8.90443883       8.57200809       0.02050900      -0.00145236      -0.01576618
H        3.79279221       9.37540679       9.03843196       0.02879862      -0.03011926      -0.01780288
H        3.20592309       9.68498454       7.39089309       0.03067841      -0.01285270      -0.01523492
H        5.11630139       8.25018103       6.58704344      -0.00255100      -0.01637663      -0.02973610
