148
Lattice="13.101425583264705 0.0 0.0 0.0 13.101425583264705 0.0 0.0 0.0 13.101425583264705" Properties=species:S:1:pos:R:3:forces:R:3 energy=-1904989.25 stress="-0.0006959566380828619 0.0004370485548861325 7.632301640114747e-05 0.0004370485548861325 -0.000823067151941359 0.0005592088564299047 7.632301640114747e-05 0.0005592088564299047 -0.001129816402681172" pbc="T T T"
W       13.30558819      13.09535122      -0.16702639      -0.00961930       0.00209960      -0.01058421
O        1.09950811      -1.28745002       0.42745308      -0.01873684      -0.00708455      -0.03989118
O        5.06651678      -0.34017445       3.53574490      -0.00203487      -0.00600129      -0.03224781
O        2.09304964      -0.25526533       3.67720395      -0.00115116       0.01341864       0.01089970
O        3.81078201       1.82989894       4.75749692       0.02673160      -0.00645202      -0.00371394
W        3.65860908       0.64630294       3.52937144       0.00345922       0.00223333      -0.00581348
O        3.12059733       3.47786686      -0.27562023      -0.00057834       0.02048752       0.01000284
O        3.54686891       1.53154116       1.82820432      -0.01223050       0.01009135      -0.00000896
O        0.82673581       1.73927480       0.25699600       0.00485966      -0.00210655      -0.00819428
O        1.72841998       3.79452953       2.08864646      -0.01055073       0.00469996       0.00152194
W        2.30506835       2.63589966       0.97545590      -0.00847569       0.01216590       0.00191201
O        0.22031090      10.82717028       3.71726698      -0.01546395       0.02215940       0.00559062
O        0.78452127      10.47248855       6.37937239      -0.00241041      -0.00111239      -0.00491574
O       -0.05952789      13.01227301       5.46721142       0.00899667       0.01319140       0.02452883
O        2.85455132      11.64336538       5.70679459       0.00124803      -0.00346172      -0.00031245
W        0.99504305      11.74855458       4.95378277      -0.00307953       0.01097940       0.00851490
C       12.25485347      11.01163093      10.79499912      -0.01587041       0.02374078      -0.00812422
C       11.55812359       9.98104395      11.36259949       0.00937787       0.01365333       0.00552094
C       12.09019831      12.36446537      11.25293257      -0.02892947       0.02205168      -0.00897723
C       10.62579922      10.21124993      12.40990645       0.01672751       0.00510645       0.01241601
C       11.24868745      12.55942694      12.45684137      -0.01400533       0.01412239       0.00140485
C       10.47767769      11.45813668      12.94918687       0.00542516       0.00515200       0.00951213
H       12.92786796      10.82032406       9.96659944      -0.02182668       0.03204658      -0.01425866
H       11.68232308       8.97599399      10.97754750       0.02815320       0.01326989       0.01341514
H       12.14731778      13.14922004      10.49553921      -0.02963549       0.02913992      -0.00127035
H       10.02246253       9.38896060      12.77635083       0.02784619      -0.00095501       0.01618957
H       10.82814898      13.55459907      12.64574165      -0.01056816       0.01255518       0.01975536
H        9.78316834      11.64113469      13.76088195       0.01339066      -0.00288154       0.01736983
C       12.25560741       5.60097335       4.59674860       0.00614941       0.00077648       0.00004729
C       11.66873091       6.16989485       5.72124014       0.01179722      -0.00294777       0.00469135
C       12.58263380       6.39946249       3.50643827       0.00231441       0.00635756       0.00274968
C       11.39019587       7.53150613       5.75057879       0.00686231      -0.00434098       0.00906292
C       12.31257034       7.76344578       3.54162366       0.00134409       0.00615759       0.00810893
C       11.71112198       8.32881226       4.65931039       0.00106516       0.00057051       0.01075984
H       12.45919173       4.53786180       4.57142264       0.00980430       0.00161438      -0.00212936
H       11.42627742       5.54697366       6.57156254       0.01995230      -0.00530688       0.00493275
H       13.07115998       5.96261141       2.64405990       0.00018376       0.01022658       0.00026491
H       10.93979602       7.97521063       6.63073324       0.00783724      -0.00784802       0.01171778
H       12.60222530       8.39925595       2.71758354      -0.00436733       0.00935526       0.00761627
H       11.53404564       9.39529693       4.67930981      -0.00503372      -0.00031081       0.01303423
C        6.94779687      10.09497769       8.29188566       0.00511189      -0.00220589      -0.01184605
C        6.43844154      11.17531440       9.00094724       0.00778237      -0.00206251      -0.01033429
C        8.31417836      10.00799451       8.05057273       0.00466972      -0.00442109      -0.01337226
C        7.29221655      12.16569253       9.46763812       0.00986909      -0.00376448      -0.01083348
C        9.17084809      10.99999619       8.51633379       0.00668477      -0.00684883      -0.01272107
C        8.65856021      12.07936707       9.22650818       0.00950965      -0.00645840      -0.01171014
H        6.27835254       9.32133680       7.93558542       0.00349528      -0.00074257      -0.01184065
H        5.37979695      11.23407056       9.21545209       0.00806397      -0.00009920      -0.00985158
H        8.71305283       9.16453117       7.50099624       0.00297681      -0.00351202      -0.01589673
H        6.88776071      12.99884384      10.02629162       0.01243612      -0.00244646      -0.01115378
H       10.23491195      10.93186491       8.32861817       0.00636719      -0.00869915      -0.01333967
H        9.32479038      12.85238581       9.58883656       0.01134537      -0.00800650      -0.01235388
C       10.08728910       2.31558704       2.29529150       0.01843446      -0.00713083       0.00979511
C       10.82862649       1.58201522       3.21480896       0.01413330      -0.01258544       0.00861070
C        8.77527156       1.95138293       2.01416425       0.02013990      -0.00416921       0.00035737
C       10.26025885       0.48352555       3.85155558       0.01001277      -0.01539534       0.00050205
C        8.20792697       0.84753594       2.63943840       0.01632041      -0.00709973      -0.00771416
C        8.95077109       0.11806965       3.56188268       0.01150858      -0.01216957      -0.00806423
H       10.51563091       3.18820252       1.81517610       0.02318220      -0.00603560       0.01604035
H       11.84715907       1.86459401       3.45281090       0.01144145      -0.01063035       0.01690791
H        8.18708482       2.54572883       1.32968432       0.02466769      -0.00217553      -0.00192803
H       10.84940913      -0.06103980       4.57759312       0.00610676      -0.02173437      -0.00122900
H        7.17593484       0.57517602       2.45049487       0.01750599      -0.00507947      -0.01519038
H        8.49192560      -0.71715564       4.07714374       0.00848641      -0.01604266      -0.01671444
C        7.65272199       7.73986759       4.03172393       0.00434249       0.00907648      -0.00010890
C        8.07232506       7.47270570       2.73430500       0.00502567       0.00419540       0.00131009
C        6.51995063       7.11468630       4.53942113       0.00214660       0.01342230       0.00034946
C        7.35407981       6.58058792       1.94543963       0.00365761       0.00438214       0.00285144
C        5.80039396       6.22477313       3.75116983       0.00114852       0.01296829       0.00200682
C        6.22063472       5.95804298       2.45411083       0.00158963       0.00849365       0.00323313
H        8.22268104       8.41923018       4.65266110       0.00468987       0.01017462      -0.00186671
H        8.96815363       7.94502931       2.35104172       0.00660624       0.00082906       0.00101514
H        6.21519938       7.30448078       5.56047820       0.00052285       0.01824049      -0.00120023
H        7.68443145       6.35821063       0.93942562       0.00370698       0.00130374       0.00366715
H        4.93270556       5.71312556       4.14865675      -0.00069192       0.01657199       0.00231202
H        5.67694908       5.24322811       1.85005004       0.00045083       0.00869122       0.00430050
C        6.38261245       2.61530584      12.47213846       0.00136125      -0.00128369       0.00093941
C        7.31127468       1.64817150      12.11021427      -0.00138813      -0.00135677      -0.00497305
C        6.72168929       3.96182364      12.40801160       0.00083269      -0.00137557      -0.00133087
C        8.57406752       2.02693808      11.66943995      -0.00401265      -0.00165939      -0.01255529
C        7.99425798       4.33921774      11.99305045      -0.00164365      -0.00152189      -0.00916522
C        8.92108534       3.37194330      11.61957065      -0.00413540      -0.00182435      -0.01453708
H        5.38685192       2.32865914      12.78163829       0.00367400      -0.00169571       0.00771827
H        7.05347407       0.59830004      12.17336583      -0.00140103      -0.00119759      -0.00421790
H        5.98246263       4.71326645      12.65674845       0.00256501      -0.00157449       0.00375627
H        9.28730691       1.26951837      11.37210536      -0.00622690      -0.00189361      -0.01661129
H        8.26225477       5.38738588      11.94182366      -0.00189640      -0.00165148      -0.00984830
H        9.90985706       3.66891362      11.29205041      -0.00577474      -0.00326584      -0.02063152
C        7.23210836       2.53684141       5.35904775       0.00593077      -0.00949112       0.00707079
C        7.81041642       3.66025387       4.78430417       0.00065136      -0.00483225       0.01085761
C        7.50968156       2.21400908       6.68006260       0.00972004      -0.01338869       0.00543197
C        8.65055878       4.47500486       5.53205921      -0.00118157      -0.00511475       0.01288760
C        8.34197404       3.03160187       7.43477340       0.00869361      -0.01404881       0.00693506
C        8.90501152       4.16561280       6.86297530       0.00401614      -0.01022859       0.01040971
H        6.56298923       1.91051982       4.78416887       0.00758033      -0.01056057       0.00648157
H        7.60961130       3.90363319       3.75083028       0.00002962       0.00013855       0.01214835
H        7.06344610       1.33281532       7.12073504       0.01324414      -0.01595287       0.00398757
H        9.10219950       5.34701563       5.07779023      -0.00608981      -0.00153738       0.01530360
H        8.53804526       2.79668304       8.47443626       0.01185678      -0.01706402       0.00564761
H        9.53693712       4.81305440       7.45795529       0.00394825      -0.01056984       0.01050459
C        3.29080785       8.15953715       1.15392318      -0.00258806      -0.01816040       0.01347313
C        3.07369994       6.88009951       0.65560102      -0.00385807      -0.01039679      -0.00407048
C        2.26383629       9.09387718       1.13279348       0.00086297      -0.01460326       0.02089677
C        1.83066858       6.53206101       0.14223231      -0.00243258       0.00181884      -0.01439486
C        1.02216403       8.74909815       0.61217557       0.00242397      -0.00208050       0.00960769
C        0.80362482       7.46795624       0.12115952       0.00132409       0.00545705      -0.00799875
H        4.26639271       8.43415272       1.53701992      -0.00417514      -0.02768242       0.02327693
H        3.87381704       6.15153278       0.66212911      -0.00663519      -0.01312084      -0.01002308
H        2.41893338      10.09746083       1.50354391       0.00202003      -0.02125821       0.03706352
H        1.67266318       5.53344138      -0.24117513      -0.00332232       0.00783536      -0.02764954
H        0.23131093       9.48648999       0.59725314       0.00583771       0.00110136       0.01520665
H       -0.17106777       7.19284988      -0.26630955       0.00268318       0.01415429      -0.01654083
C        5.05155317       8.82977241      11.18838557      -0.00127181      -0.00121681       0.00155685
C        6.22864071       9.01835172      11.90303934      -0.00049579      -0.00027879      -0.00031263
C        4.04156069       9.78160534      11.25096854      -0.00269838      -0.00302707       0.00454421
C        6.39419463      10.15515642      12.68534916      -0.00109842      -0.00116026       0.00096625
C        4.20758850      10.92119305      12.02966192      -0.00338076      -0.00399235       0.00602111
C        5.38171120      11.10654716      12.75070790      -0.00250889      -0.00308084       0.00418989
H        4.91645147       7.93848431      10.58818152      -0.00093970      -0.00053813       0.00049033
H        7.01803855       8.27835723      11.85102028       0.00043284       0.00087422      -0.00207489
H        3.11712904       9.62306945      10.70888632      -0.00305654      -0.00345142       0.00566545
H        7.30773814      10.29665052      13.25001194      -0.00048584      -0.00039997      -0.00045864
H        3.40850265      11.64808994      12.09951696      -0.00453505      -0.00579739       0.00860530
H        5.50049451      11.98003340      13.38153366      -0.00323269      -0.00429712       0.00572080
C        3.48260019       8.19584060       6.27671265      -0.00177865      -0.00563307      -0.00105862
C        2.49369167       7.90129617       7.30369226      -0.01579452       0.01848035       0.01559281
C        3.78128884       9.45467630       5.94666813      -0.00528297      -0.01339038      -0.00461328
C        1.73638897       8.86152705       7.83987333       0.00549996      -0.00957838      -0.00397977
C        3.13741200      10.62699775       6.63216125      -0.00332117      -0.00617599      -0.00172162
C        1.80986450      10.27453845       7.33803254      -0.00485146       0.00351477       0.00001810
H        3.96565022       7.36521145       5.77661006      -0.01422621      -0.00307386       0.01222062
H        2.36394398       6.86856500       7.60429410      -0.00919578      -0.00304882       0.01523137
H        4.50821567       9.69485290       5.17724338      -0.01859155      -0.01240865      -0.00023639
H        0.97597050       8.62720222       8.57577807      -0.00799785       0.00779366       0.00947342
H        3.84326280      11.01970871       7.38056006      -0.00248241      -0.00679913      -0.00116557
H        1.65800024      10.97694881       8.16926886      -0.00515513       0.00540274      -0.00617915
C        5.47370037       2.45160434       9.19172967      -0.01800133       0.00566746      -0.00620729
C        4.45169253       1.66878823       8.67274116      -0.01815698       0.00631942      -0.00736970
C        5.33327415       3.83062500       9.26565112      -0.01995260       0.00586967      -0.00986189
C        3.27833278       2.26637459       8.22871714      -0.01852196       0.00482634      -0.00828388
C        4.15721510       4.42816113       8.83470827      -0.02043925       0.00421120      -0.01247311
C        3.13039640       3.64541029       8.31824485      -0.02220118       0.00445867      -0.01046670
H        6.39661739       1.99509418       9.52081002      -0.01785161       0.00572234      -0.00163265
H        4.58083962       0.59615820       8.58727047      -0.01646287       0.00509301      -0.00242245
H        6.14670853       4.43196447       9.64966113      -0.01952668       0.00606708      -0.00693382
H        2.49338449       1.66184172       7.79309282      -0.01580630       0.00274239      -0.00668223
H        4.04398681       5.50389079       8.90041721      -0.01936382       0.00296082      -0.01423289
H        2.21647592       4.11077548       7.97336790      -0.02216652       0.00178235      -0.01207463
