146
Lattice="17.301045394284756 0.0 0.0 0.0 17.301045394284756 0.0 0.0 0.0 17.301045394284756" Properties=species:S:1:pos:R:3:forces:R:3 energy=-1899048.0 stress="-0.0010809488594532013 0.00024439837579848245 0.00023239175789058208 0.00024439837579848245 -0.0009153068531304598 8.022254041861743e-05 0.00023239175789058208 8.022254041861743e-05 -0.0010552253806963563" pbc="T T T"
W       17.28109374      16.92611984       0.85007164      -0.00232631       0.00913037      -0.00367948
O       11.16371419      13.91115500       9.28729022       0.01977134      -0.00567454      -0.00269485
O       12.39629769      13.47933435       6.91429564      -0.00022197      -0.00229955      -0.01330078
O       11.51670514      15.93236904       7.56857417      -0.00306922      -0.00661111      -0.00279446
O        9.75855783      13.96074894       7.02385104      -0.00311208      -0.00972658       0.01307213
Cr      11.17982633      14.33393418       7.71492105       0.00436413      -0.00798629      -0.00296111
O        3.27826525      16.48536901      11.84317250      -0.00123069       0.00339219       0.00642759
O        3.54655520      13.85207653      12.80611269       0.01485752       0.00212336      -0.00252843
O        2.62025847      15.72492423      14.43690517       0.00406158      -0.01076758       0.00479007
O        5.18018040      15.69563140      13.74593858       0.00281096       0.00914431       0.00219685
Cr       3.69310488      15.34279957      13.31116346       0.00503802       0.00118506       0.00261748
O        1.88062519      15.55080051       8.10608138       0.00387561       0.01359719       0.00411266
O       -0.68158664      15.41582736       6.90599288       0.02996260       0.00634345       0.02607912
O        1.29408352      17.47630901       6.37782512       0.00846440      -0.01079929      -0.01208007
O        0.13059084      17.38820669       8.71712830       0.01034927       0.02806127      -0.01215768
Cr       0.74727745      16.52850515       7.55302776       0.01173699       0.00606561      -0.00868976
Cl      13.46247083      13.19047863      11.48927951       0.02481705       0.00031132       0.00464465
Cl      15.47274616      14.98865646      12.54551707       0.00261110       0.01706804       0.01099062
Cl      13.47900295      15.96773909      10.67398305       0.01854360      -0.00780469      -0.01959901
Cl      15.56650679      14.17006822       9.76376674       0.03751048      -0.00359464       0.01858008
C       14.47990202      14.58758816      11.11295322       0.02037473       0.00234507       0.00376071
Cl       9.06784626      10.82169974       4.33555812       0.00373054      -0.01874118      -0.00646830
Cl       7.28519755      11.54673366       6.48853134      -0.00077944      -0.00102246      -0.01688257
Cl       8.55713607       8.93852830       6.48101905      -0.01763478      -0.00883955      -0.00383607
Cl       6.47246862       9.53850076       4.55862985      -0.00497913      -0.00066766      -0.01416489
C        7.84728735      10.21104371       5.47117173      -0.00485596      -0.00703997      -0.01020208
Cl       4.82509696       3.65984779       6.59292532      -0.01269917       0.01482132       0.01053067
Cl       4.95328675       4.93305810       3.98704268      -0.01426139       0.01726268       0.01197669
Cl       7.37038676       4.60146217       5.52869193      -0.01278931       0.00730197       0.00681848
Cl       5.36351367       6.48906511       6.39644109      -0.00499630       0.01301280       0.01206733
C        5.64379607       4.92687314       5.62811556      -0.01150988       0.01322590       0.01028318
Cl       5.81422607      16.53844743      10.51350958      -0.00129414      -0.01021204       0.01184020
Cl       4.23128999      17.94570548       8.53912459       0.01699110      -0.01449765      -0.00475009
Cl       2.88682015      15.96542008      10.38752834      -0.00357217       0.00831485       0.00566840
Cl       4.84950940      15.13845231       8.18258208       0.00175050      -0.01939828       0.01802399
C        4.61638357      16.42978591       9.29707677       0.00440732      -0.01112083       0.00751758
Cl      13.39095208      11.11675640       8.83692150       0.00457850       0.00185335      -0.01080966
Cl      12.25810542      10.18706759       6.33617197      -0.00901091      -0.01632228       0.00432569
Cl      14.16291235       8.53173518       7.76779870      -0.01059695      -0.00548154       0.01333316
Cl      15.04834088      10.96860895       6.47232235      -0.00895780      -0.01585636      -0.01874104
C       13.69917120      10.21276426       7.36829051      -0.00328231      -0.00920141      -0.00504442
Cl      15.78207638       9.36647750      11.27949935      -0.00599808      -0.01403284       0.00279099
Cl      13.50802055       8.27111242      12.68756869      -0.00670838      -0.00996849       0.00279722
Cl      14.83946816      10.65771321      13.67942791      -0.00123195      -0.01276138       0.00191346
Cl      16.16379746       8.07675922      13.84174946      -0.00848827      -0.01656091       0.00121361
C       15.07425160       9.09010849      12.86729462      -0.00562507      -0.01273912       0.00284562
Cl       8.54958573       5.72902183       8.83076560       0.00624412      -0.00951302       0.01582447
Cl      10.59755535       5.31733025       6.81604833      -0.00271995       0.01879245       0.00343722
Cl       9.46445061       3.04129999       8.21851479       0.01416360       0.00073677      -0.01417592
Cl      11.20894034       4.88312267       9.61306436       0.01299050      -0.00659714      -0.00480515
C        9.94812774       4.73751512       8.37450101       0.00784207       0.00087310       0.00008714
Cl       2.12844393      10.69401091      11.94491427       0.00143765       0.00953093      -0.00002086
Cl       3.77001758       9.74261026       9.74825874      -0.00729209      -0.00379035       0.00017552
Cl       2.81379872      12.48419495       9.77722909       0.00827262       0.00092667      -0.00372389
Cl       0.96099609      10.31461849       9.31531071      -0.00416791       0.01092114       0.00294265
C        2.41973324      10.81694297      10.20890679      -0.00042576       0.00416200      -0.00017459
Cl       7.98583884      -0.81061245       3.99032109      -0.00774024      -0.00630921       0.01309785
Cl       9.66445504      -0.11493946       6.25127188      -0.00075692       0.00081456       0.00391763
Cl       7.03665871       1.08088212       5.95918636      -0.00563613      -0.00603466       0.01495969
Cl       9.17808046       1.82521983       4.13773629      -0.01967502      -0.00128475       0.00362784
C        8.48686547       0.48504532       5.11282586      -0.00750250      -0.00349219       0.00899969
Cl      10.22917040      15.19031024      15.95945843      -0.01946247       0.00292182      -0.02056506
Cl      12.48728298      13.61778961      15.04264068      -0.00867513       0.01107728      -0.00553606
Cl      12.50567882      16.49701695      14.72132152      -0.01880452       0.00987965      -0.01026702
Cl      10.71073145      14.87592033      13.12260247      -0.00208360      -0.00010648      -0.01758432
C       11.47078212      15.04327091      14.69777249      -0.01223818       0.00578389      -0.01368217
Cl      16.80927518      10.01726145       1.58286610       0.01596767       0.02245545      -0.00950675
Cl      14.97013731      12.01872604       0.58933527      -0.00444113       0.00912206       0.00055739
Cl      15.96451356      12.20306811       3.29907906      -0.00081584       0.00999421      -0.00260413
Cl      14.10000080      10.11071265       2.60872850       0.01829019      -0.00554535      -0.00508732
C       15.45469013      11.08332003       2.02067054       0.00758085       0.00906357      -0.00420658
Cl       5.86505406       4.82501691       0.02233315      -0.00370861      -0.02383670       0.03261971
Cl       5.50923594       7.48967069      -1.08156312       0.01354839      -0.04008725      -0.01672420
Cl       6.65122835       7.15304457       1.57283185      -0.01254699       0.00067119      -0.00433162
Cl       3.85511289       6.60497214       1.11543003       0.00100416       0.00198375      -0.01836424
C        5.47333188       6.52036982       0.40096290       0.00316456      -0.01936353      -0.00611627
Cl      12.55293004       1.46538054       2.31059632      -0.00995493      -0.01420045       0.00962782
Cl      13.98557501       2.87086913       4.35505768      -0.01687393      -0.00268831       0.00791919
Cl      13.69896978       4.06800598       1.76554703      -0.02722397      -0.01011932       0.00621605
Cl      17.56975877       1.38099240       2.16840024      -0.00842614       0.00813586      -0.00302854
C       13.35639231       2.82316260       2.80542822      -0.01519625      -0.01171394       0.00860377
Cl      14.84501366       6.84359821      17.97793823       0.00801533      -0.00258412       0.01518784
Cl      13.72702160       8.98930140      16.44405959       0.00763779      -0.00458816       0.01067534
Cl      12.02790065       7.50468737      18.27079470       0.00876312      -0.00101174       0.01342265
Cl      12.97016225       6.25017464      15.84077090       0.00890867      -0.00489369       0.01619984
C       13.38172294       7.41014074      17.12390939       0.00910598      -0.00291336       0.01404324
Cl      15.23571383      16.95328356       0.01650100       0.00202429       0.00422878      -0.01383951
Cl      14.24166185      14.66168622       6.37228901       0.00674188      -0.00343677       0.00915420
Cl      15.54631039      16.96814287       5.14654095      -0.00519399      -0.00030912       0.00859945
Cl      17.58722812      15.05199138       1.96410631      -0.00507596       0.01388359       0.00319341
C       15.60407318      15.61444510       6.23706745      -0.02623981       0.00622088      -0.00763582
Cl       2.98137029       8.11887647       3.94536466      -0.03567755      -0.01356385      -0.01054054
Cl       2.34098683       8.37035922       6.75544844      -0.01214169       0.01909228      -0.00866723
Cl       1.67621759       5.93100813       5.32926672      -0.01875939       0.00043157       0.02261087
Cl       0.21815064       8.37378282       4.78641093      -0.01956657      -0.00930773       0.00059407
C        1.80468168       7.70523684       5.21192692      -0.02360683      -0.00120208       0.00413580
Cl      10.55579790       3.32309961      13.09036616       0.00356019       0.00537187       0.00749458
Cl       8.87401362       4.61839885      15.06699391       0.00626683       0.01292049       0.00383031
Cl       7.89328902       4.21623631      12.36808710      -0.00076061      -0.00999151       0.01000258
Cl       9.98135702       6.16090038      12.87636969      -0.00783232       0.00119382      -0.01071090
C        9.32451566       4.57860003      13.34755495       0.00044216       0.00275344       0.00216115
Cl       4.15691880      11.48892671       0.75940396       0.00261638       0.01251854      -0.00903719
Cl       7.02734233      11.22388614       0.99110046       0.00180379       0.00889069      -0.00170490
Cl       5.59462790      12.84098478       2.90036855      -0.00351036       0.00985765      -0.00630072
Cl       5.86659265      13.74930113       0.14928673       0.00822928       0.00851598      -0.00605997
C        5.66843929      12.32187865       1.19312515       0.00254507       0.01011857      -0.00593542
Cl      -0.72243934       4.02444450      16.52612852      -0.00476563      -0.03648990       0.02938944
Cl       2.08488081       3.67532709      17.11503913       0.00208984      -0.01958227       0.00481765
Cl       0.48666646       5.42330652      18.78025426       0.00877260      -0.01865226       0.00945854
Cl       1.12468158       6.20165809      16.05252123      -0.01760249      -0.03275566      -0.00116870
C        0.75167399       4.83803702      17.11139234      -0.00312341      -0.02595096       0.01125859
Cl       8.22663640       9.27495512      10.78782111       0.00295502       0.01485413       0.00882089
Cl       9.59333977      11.24561031       9.15213452      -0.00453691      -0.00214380      -0.01560336
Cl      10.76433991       8.61635495       9.55300099       0.00054246       0.00530243       0.01040325
Cl      10.66878364      10.52999507      11.72473605       0.00242376       0.02756864      -0.00976288
C        9.81092200       9.93189559      10.28349106       0.00058462       0.01148739      -0.00134002
Cl       2.21962364       1.90571014      13.80583433       0.01225960      -0.00366102      -0.00470943
Cl       4.79191254       1.98801937      12.47755555       0.01103085       0.01353383      -0.00392967
Cl       4.64790950       1.72035315      15.36069563       0.01165076       0.00045174      -0.00533184
Cl       3.94342547       4.23327853      14.07531304       0.00181460       0.00148815       0.00710008
C        3.90107549       2.46918085      13.92449212       0.00886965       0.00228011      -0.00192110
Cl       0.94219297      12.01728404       6.30844124      -0.01346928       0.03124823      -0.00107756
Cl       2.20671582      11.68498081       3.72290814      -0.01062256       0.00218630       0.00513968
Cl       3.82761323      12.17717233       6.06550453      -0.01121855       0.00147718       0.00383849
Cl       2.14590586      14.28349916       4.99041316       0.01193066       0.01102212      -0.01107528
C        2.27918947      12.52536637       5.27584660      -0.00541408       0.01142544      -0.00103591
Cl      10.37212770      11.16063940      16.89623712       0.00236946       0.00046897      -0.00842029
Cl      10.71894519       9.14231955      14.84400851       0.00584230      -0.00082195      -0.00549972
Cl       8.31271041      10.74171349      14.88925096       0.00411159      -0.00522137      -0.00616404
Cl       8.78080944       8.74386432      16.94141331       0.00849253      -0.00252438      -0.00263628
C        9.54710770       9.95178493      15.88772341       0.00454521      -0.00290805      -0.00558288
Cl       3.53064387       5.37549612      10.04010600      -0.00001621       0.01324792      -0.00411066
Cl       0.90963667       6.56136882       9.65608591      -0.00755012      -0.00150329      -0.00020516
Cl       2.29776844       6.91134520      12.17245783      -0.00714383       0.00695342      -0.00396267
Cl       1.23332437       4.30893343      11.44682090       0.00720617       0.00110644      -0.00106791
C        1.98867249       5.78719168      10.82727249      -0.00128900       0.00446603      -0.00243118
Cl      12.06705419      12.95493142       3.79573396       0.02283454      -0.02129686      -0.02566457
Cl      12.61102783      14.54525133       1.42280231      -0.00556913       0.02107142      -0.00136954
Cl      11.45692728      15.76453632       3.77856954      -0.00363114      -0.02749392       0.02447602
Cl       9.87625872      13.92715379       2.16909580       0.00453943      -0.01340958       0.00398839
C       11.50477063      14.28577808       2.79979718       0.00486332      -0.00984068       0.00050062
Cl       3.34827045      17.51770421       4.82961771       0.01731420       0.01782572      -0.01858604
Cl       4.70310072      15.99460927       2.82364148       0.00581256       0.02521431      -0.01784757
Cl       4.82669310      18.86001399       2.76277274       0.01177177       0.02595806      -0.02390543
Cl       1.43645015      16.99662057      -0.76247021       0.00490537       0.00634679       0.00332314
C        4.30656002      17.45714964       3.48766001       0.01261027       0.02707881      -0.02092029
