139
Lattice="13.093290060847815 0.0 0.0 0.0 13.093290060847815 0.0 0.0 0.0 13.093290060847815" Properties=species:S:1:pos:R:3:forces:R:3 energy=-540622.0625 stress="0.00019693856302183121 -0.00024713661696296185 -0.00030785545823164284 -0.00024713661696296185 0.0005383192910812795 2.8515487429103814e-05 -0.00030785545823164284 2.8515487429103814e-05 -0.00019507005345076323" pbc="T T T"
W       13.21037750      14.12494890       0.12061724       0.00883621       0.00163527       0.00729887
O        4.81481328      10.72577472       5.53486211      -0.00158238       0.01050019      -0.00307804
O        5.57768353       8.68815283       6.06241753       0.00310802       0.01362467       0.00161481
C        4.02315905       8.86553254       4.27042828       0.00375378       0.00632524      -0.00021052
C        4.89753150       9.47271352       5.37881127       0.00144625       0.01020765      -0.00062132
H        4.46980279       7.94772397       3.88829857      -0.00011850       0.00066492       0.00932836
H        3.84600438       9.57661354       3.46408419       0.01221177       0.00117634      -0.00654705
H        3.05447184       8.60146814       4.70550845      -0.00048739       0.01644490      -0.00389327
O        2.47095857       3.63858784       0.98070051       0.00970653       0.00947971      -0.01468564
O        1.76237645       1.70326211       0.03897854       0.00279129       0.00625271       0.00118203
C        4.00665886       1.76368838       0.91996202       0.00251633       0.00779986       0.00107780
C        2.78501403       2.52422716       0.73163991       0.00943401       0.00876868      -0.00273538
H        3.78844909       0.74960313       1.25469278       0.00045633       0.00710347       0.00363185
H        4.65477919       2.27622226       1.62327747       0.00303158       0.00611638       0.00423248
H        4.57145467       1.66841575      -0.05336312       0.00781909       0.00408784       0.00586221
O        3.26504954      12.16302690       2.62781204      -0.01228386      -0.00136983      -0.01337528
O        1.56760790      13.51474917       3.01501972       0.01068360       0.01777640       0.00683540
C        2.17529046      11.91468371       4.75045736       0.00153652       0.00305375      -0.00570029
C        2.41535197      12.50540759       3.40164907       0.00113273       0.00540075      -0.00517079
H        1.76712352      12.64106200       5.45506144      -0.00004227       0.00084621      -0.00438158
H        3.12487940      11.48873323       5.12101965       0.00280267       0.00420214      -0.00649755
H        1.45361560      11.09964048       4.64469843       0.00327511       0.00167006      -0.00809654
O        5.83904822       1.24090176      11.83994536       0.00585175       0.01200724       0.01218486
O        7.17521090       2.12754105      13.40971985      -0.00435066      -0.02986836       0.03935695
C        8.18221870       0.83261875      11.68066737       0.00416446       0.00689322       0.01776963
C        6.96849573       1.46637833      12.36368197       0.00204217      -0.00619680       0.02314150
H        8.04592271       0.73643617      10.60316007      -0.00706203      -0.00157484       0.02060054
H        8.34455422      -0.17392274      12.07750967       0.02320733       0.01393302       0.02466801
H        9.08600250       1.40749626      11.88443208      -0.00217483       0.02059405       0.00332378
O       10.56377936      11.74745560      12.76991487       0.00823617       0.00200024       0.00561118
O       11.23424062      10.69358146      10.87103927       0.00993568      -0.00191307       0.00830436
C       12.58605634      12.42604795      11.75374932       0.01296264      -0.00489751       0.01038456
C       11.30462702      11.50723740      11.78662812       0.01042640      -0.00151932       0.00736678
H       13.07662810      12.22865349      12.77670618       0.00923699      -0.00059253       0.01272404
H       12.28153880      13.52254978      11.56463062       0.01639229      -0.00509509       0.00353885
H       13.30894566      12.15376740      10.98193823       0.01613314      -0.01018798       0.01522107
O        8.92453339       9.23101323       8.40960769       0.02638643      -0.02752352       0.00516701
O        8.56299497       7.29147714       7.37974287       0.00585580      -0.01143789      -0.01626150
C        9.44739884       9.09686601       6.08820368      -0.01801085       0.00451279      -0.00664449
C        8.93017721       8.49400816       7.40109129       0.00780749      -0.01235449      -0.00565290
H        9.80292681       8.31512088       5.41634843      -0.01116055       0.01437304      -0.01402263
H       10.24273540       9.81450072       6.28897091      -0.03068229       0.01926561      -0.01461522
H        8.62212743       9.62064896       5.60307694      -0.03319979      -0.00990036       0.00522782
C        0.11926494       9.22064982       2.30346524      -0.00888592      -0.00870565       0.00213531
C        0.51554238       7.89163829       2.41130922      -0.01069123      -0.00964093      -0.00165661
C        0.89118060      10.11463775       1.57140809      -0.00697865      -0.00726394       0.00582860
C        1.67596631       7.45697616       1.78149279      -0.01028349      -0.00886300      -0.00118474
C        2.05406526       9.68338275       0.94444371      -0.00651471      -0.00670114       0.00601407
C        2.44397501       8.35337691       1.04691546      -0.00811757      -0.00753331       0.00290210
H       -0.78571458       9.55915234       2.79358926      -0.00932540      -0.00997791       0.00215393
H       -0.07888857       7.19839497       2.99311638      -0.01253162      -0.01060439      -0.00495552
H        0.59552469      11.15611029       1.50561667      -0.00585848      -0.00686601       0.00885067
H        1.98640710       6.42260490       1.86563757      -0.01151814      -0.00954849      -0.00402089
H        2.67140742      10.38696293       0.40134346      -0.00490095      -0.00560132       0.00933285
H        3.35710224       8.02340923       0.56758130      -0.00744556      -0.00656974       0.00357075
C       11.11456280       1.07448314       1.19462700       0.00654551       0.00132251       0.00157106
C       12.18021708       1.95699366       1.47488011       0.00474358       0.00197601       0.00580227
C        9.90798638       1.27006309       1.87160824       0.00298938       0.00068609      -0.00451884
C       12.07694915       2.97700211       2.42650511      -0.00000146       0.00167991       0.00507863
C        9.79646088       2.27869014       2.81760269      -0.00217414       0.00141397      -0.00603260
C       10.87833187       3.12028835       3.10028819      -0.00338486       0.00163834      -0.00086180
H       11.09004963       0.16462722       0.51155248       0.00910475       0.00001415       0.00237035
H       13.99061824       0.57071648       3.69159604       0.02215254       0.02689168       0.01563478
H        9.05738847       0.64488830       1.63807461       0.00372964       0.00156879      -0.00850480
H       12.90950264       3.64209333       2.61329908      -0.00173103       0.00245706       0.00968432
H        8.85814466       2.42337414       3.33482463      -0.00551778       0.00191474      -0.01207361
H       10.76735105       3.90121730       3.84272154      -0.00743065       0.00167927      -0.00122531
C        5.49671613       0.91151575       4.78253556      -0.00314295      -0.00971994      -0.00346667
C        6.16913591       1.71730308       3.86747514      -0.00545669      -0.01066701      -0.00598957
C        4.82589974       1.50444298       5.84774561      -0.00030933      -0.00867026      -0.00225517
C        6.18093015       3.10030327       4.02798354      -0.00801941      -0.01017340      -0.00925127
C        4.82583058       2.88680335       6.00178833       0.00100221      -0.00846541      -0.00249714
C        5.50954752       3.68809544       5.09458239      -0.00316769      -0.00914356      -0.00653168
H        5.49077861      -0.16866951       4.68378652      -0.00165134      -0.01013950      -0.00067395
H        6.66991988       1.27989416       3.01107223      -0.00940979      -0.01055369      -0.00813778
H        4.31599168       0.87773672       6.56890944       0.00093798      -0.00829364      -0.00079721
H        6.70586407       3.72205783       3.31260257      -0.01229019      -0.01100561      -0.01294501
H        4.32015246       3.34094883       6.84397434       0.00517833      -0.00777100      -0.00021574
H        5.53041264       4.76233097       5.22863307      -0.00356326      -0.00878456      -0.00822985
C        6.55529733       5.10920145       0.92425106      -0.00186858       0.00019510      -0.00666082
C        7.89234812       5.31275399       0.60274380      -0.00225731      -0.00137179      -0.00956568
C        5.78087649       6.17684830       1.36514834       0.00048585       0.00163787      -0.00522774
C        8.44659420       6.58364297       0.70604213      -0.00024296      -0.00202288      -0.01128627
C        6.33433789       7.44905988       1.46685804       0.00260296       0.00081441      -0.00602997
C        7.66694104       7.65430704       1.12934896       0.00229988      -0.00105289      -0.00897935
H        6.15763674       4.10621535       0.82093335      -0.00402782       0.00103167      -0.00319441
H        8.47603047       4.46267705       0.27280723      -0.00314367      -0.00172634      -0.01006870
H        4.74223244       6.01468001       1.62959657       0.00064459       0.00326553      -0.00309163
H        9.48533444       6.74722315       0.44729961      -0.00064084      -0.00357357      -0.01388272
H        5.72793817       8.28008440       1.80329936       0.00479961       0.00137153      -0.00372705
H        8.09334774       8.64820324       1.18055183       0.00420085      -0.00187942      -0.00869753
C        5.41273114       3.52244002       9.59805822       0.00236471       0.00863720       0.00660612
C        6.39482256       2.66538639       9.11925494       0.00349919       0.00898698       0.00788052
C        5.47585161       4.88192989       9.31151750      -0.00454223       0.00671867      -0.00440329
C        7.44948454       3.17525199       8.37303452      -0.00269799       0.00723064      -0.00210269
C        6.53579993       5.39642824       8.57152380      -0.00889134       0.00534928      -0.01179862
C        7.52723230       4.53774605       8.10923402      -0.00823912       0.00573903      -0.01079519
H        4.62172592       3.11500379      10.21351524       0.00686975       0.01012130       0.01354226
H        6.33074686       1.61328409       9.35943775       0.00760315       0.01058778       0.01528020
H        4.69992134       5.54560258       9.67566437      -0.00588475       0.00632912      -0.00644256
H        8.21416577       2.50376773       7.99935885      -0.00231433       0.00792519      -0.00297460
H        6.62605500       6.45185147       8.34247444      -0.01334935       0.00410417      -0.01858313
H        8.34805466       4.96512682       7.55010278      -0.01235519       0.00463405      -0.01757956
C       11.62376281       6.02045006      10.44451247       0.00091511      -0.00457026       0.00333148
C       10.91979920       6.48196552       9.33845323       0.00173050      -0.00731584       0.00162862
C       12.52408306       4.96644631      10.31622696       0.00256947      -0.00340098       0.00641720
C       11.13129038       5.89464231       8.09461068       0.00448477      -0.00964151       0.00297792
C       12.72765555       4.37708363       9.07385351       0.00572854      -0.00510249       0.00776662
C       12.03612162       4.84901920       7.96288471       0.00675912      -0.00785164       0.00591767
H       11.47408784       6.49033367      11.40894755      -0.00111176      -0.00320962       0.00249174
H       10.21052804       7.29792372       9.42272677       0.00029621      -0.00801393      -0.00140690
H       13.06756745       4.60563659      11.18135057       0.00201164      -0.00119659       0.00776480
H       10.55459678       6.26130071       7.25459462       0.00405788      -0.01332664       0.00145166
H       13.42253287       3.55296617       8.97037588       0.00651780      -0.00449605       0.00993200
H       12.19752205       4.39212006       6.99316528       0.00891651      -0.00907432       0.00685188
C        7.02365350      10.31228974      10.63862027       0.00159371      -0.00059494      -0.00599371
C        6.84466376       8.93269227      10.62510220       0.00144348      -0.00047393      -0.00813826
C        5.96394080      11.14865584      10.97184663       0.00308228      -0.00072709      -0.00025273
C        5.60714524       8.38988918      10.94662057       0.00247931      -0.00076738      -0.00419506
C        4.71865850      10.60138182      11.26153075       0.00401239      -0.00124630       0.00395574
C        4.53584058       9.22451233      11.24643084       0.00389665      -0.00110448       0.00200261
H        7.99234801      10.71028271      10.36757759       0.00085145       0.00009498      -0.00835793
H        7.66971222       8.30470577      10.31810104       0.00062582       0.00067391      -0.01263040
H        6.08159766      12.22607386      11.00529117       0.00370137      -0.00104937       0.00080404
H        5.47391554       7.31544850      10.94219388       0.00228886      -0.00066589      -0.00571452
H        3.88308714      11.25823133      11.47116304       0.00504577      -0.00170630       0.00929729
H        3.55334833       8.80678612      11.42808757       0.00460300      -0.00142869       0.00539942
C        3.31688923       9.59295700       8.12622537      -0.00548652       0.00718448      -0.00196307
C        2.32892473      10.49200068       8.51009530      -0.00592322       0.00520794       0.00133594
C        3.05958960       8.22756078       8.17955825      -0.00374067       0.00676830      -0.00364687
C        1.09696390      10.03455830       8.96631849      -0.00438038       0.00296083       0.00295457
C        1.83034246       7.76564364       8.64070470      -0.00302782       0.00442877      -0.00390114
C        0.85042439       8.66837758       9.04208235      -0.00350574       0.00251576      -0.00087315
H        4.27883569       9.94090486       7.77467024      -0.00642490       0.00895523      -0.00271387
H        2.53235330      11.55556003       8.45635983      -0.00779621       0.00563498       0.00281965
H        3.83245446       7.54298903       7.85016752      -0.00306104       0.00827678      -0.00510050
H        0.31040770      10.71486010       9.26957748      -0.00186700       0.00243944       0.00978391
H        1.62544999       6.70205868       8.68854619      -0.00166192       0.00412209      -0.00587931
H       -0.10636058       8.32019829       9.40657007      -0.00264578       0.00038315      -0.00070377
