139
Lattice="12.425847631549782 0.0 0.0 0.0 12.425847631549782 0.0 0.0 0.0 12.425847631549782" Properties=species:S:1:pos:R:3:forces:R:3 energy=-544182.375 stress="-0.0006754731293767691 -0.0004068723355885595 -1.4013596683071228e-06 -0.0004068723355885595 0.0006373279029503465 -0.0002538109401939437 -1.4013596683071228e-06 -0.0002538109401939437 0.00025020306929945946" pbc="T T T"
W       12.63126581      13.00378346       1.05658528      -0.00719821       0.00293621       0.00393102
O        4.29991136      10.42442717       7.39007803      -0.00396657       0.00468731      -0.00076938
O        3.69100224      10.81678044       9.49798184       0.00499523      -0.00583100       0.00405264
C        2.91857658       8.80630611       8.47463851       0.00079000      -0.00109971      -0.00283247
C        3.70189014      10.12318653       8.45727941       0.00070858      -0.00036716       0.00051461
H        2.65776820       8.52319344       9.49212588      -0.00915617       0.00291861      -0.00422628
H        3.49632403       8.01712149       7.99271847       0.00610489      -0.00306406       0.00673557
H        1.99561667       8.93805277       7.90829511       0.00689576      -0.00398209      -0.01324299
O        2.05497579       3.34234512       5.05311134       0.01804495      -0.00939918      -0.03246337
O        3.06022925       5.22879716       5.75762708      -0.01365089      -0.00264263      -0.00464821
C        2.91271220       4.84728492       3.42086838       0.01289292       0.01855344      -0.00984323
C        2.65877786       4.43226507       4.87511057       0.00514358       0.00067413      -0.01623869
H        2.18527936       5.60930827       3.13943266       0.01456343       0.02211563      -0.00488919
H        2.79612425       4.00108917       2.74944435       0.01877507       0.02696304      -0.02133868
H        3.90884882       5.26393806       3.28236962       0.01357652       0.02091450       0.00194701
O       -0.94822743       8.22789105       3.23922256      -0.01176360      -0.00146381      -0.00314264
O        1.19309490       7.81534265       2.44401513      -0.00230792       0.00949041      -0.01074640
C        0.77755214      11.26271592       2.01965514      -0.00991236      -0.00232592      -0.00669168
C        0.12176516       7.99384389       2.85315576      -0.02859429       0.00774062       0.00154344
H        1.47593378      11.45203576       2.83685049      -0.01060072      -0.00467420      -0.00540049
H       -0.10737377      10.80549302       2.46890026      -0.00925831      -0.00501021      -0.00829692
H        1.22625856      10.52321454       1.35278110      -0.00894263       0.00071915      -0.00916146
O        9.13215554       4.81960780      11.50747338       0.00349331      -0.01087987       0.00080919
O        8.19909053       3.35385752      12.92201533       0.00942894      -0.00175786       0.01426983
C        6.81001685       5.05490083      11.98779215       0.00566816      -0.00751495       0.01073461
C        8.16192786       4.35535423      12.15067817       0.00641704      -0.00607002       0.00822960
H        6.08343124       4.34591378      11.58819315       0.00741023      -0.00806660       0.00827170
H        6.89896058       5.91349609      11.32108310       0.00362461      -0.00566891       0.01289199
H        6.45420294       5.38118418      12.96535153       0.00431211      -0.01131701       0.01155736
O       11.35527696      12.43781278      12.56591395      -0.01840132       0.01532897       0.01163352
O       11.83141272       8.68932040      10.44383047      -0.01701939       0.00996989       0.01185679
C        9.66978491       9.23024933       9.55684806      -0.01250803      -0.00185175      -0.00700447
C       11.16622243       9.20985484       9.59317560      -0.01294285       0.00568002       0.00532269
H        9.34114640       8.50922543       8.80463417      -0.00249244      -0.00845474      -0.00529113
H        9.27013544      10.20952763       9.28915420      -0.01538967      -0.00520176      -0.01566180
H        9.29116585       8.90185796      10.51974719      -0.01866063       0.00213415      -0.00799540
O       11.81105712       9.83433392       8.55768816      -0.00773141       0.00621805       0.00959127
O       11.07248406      11.72759358       7.60573660      -0.00775602       0.00617433       0.00973979
C       10.59620781       9.68172750       6.45086131       0.01125363       0.00748885      -0.00111747
C       11.10708466      10.53901891       7.55223429      -0.00268144       0.00640839       0.00575343
H        9.72517898      10.16192835       6.01164426       0.02114320       0.01135105      -0.01626612
H       10.35900928       8.66877767       6.76886842       0.00052052       0.00934651      -0.00281903
H       11.40150743       9.62880631       5.71025522       0.02338588       0.00109442       0.01231833
O        1.39741438       9.92889628       5.05722986      -0.01158142      -0.01441479      -0.02442008
N        3.52724870       9.16870609       4.70690678      -0.00318629      -0.00164407       0.00022464
C        4.11476500      10.46894290       4.49254549      -0.01155897       0.00122337      -0.00583266
C        4.37415947       8.00658982       4.54170658       0.00994470       0.00425284       0.02510532
C        2.23191022       9.02911445       5.02701811      -0.00506312      -0.00893801      -0.01098554
H        4.34343111      10.62559731       3.43055795      -0.00455216      -0.00595315      -0.00531986
H        5.02563517      10.54471764       5.08564817      -0.01715881       0.01289451       0.00116795
H        3.42206643      11.22672083       4.84872365      -0.02063873      -0.00120580      -0.01828291
H        4.61528345       7.85203249       3.48453496       0.03447996       0.00113878       0.03123426
H        3.86591320       7.11723919       4.92698180       0.00732949       0.00261867       0.01781511
H        5.30753311       8.14962864       5.08914498      -0.00397503       0.01474569       0.04597560
H        1.98192976       7.98073447       5.26278500       0.00020656      -0.00921369      -0.00700733
O        7.93043693      -0.52799420       7.43643097       0.00591367      -0.00791097       0.00048745
N        7.03757371       1.15365633       8.70494938       0.01370776      -0.00740165       0.00513130
C        5.75658015       0.49201053       8.89095680       0.01343711      -0.00596953       0.00959614
C        7.26766903       2.41735860       9.38371745       0.01948805      -0.00933264       0.00689021
C        8.00738102       0.56336764       7.98911537       0.00994411      -0.00848401       0.00087452
H        4.94353687       1.17984068       8.65554456       0.01379818      -0.00206348       0.02082121
H        5.61967235       0.18352756       9.92574785       0.02026411      -0.01319519       0.00834596
H        5.68250577      -0.38380169       8.24878833       0.00682253      -0.00113276       0.00380906
H        6.47209170       3.12355314       9.13604421       0.01894239      -0.00766015       0.01384578
H        8.22436950       2.83629617       9.07620259       0.01817405      -0.00994837       0.00172228
H        7.25816773       2.29358224      10.46606927       0.02663726      -0.01133490       0.00679463
H        8.92429489       1.17778765       7.93968173       0.01103586      -0.01023984      -0.00219161
O        7.60518357       7.26093843       1.85761543      -0.01292717      -0.00362802       0.01201636
N        8.58254813       9.10497024       0.94110061      -0.00943740      -0.01014370       0.00248879
C        7.34721243       9.85489580       0.93749035      -0.00649893      -0.00558488       0.00673991
C        9.80740895       9.83699027       0.72084805      -0.00697939      -0.01531404      -0.00262376
C        8.58623612       7.83426020       1.42775050      -0.01213133      -0.00880450       0.00627506
H        7.30040494      10.47924731       0.04440746      -0.00898189      -0.00765239       0.00547627
H        7.26572537      10.50146223       1.81727709       0.00043720      -0.00292554       0.00537851
H        6.51917395       9.15148536       0.94792561      -0.00907680      -0.00256017       0.01286618
H        9.70809045      10.49797347      -0.13926268      -0.00827033      -0.01424980      -0.00184378
H       10.62826637       9.15052451       0.52200847      -0.01114652      -0.01883134      -0.00733158
H       10.05914322      10.45618559       1.58882249      -0.00052879      -0.01704103      -0.00324574
H        9.58238197       7.36646546       1.38350842      -0.01433498      -0.01270106       0.00362432
O       12.15589116       5.30667946       2.99090167       0.00472957       0.01413870      -0.02186334
N       11.80914538       3.22928222       2.11220013       0.01112963       0.00254784       0.00255418
C       11.20744462       3.73773516       0.87585369       0.01146827      -0.01487871      -0.00492880
C       11.63129326       1.83968562       2.40669930       0.01808198       0.00475156       0.01908350
C       12.19088645       4.09709870       3.10647866       0.00660710       0.01542342      -0.00733153
H       10.17130277       3.38490484       0.76406719       0.00812286      -0.00865243       0.00402458
H       11.78734519       3.42567732       0.00279665       0.00699724      -0.03632161      -0.00038153
H       11.19617927       4.82060856       0.92392230       0.02028770      -0.01389506      -0.02500372
H       10.57281407       1.56673438       2.34448157       0.01729780       0.00135392       0.04682778
H       11.99066879       1.63245179       3.42026853       0.04361178       0.01412074       0.01203340
H       13.55359600       1.28196662      -0.18178061      -0.00385619      -0.00360373       0.00164765
H       12.57415379       3.59129583       4.00680424       0.00435093       0.02613190      -0.00078136
O        5.66466630       3.07936711       2.68841364      -0.01414448      -0.01992071       0.01506782
N        5.66673169       3.48077501       4.94517869      -0.00314917      -0.00384516       0.01240146
C        6.21511280       4.82080685       4.88214393       0.00019428      -0.00576623       0.00147277
C        5.29891151       2.97532069       6.25145250      -0.00308635       0.00728144       0.01666889
C        5.43420352       2.75733691       3.84310271      -0.00973861      -0.01112351       0.01846957
H        7.15788272       4.86631937       5.43062575       0.00033072      -0.00373800       0.00108325
H        5.49305795       5.50535781       5.33028827       0.00262111       0.00025001      -0.00382280
H        6.39686576       5.08591306       3.84278899       0.00065984      -0.01414173      -0.00053370
H        6.18423441       2.91061645       6.88539546      -0.00318274       0.01371778       0.01748148
H        4.87001920       1.98124644       6.14243310      -0.00210960       0.00593519       0.02506672
H        4.54950176       3.63408805       6.69685968      -0.00410128       0.01031011       0.01069386
H        4.99438496       1.77641355       4.10433388      -0.01062447      -0.00811750       0.02751894
O        5.11617370       2.29252620      -0.86524501      -0.00436783      -0.00414532      -0.00778115
N        3.50814394       2.17427416       0.72581451      -0.00629601       0.00518808      -0.00849372
C        2.80672338       3.30859955       0.15541021      -0.00271099       0.00609840      -0.01140243
C        2.94663739       1.37033220       1.77250624      -0.00249717       0.01669595       0.00383525
C        4.66509392       1.78728770       0.13867606      -0.00757903       0.00008568      -0.00671279
H        1.97449427       3.57732827       0.80025413      -0.00706065       0.00472760      -0.01647946
H        2.43222189       3.08220123      -0.84387200       0.00391248       0.00692181      -0.01404929
H        3.49604450       4.14895503       0.08266923      -0.00301072       0.00698099      -0.00629860
H        2.25491095       1.94474196       2.39982970      -0.00631903       0.02289076      -0.00634512
H        3.72825060       0.98685896       2.42969689      -0.00048915       0.03463468       0.01155281
H        2.45188570       0.46829350       1.34764659       0.00424068       0.00731989       0.01763081
H        5.15306246       0.94783324       0.66206660      -0.01098326      -0.00025558      -0.00409111
O        9.40905258       3.43850980       4.77289259      -0.00146198      -0.00025010      -0.01157153
N        8.70298340       1.51889009       3.77107950      -0.00925019       0.00155467      -0.00963847
C        9.33195965       0.64832164       4.74238159      -0.01630302       0.00001539      -0.00657379
C        8.01759193       0.91268195       2.65141215      -0.00869727       0.00240666      -0.01051371
C        8.81194918       2.86453002       3.87071090      -0.00397462       0.00135946      -0.01092690
H       10.02044290      -0.03951693       4.24127185      -0.01249319       0.00061098      -0.00219700
H        8.59889477       0.06056218       5.29744093      -0.02074453      -0.00090021      -0.01348725
H        9.89223444       1.25423902       5.44911812      -0.02164024      -0.00121444      -0.00136097
H        8.69030681       0.21627384       2.13879957      -0.00833392       0.00303945      -0.01083746
H        7.70313804       1.68483807       1.94769546      -0.00791751       0.00317287      -0.00990248
H        7.14801913       0.34626229       2.99948831      -0.00900829       0.00260611      -0.01088996
H        8.31642209       3.38605086       3.03694349      -0.00147402       0.00209087      -0.01196939
O        9.61696767       6.64366991       7.61397399       0.00786614       0.00457811      -0.01845568
N       11.03878202       4.88666961       7.95969773       0.00373238       0.00280914      -0.01010495
C       11.32305315       5.22119659       9.33928781      -0.00138612       0.00315844      -0.00893632
C       11.76750692       3.78446771       7.35795371       0.00459345       0.00154175      -0.00646193
C       10.20160841       5.63740459       7.22355973       0.00803059       0.00328422      -0.01470989
H       12.34421573       5.59933884       9.44040766      -0.00047341      -0.00038309      -0.00486123
H       11.19056045       4.34172400       9.97046430      -0.00766155       0.00476599      -0.00794360
H       10.61700209       5.96969112       9.68480543       0.00011104       0.00656244      -0.01333470
H       12.83543787       4.00193736       7.27452791       0.00502026       0.00165188      -0.00467550
H       11.37200476       3.60485665       6.36004884       0.00637956      -0.00025378      -0.00694600
H       11.63587162       2.87922473       7.95521056       0.00338680       0.00276998      -0.00515741
H       10.08075394       5.24978751       6.20087735       0.01161146       0.00226259      -0.01459789
