139
Lattice="13.765233951406005 0.0 0.0 0.0 13.765233951406005 0.0 0.0 0.0 13.765233951406005" Properties=species:S:1:pos:R:3:forces:R:3 energy=-531073.125 stress="-0.0006754578789696097 0.0002423891201033257 0.00014195074618328363 0.0002423891201033257 -0.0006764038698747754 -1.3567363566835411e-05 0.00014195074618328363 -1.3567363566835411e-05 0.0001809183304430917" pbc="T T T"
W       14.68405931      12.72989199       1.23669306      -0.00566138      -0.00459845       0.00619790
O        2.00768155      11.22388092       2.01194679      -0.00823620      -0.00627828       0.00774279
N        1.46405025       9.66065803       3.78429496      -0.00857763      -0.01409787       0.00402367
C        1.71413345      10.42104138       2.93697103      -0.00684553      -0.00475842      -0.00020874
O        3.29318470       2.26218663       0.29016030      -0.01157891      -0.00319055      -0.00026651
N        2.37023380       0.17646705       0.95505964      -0.00483733      -0.00282094       0.01167655
C        2.85939078       1.24067554       0.62069749      -0.00987650      -0.00605714       0.00634822
O       -0.54267373      12.67789765       5.16079723      -0.01541299      -0.01202045      -0.01044740
N       -0.19187987      12.58036469       2.81120061      -0.00945234      -0.00732741      -0.00082236
C       -0.34414011      12.61335560       4.01447358      -0.01722204      -0.00802574       0.02085268
O        9.71452499      12.80208795      10.67541583      -0.04171062      -0.01039934       0.01526380
N        8.13193817      13.49774632       9.01042027       0.02549553       0.01016539      -0.03629065
C        8.92841284      13.15578303       9.84701006      -0.00950306       0.00098363      -0.01089603
O        8.71245860       1.94998991      13.93775628      -0.00335240       0.01830694       0.00013323
N        6.34380988       2.34064622      13.84550141      -0.00309467       0.02498284       0.01752284
C        7.52652570       2.14601912      13.88474154      -0.00254560       0.02121470       0.00851038
O       14.19532999      10.71657708      12.62622368       0.00018562       0.00016344       0.00205761
N       13.50162254      12.84438400      13.57113061      -0.00239863      -0.00185251       0.00424922
C       14.07354187      11.68863257      13.29211193      -0.00133772      -0.00137168       0.00358105
O       10.26198687       8.49052967       7.94661550       0.00047374      -0.00040168       0.00233287
C       10.45165552       7.11523030       7.69612489      -0.00196576      -0.00023627      -0.00000828
C        8.89432876       8.86274010       7.90390435       0.00106448       0.00167257       0.00347088
C       11.92966923       6.81493654       7.75541829      -0.00240999      -0.00284032      -0.00368375
C        8.75149749      10.30256190       8.32635481       0.00419996       0.00295746      -0.00026780
H        9.90638572       6.51853042       8.44338363      -0.00141922      -0.00053987       0.00013500
H       10.03918962       6.84378789       6.71307955      -0.00427884       0.00200002       0.00049847
H        8.50811854       8.70333919       6.88303751      -0.00034454       0.00013110       0.00435114
H        8.31780156       8.20192933       8.57103524       0.00079027       0.00415146       0.00553298
H       12.10711109       5.75286793       7.58550089      -0.00488544      -0.00277337      -0.00597844
H       12.46552934       7.38561231       6.99673188      -0.00334459      -0.00196430      -0.00362940
H       12.33053057       7.08834658       8.73184005       0.00014206      -0.00488970      -0.00410728
H        7.71046030      10.61903102       8.26884449       0.00485398       0.00494599      -0.00114650
H        9.09383972      10.44922609       9.35009257       0.00456153       0.00565780      -0.00075769
H        9.33719642      10.96337915       7.68886145       0.00507084      -0.00014129      -0.00245310
O        4.42554176       9.96044594       5.43092951      -0.00294134       0.00260061      -0.00355940
C        4.37666538       9.25512980       6.65073288      -0.00349194       0.00319200      -0.00330788
C        5.29210632       9.34176460       4.50141760      -0.00372900       0.00131756      -0.00335169
C        3.30650570       9.86208753       7.52200182      -0.00126216       0.00576678      -0.00257781
C        5.17740329      10.05686487       3.17792876       0.00028162       0.00390977      -0.00216872
H        4.15057205       8.19553623       6.45446582      -0.00608395       0.00368708      -0.00232512
H        5.36009907       9.29262477       7.14789692      -0.00291705       0.00129742      -0.00459173
H        6.32537395       9.36532103       4.88072501      -0.00417042      -0.00259279      -0.00209418
H        5.02241993       8.28383901       4.39563736      -0.00706407       0.00225979      -0.00545524
H        3.25484400       9.33558387       8.47591646       0.00077679       0.00863345      -0.00097553
H        3.52363974      10.91198586       7.71423072      -0.00087440       0.00624007      -0.00631505
H        2.34068375       9.78952991       7.02345408      -0.00232723       0.00415400      -0.00005290
H        5.94334901       9.70929808       2.48408206      -0.00129555       0.00118827      -0.00244204
H        4.20082301       9.87790259       2.73298040      -0.00045761       0.00988787      -0.00282872
H        5.30104783      11.13030841       3.31169394       0.00584445       0.00293550      -0.00028877
O        9.87054855       9.82068260       2.44995924       0.00591731      -0.00018623       0.00500625
C       10.87498605       8.91014527       2.04053611       0.00536904       0.00067623       0.00226009
C        9.68310418       9.82010253       3.85334439       0.00511301      -0.00490105       0.00492185
C       10.95648537       8.92872301       0.53391389       0.00510061       0.00496519       0.00242585
C        8.70428278      10.91219482       4.20103287       0.00548893      -0.00578034       0.00834604
H       11.83895939       9.19154827       2.48865667       0.00546962      -0.00132212       0.00295663
H       10.63209777       7.90095163       2.40478657       0.00486182      -0.00037169      -0.00080574
H        9.30872439       8.83634545       4.17627080       0.00420272      -0.00573355       0.00117709
H       10.64453972       9.98539220       4.36089213       0.00480491      -0.00734128       0.00604501
H       11.72645257       8.23834484       0.18843602       0.00529459       0.00654417       0.00009826
H       10.00027087       8.63601511       0.09820873       0.00524043       0.00628449       0.00160913
H       11.20862076       9.92579451       0.17277377       0.00520588       0.00560251       0.00505791
H        8.48606428      10.91309666       5.26923111       0.00431383      -0.01023534       0.00794584
H        9.11393780      11.88120253       3.92686093       0.00619777      -0.00480640       0.01315727
H        7.77345659      10.77540669       3.65349234       0.00610778      -0.00282326       0.00655062
O       11.26385856       1.98481041       3.88964865      -0.00000238      -0.00912558      -0.00306982
C       12.54632893       2.55851304       3.97366711      -0.00191990      -0.00476354      -0.00261676
C       11.02314618       1.33999591       2.64331031      -0.00192684       0.00116292      -0.00773194
C       12.72381379       3.16068385       5.34894216      -0.00082798      -0.01415271       0.00120312
C        9.69622506       0.63420727       2.72967714      -0.00005645      -0.00228919      -0.00990827
H       13.30963605       1.78813243       3.78428669       0.00050762      -0.00017369      -0.01049836
H       12.67155671       3.32363138       3.18985498      -0.00743291       0.00157279       0.00279006
H       11.02083855       2.06792286       1.82118747      -0.00597801       0.00820976      -0.00143534
H       11.82947729       0.62058698       2.45579531      -0.00084701       0.00461423      -0.01628650
H       13.67774830       3.68413603       5.41604519      -0.00414717      -0.00846388       0.00191598
H       11.91396506       3.85754173       5.55874810      -0.00484049      -0.02118394       0.00897642
H       12.69604831       2.38396023       6.11285821       0.00701705      -0.02002282      -0.00466900
H        9.55576949      -0.01412444       1.86703479      -0.00159276       0.00505281      -0.01459457
H        9.66152183       0.05097370       3.64999574       0.00367782      -0.00982293      -0.01481928
H        8.87323060       1.34582660       2.72189309      -0.00147896      -0.00401989      -0.00171460
O        9.43084730       3.81003206       5.62285672       0.00011367       0.00477993      -0.00067267
C        8.70472759       2.68058182       6.09924732       0.00349908       0.00257736       0.00050801
C        9.01525716       4.20101698       4.32723675       0.00207993      -0.00132346      -0.00278556
C        9.40953081       2.07269991       7.28134377       0.00227544       0.01090579       0.00602019
C        9.93500282       5.28304742       3.81612628      -0.00064871       0.00191137       0.00168642
H        7.68547386       2.99397592       6.37352827       0.00058645      -0.00076336      -0.00603378
H        8.61642040       1.94439648       5.28990968       0.00845524       0.00541529      -0.00258973
H        9.04748882       3.33703641       3.65472177       0.00683326      -0.00101513      -0.00301608
H        7.98436028       4.57039193       4.36019404       0.00017279      -0.00713113      -0.00639746
H        8.80906530       1.26517717       7.71887075       0.01034014       0.00824115       0.01433648
H       10.36964443       1.65774972       6.97537254       0.00803161       0.01766041       0.01551384
H        9.58024088       2.81936968       8.05798999      -0.00769552       0.01591010       0.00283166
H        9.62571191       5.58882567       2.81656920       0.00544488      -0.00277381      -0.00134994
H        9.91326864       6.15928974       4.46543514      -0.01270364       0.00201581       0.00074592
H       10.95969098       4.91864064       3.75487128       0.00218260       0.00753334       0.01352525
O        3.26201587       3.52727783      11.35120663       0.00395083       0.00044042      -0.00484549
C        3.46541673       2.21602064      10.87411123       0.00298852      -0.00053453      -0.00193208
C        4.48666468       4.17118545      11.68373145       0.00397573      -0.00076580      -0.00249195
C        2.11880329       1.54305334      10.74391468       0.00228965       0.00134724      -0.00271715
C        4.15253007       5.47153339      12.37286894       0.00408034      -0.00076658      -0.00251812
H        3.97650344       2.24398552       9.89826139       0.00497031      -0.00360014      -0.00086486
H        4.12213510       1.66858430      11.56466708       0.00052249      -0.00019455       0.00061250
H        5.09442158       3.52711190      12.33423203       0.00208563      -0.00106972      -0.00106525
H        5.05960518       4.36077698      10.76167428       0.00599235      -0.00126882      -0.00121838
H        2.23289688       0.52149791      10.38040709       0.00121873      -0.00016727       0.00161885
H        1.61217693       1.50886263      11.70881495       0.00026734       0.00601641      -0.00371446
H        1.47959409       2.09037127      10.05039050       0.00482707      -0.00032692      -0.00621140
H        5.06633245       6.02677419      12.58625350       0.00440477      -0.00186905      -0.00119820
H        3.50475177       6.08968244      11.74919974       0.00576945       0.00005271      -0.00344841
H        3.63930636       5.27587437      13.31464240       0.00269958      -0.00072746      -0.00326081
O        3.94474206       1.77892064       3.23408208      -0.00011122      -0.00207090       0.00247790
C        3.54154454       3.12786755       3.28904033       0.00180990      -0.00158340       0.00244462
C        5.36499067       1.65329013       3.14443128      -0.00022438      -0.00354236       0.00388424
C        2.03725614       3.18340658       3.36197104       0.00219965       0.00048588       0.00685235
C        5.70030456       0.18694586       3.06592802      -0.00183534      -0.00364012       0.00136190
H        3.97605174       3.60696842       4.17883558       0.00488803      -0.00169608       0.00093591
H        3.91648827       3.66584152       2.40803270       0.00027189      -0.00280204       0.00114995
H        5.73101277       2.17508836       2.24838435       0.00143246      -0.00188687       0.00551820
H        5.81853652       2.10828786       4.03968586      -0.00086790      -0.00599350       0.00538641
H        1.69420036       4.21499471       3.45065522       0.00419092       0.00101541       0.00735679
H        1.58118902       2.75346697       2.47037128      -0.00122679       0.00100219       0.00845894
H        1.68444813       2.62461415       4.22698140       0.00413732       0.00122613       0.00803450
H        6.78139900       0.05232545       3.02856635      -0.00205643      -0.00466353       0.00030248
H        5.30432607      -0.34742195       3.93035901      -0.00178927      -0.00478175       0.00058854
H        5.27866639      -0.24492639       2.15821374      -0.00304957      -0.00182854       0.00110416
O        6.36994382       6.19917670       4.59588767       0.00073007       0.00060749      -0.00319328
C        5.78903364       5.76008852       3.37923314       0.00330457      -0.00043173      -0.00402248
C        5.82128283       5.52640675       5.71414920      -0.00064468       0.00091254      -0.00382739
C        6.46804025       6.43532788       2.21696894       0.00388113       0.00096565      -0.00270611
C        6.59734847       5.91027217       6.94874579      -0.00203663       0.00074370      -0.00300014
H        5.89853519       4.67176440       3.29426830       0.00531938      -0.00018078      -0.00412292
H        4.71058685       5.97992814       3.38655506       0.00287843      -0.00252073      -0.00580576
H        4.75666552       5.78735979       5.81713518      -0.00068146       0.00108871      -0.00503552
H        5.87490529       4.43972435       5.55122646      -0.00066853       0.00094289      -0.00360262
H        6.05065680       6.05733115       1.28421537       0.00851548      -0.00208324      -0.00341249
H        6.33799548       7.51534543       2.25561841      -0.00054874       0.00046369      -0.00437241
H        7.53442543       6.21668193       2.22417144       0.00467376       0.00537290       0.00106926
H        6.18545487       5.40419993       7.82291801      -0.00339388       0.00115345      -0.00346519
H        7.64374469       5.61980849       6.84504536      -0.00214842       0.00005771      -0.00169513
H        6.54735111       6.98607658       7.11470546      -0.00163458       0.00076658      -0.00320684
