142
Lattice="13.087054918377408 0.0 0.0 0.0 13.087054918377408 0.0 0.0 0.0 13.087054918377408" Properties=species:S:1:pos:R:3:forces:R:3 energy=-157743.75 stress="0.00015941300080157816 -0.0005665884527843446 -3.728880619746633e-05 -0.0005665884527843446 0.00014682889741379768 0.00026749832613859326 -3.728880619746633e-05 0.00026749832613859326 4.334295226726681e-05" pbc="T T T"
Y       13.04815102      13.85595325       1.21023942       0.00543061      -0.00688253      -0.00092430
N       11.78876134      13.43129623      12.54109729      -0.00477225      -0.00404274       0.00619733
C       11.20113839      13.42457196      11.52067401      -0.03335333       0.02796064       0.02278417
N        3.03370155      12.70367955      -0.06049794      -0.00466585       0.03861049      -0.01925410
C        2.03593374      13.17213951       0.30370051       0.02661008       0.00355050      -0.02141185
N        0.06134941      12.17829489       2.65450961       0.01040354      -0.00978467      -0.00525934
C        0.60477258      11.44667302       3.39783752       0.02029210      -0.00327146      -0.00602829
O        6.83634849      10.20236889      10.33600740      -0.00088376      -0.00427306      -0.00246902
C        5.87454313       9.18737340      10.52508618      -0.00257498      -0.00195537       0.00190008
C        8.13931642       9.79320489      10.72197268      -0.00146395      -0.00480574      -0.00109429
C        4.51731075       9.72911493      10.14693275      -0.00201690      -0.00043443       0.00210731
C        9.08066893      10.95537487      10.54502490       0.00028491      -0.00655389      -0.00507323
H        6.13302644       8.31080054       9.90738668      -0.00506794      -0.00440621       0.00428700
H        5.88379966       8.85553618      11.57422918      -0.00181760       0.00125302       0.00292915
H        8.12164678       9.46212811      11.77151500      -0.00192051      -0.00103883       0.00007969
H        8.45211602       8.93472602      10.10576237      -0.00280663      -0.00745741       0.00201172
H        3.76326324       8.94416878      10.22437955      -0.00368907       0.00160900       0.00655706
H        4.23242819      10.55166751      10.80303820       0.00109746       0.00280669      -0.00058255
H        4.53055126      10.09336686       9.11894882      -0.00316394      -0.00436702       0.00070743
H       10.08443177      10.69412925      10.87987726      -0.00039671      -0.00739732      -0.00323624
H        9.14481117      11.25832784       9.50018072       0.00098374      -0.01108703      -0.00643271
H        8.74784339      11.81362531      11.12776881       0.00159086      -0.00397678      -0.00832234
O        7.71257237       4.00357472      10.31700963      -0.00189340       0.00054707       0.00420213
C        6.66470022       3.38629155       9.59448519      -0.00048184      -0.00176203       0.00620945
C        8.33470599       5.03812694       9.58254903      -0.00137240      -0.00167605       0.00285716
C        6.10012846       2.25469417      10.41747900       0.00370902       0.00006127       0.00841570
C        9.46036865       5.61150268      10.40917049      -0.00174955      -0.00090504       0.00310209
H        5.88636767       4.13081054       9.36048361      -0.00363758      -0.00584036       0.00269666
H        7.05144374       3.00872966       8.63495178      -0.00370876      -0.00570706       0.00642583
H        8.71695943       4.63942816       8.62978814      -0.00060023      -0.00403038       0.00414503
H        7.59660216       5.81833107       9.33358528      -0.00230056      -0.00315559       0.00094672
H        5.27033944       1.77859134       9.89350401       0.00660211       0.00059720       0.00348552
H        6.86592814       1.50408758      10.60877021       0.00466132       0.00214371       0.01054459
H        5.73233997       2.62211042      11.37551992       0.00288095      -0.00198791       0.00848421
H        9.95691142       6.41841915       9.86763009      -0.00429924      -0.00148904      -0.00010045
H        9.07819774       6.01065206      11.34910068      -0.00294377       0.00250152       0.00148869
H       10.19778161       4.84057291      10.63326926      -0.00040209      -0.00058317       0.00275998
O        8.90493373       9.36610751       6.79700425       0.00021523       0.00317234       0.00103630
C        7.49043537       9.30872960       6.79764170       0.00039202       0.00139040      -0.00011509
C        9.49143525       8.09618253       6.60261853       0.00209934       0.00390579       0.00223165
C        6.94221489      10.70883962       6.91257643      -0.00132021       0.00086665      -0.00397808
C       10.99182759       8.24782965       6.57012997       0.00183123       0.00632855       0.00293363
H        7.14274835       8.82682819       5.87115567       0.00176723      -0.00122976       0.00066042
H        7.14496442       8.68568017       7.63800607       0.00020960       0.00310963       0.00117138
H        9.18299064       7.41466546       7.41318504       0.00263095       0.00400656       0.00250328
H        9.12540958       7.66141370       5.65889229       0.00320621       0.00290707       0.00228834
H        5.85325559      10.68977139       6.85283519      -0.00106758      -0.00184448      -0.00449520
H        7.21940863      11.15231566       7.86717286      -0.00304585       0.00374803      -0.00486174
H        7.32332663      11.32891067       6.10125658      -0.00183951      -0.00043721      -0.00529101
H       11.46911743       7.27895978       6.41795941       0.00368119       0.00704220       0.00370832
H       11.29456946       8.90712499       5.75706605       0.00104703       0.00634426       0.00264651
H       11.35490400       8.67282840       7.50601420       0.00073135       0.00752772       0.00284231
O        1.64963896       8.18331859       4.43040412       0.00172073      -0.00421341       0.00628117
C        2.39460271       9.05942123       5.25912157       0.00029296      -0.00177854       0.00511253
C        2.37480002       7.80321460       3.27943753      -0.00156644       0.00338298       0.00158978
C        1.51336529       9.52360435       6.39068038       0.00026664      -0.00478746       0.00632644
C        1.46784583       6.99237145       2.38581137       0.00021315      -0.00281203       0.00530851
H        3.28678754       8.53890866       5.64168622       0.00262010       0.00127578       0.00375521
H        2.73184138       9.91861851       4.66458910      -0.00380543      -0.00060910       0.00461394
H        2.73084676       8.69919802       2.75121513      -0.01203255       0.00721353       0.00111267
H        3.26047497       7.21443103       3.56508516       0.00490740       0.01035023      -0.00434378
H        2.07524631      10.17639039       7.06037345      -0.00158653      -0.00198505       0.00511526
H        0.66707512      10.08183189       5.99325557      -0.00281596      -0.00860342       0.00739169
H        1.13971674       8.67445366       6.96419814       0.00454560      -0.00594737       0.00742716
H        2.00297428       6.68025727       1.48778792      -0.00247060       0.00500112       0.00094816
H        1.12230996       6.10034562       2.91132823       0.01272511      -0.00785954       0.00487441
H        0.60244890       7.58653792       2.08943870      -0.00750776      -0.01028402       0.01266621
O       12.03239521       2.36947687       2.70382447       0.01099530      -0.01065575      -0.00021547
C       11.86104385       3.67672444       2.10020717       0.01484179      -0.01391083      -0.00884071
C       11.55596318       2.40145966       4.07956491       0.00576839      -0.00487834      -0.00228822
C       12.37844851       3.61896781       0.69194286       0.02401196      -0.02365159      -0.00535637
C       11.54392998       1.03810152       4.70522205       0.00490745      -0.00289303       0.00182293
H       10.79659137       3.92472611       2.13189037       0.01471111      -0.01416627      -0.01825201
H       12.40644834       4.40575475       2.70402546       0.01161884      -0.01038444      -0.01049374
H       12.20515069       3.09285245       4.62457136       0.00324062      -0.00236358      -0.00256360
H       10.54969517       2.82794496       4.04633333       0.00581571      -0.00554867      -0.00773838
H       12.28478212       4.58437348       0.19522727       0.03113578      -0.02979988      -0.01660516
H       13.45721172       3.40367598       0.66423863       0.02437395      -0.02702348       0.00452694
H       11.81667295       2.90658152       0.07588173       0.02858484      -0.02995776      -0.00334657
H       11.12292182       1.13319975       5.70734376       0.00500926      -0.00044062       0.00149350
H       10.92255890       0.34299420       4.14050780       0.00466087      -0.00398307       0.00375208
H       12.54242657       0.61647485       4.79305678       0.00482813      -0.00293684       0.00302784
O        6.47731820       4.67457838       4.84295562       0.00019467       0.00187079      -0.00379914
C        6.50357678       5.33252941       6.09649803      -0.00227326       0.00106075      -0.00331096
C        7.52736940       3.74172527       4.71163462      -0.00190303      -0.00098792      -0.00085741
C        5.30424276       6.24077499       6.19557729      -0.00106269       0.00293356      -0.00618354
C        7.38894215       3.04008915       3.38263619       0.00039139      -0.00020798      -0.00149012
H        6.49309005       4.58654626       6.90357922      -0.00577015       0.00051194      -0.00379950
H        7.43823391       5.90535195       6.19623243      -0.00155297      -0.00050113      -0.00030436
H        8.49722453       4.26290059       4.78737448      -0.00071061      -0.00383979       0.00254820
H        7.48719489       3.01613698       5.53908474      -0.00677781      -0.00117829      -0.00129324
H        5.30920558       6.77099584       7.14939556      -0.00215538       0.00351541      -0.00648190
H        5.31621366       6.97707223       5.39225059       0.00173518       0.00247520      -0.00667259
H        4.38009311       5.66775437       6.11920221      -0.00189522       0.00445178      -0.00786933
H        8.16475158       2.28078014       3.26539502      -0.00155349      -0.00247566       0.00087133
H        6.41455449       2.55545086       3.31638736      -0.00079051       0.00252362      -0.00465498
H        7.47120901       3.75217437       2.56078411       0.00512698      -0.00037187      -0.00119895
O        8.98517671      10.07444958       1.97197301      -0.01016253      -0.00273040       0.00749686
C        9.42490531       8.77872847       2.32687399      -0.00695884      -0.00319684       0.00283021
C       10.06121593      10.97867079       1.79623392      -0.01164122       0.00047922       0.01431876
C        8.21205226       7.94711279       2.66421727      -0.00535464      -0.00931495      -0.00421615
C        9.47944990      12.36365146       1.63836865      -0.01438531      -0.00048381       0.01676686
H        9.99609899       8.32977388       1.49921771      -0.00364566       0.00246626       0.00242993
H       10.10426012       8.84180118       3.18972464      -0.00886405      -0.00526696       0.00540993
H       10.72764610      10.93009885       2.66634716      -0.01375616      -0.00067858       0.01648396
H       10.65740982      10.69902574       0.91457852      -0.00781685       0.00481577       0.01538718
H        8.50316431       6.94401370       2.97912801      -0.00264275      -0.00931576      -0.00606421
H        7.65711944       8.41590032       3.47761244      -0.01045292      -0.01438227      -0.00464956
H        7.54899225       7.86149648       1.80308624      -0.00178452      -0.00915565      -0.00719444
H       10.27071562      13.11685221       1.59476877      -0.01559995       0.00078630       0.02007388
H        8.90622487      12.45024150       0.71574646      -0.01363596       0.00080942       0.01645613
H        8.82817017      12.59340625       2.48247823      -0.01621707      -0.00423417       0.01629311
O        1.19263245       4.53809876      11.26239754       0.00486723       0.00351394      -0.00459011
C        1.91066625       5.75403713      11.14901937       0.00179598       0.00568402      -0.00150931
C        1.93872328       3.42708418      10.78034815       0.00722197       0.00685799      -0.00902543
C        0.99910515       6.89309383      11.53333415      -0.00149095       0.00270808      -0.00048442
C        1.08603667       2.19422889      10.90749207       0.00901800       0.00436160      -0.01894566
H        2.79900881       5.72241266      11.79789830       0.00147200       0.00700577      -0.00093472
H        2.26834993       5.87493981      10.11609213       0.00231267       0.00856010      -0.00102687
H        2.21761112       3.60152300       9.73167585       0.00931765       0.01369140      -0.00735551
H        2.86947773       3.32371956      11.35796907       0.00619170       0.00478168      -0.00770602
H        1.53626217       7.84119455      11.49365753      -0.00461978       0.00448948      -0.00143643
H        0.14634418       6.94662029      10.85594121      -0.00226535      -0.00024986       0.00027266
H        0.62489441       6.76060945      12.54845817      -0.00012903       0.00206838      -0.00005679
H        1.61310145       1.30814688      10.55654701       0.01173733       0.00905220      -0.02678562
H        0.84500737       2.01661288      11.95768696       0.00931487      -0.00607265      -0.02124635
H        0.14821051       2.29859161      10.36312952       0.00927365       0.00738442      -0.01887669
O        3.65458800       2.67419751       2.88314683      -0.00658296       0.00937858       0.00113013
C        3.97419103       2.71692333       1.50010780      -0.00219496       0.01222104       0.00202066
C        3.23371858       1.39318309       3.29926857      -0.01434290       0.01089519      -0.00382543
C        4.38490157       4.12324347       1.14584102       0.00126281       0.01235312       0.00692026
C        3.09256116       1.38360689       4.80019561      -0.00984372       0.00472885      -0.00350410
H        4.77093850       1.99227364       1.27971979      -0.00287443       0.01122868       0.00294345
H        3.10669102       2.39944800       0.90226593      -0.00078017       0.01527418      -0.00144286
H        2.26290850       1.13857990       2.81777581      -0.01857737       0.02045526      -0.00168586
H        3.93831484       0.62439944       2.95396625      -0.02150401       0.00705412      -0.00968212
H        4.68608078       4.17373931       0.09840205       0.00721015       0.01373548       0.00876147
H        3.55388010       4.81212653       1.30297537       0.00110085       0.01295224       0.00320010
H        5.21861772       4.44956396       1.76631934      -0.00213067       0.01038548       0.01247126
H        2.77909084       0.39716096       5.14318715      -0.01680769       0.00582309      -0.00723648
H        4.04614332       1.63408661       5.26639178      -0.00623327      -0.00480141      -0.00591314
H        2.35548658       2.12048221       5.12295044      -0.00291584       0.00874381       0.00270432
