148
Lattice="12.406337004409712 0.0 0.0 0.0 12.406337004409712 0.0 0.0 0.0 12.406337004409712" Properties=species:S:1:pos:R:3:forces:R:3 energy=-172727.484375 stress="-0.0010231307242065668 -0.0007626804581377655 -0.0006079004961065948 -0.0007626804581377655 0.0003496426506899297 -0.00014339549670694396 -0.0006079004961065948 -0.00014339549670694396 0.00015243924281094223" pbc="T T T"
Y       13.28424314      11.93328035       2.26403238       0.01058152       0.01263868      -0.00322101
O        3.81193933      10.88331452       5.49043431      -0.02428330      -0.01673818       0.02459046
O        2.22316401      11.21893697       4.00204859       0.00411034       0.00321084       0.01437730
O        3.14800660      12.94834086       5.10366787       0.02986538      -0.00181538      -0.00167120
C        3.01697422      11.68143936       4.82222637       0.00566798      -0.00145017       0.01357338
H        4.43279143      11.41058462       6.01515335      -0.02661234      -0.03720629       0.01876909
O        1.21377187      12.11382999       0.29195942       0.02495894       0.02391205      -0.00364797
O        5.11615056      12.27510599       0.26748925      -0.03331307      -0.01647079      -0.00760594
O        3.76965288      10.83613215      -0.95382733      -0.00404233      -0.00633290      -0.03892574
C        4.53953378      11.55189405      -0.45130120      -0.02011830      -0.00904162      -0.01771683
H        1.60403767      11.80048129      -0.52315402       0.01295964       0.02840651      -0.01141591
O        7.18156063       9.86596224      10.04170337       0.00667448      -0.00046170      -0.01596513
O        8.07415400      11.77862701       9.32683448      -0.00249505      -0.00886643      -0.04473138
O        6.00198761      11.79423406      10.21463132       0.01735163       0.00147605       0.00536406
C        7.07993614      11.27435654       9.84229102       0.00238321      -0.00386375      -0.02975270
H        6.31461923       9.57802187      10.34978236       0.01259842      -0.00019543       0.00062416
O       11.55166866       7.59189932       0.08087090       0.00537390      -0.00029016       0.00911015
C       10.37252679       7.73315285       0.89192733       0.00234713      -0.00059289       0.00532955
C        9.62365086       6.42283146       0.99974971       0.00533155      -0.00199604       0.00710166
C       10.75287494       8.27179235       2.26332071      -0.00011374       0.00430335       0.00373769
H        9.75414975       8.46672275       0.36711691       0.00038096      -0.00318521       0.00370866
H        8.67080005       6.56485777       1.51367780       0.00542551      -0.00316367       0.00771894
H        9.42791447       5.99669901       0.01820022       0.00448470      -0.00336807       0.00757584
H       10.20908500       5.69562241       1.57249661       0.00752658      -0.00013226       0.00714945
H        9.88863424       8.32611757       2.92558735      -0.00244965       0.00970777       0.00010362
H       11.17212373       9.27855942       2.17432987       0.00294117       0.00263402       0.00090068
H       11.50011015       7.62317013       2.72244291      -0.00356004       0.00419071       0.00887528
H       11.82653505       6.67213667       0.13705280      -0.01903407      -0.00954911      -0.02547308
O       11.96713673       0.93079100       2.92505786      -0.01305205      -0.02145308       0.00814202
C       11.16752865       2.01393648       3.37284734      -0.00899911      -0.01896733       0.00577947
C       11.86561102       3.35227501       3.14792741       0.00532222      -0.02618015       0.01173399
C        9.82600119       2.00041451       2.66181983      -0.00440741      -0.00779360      -0.00266775
H       11.01005209       1.89620356       4.45224384      -0.01619070      -0.02154345       0.00434279
H       11.24363392       4.16286144       3.53458313       0.00789268      -0.01905079      -0.00064171
H       12.81934982       3.42593217       3.67964763      -0.00241776      -0.03308519       0.02701525
H       12.01816988       3.52937540       2.07877603       0.02220664      -0.03238470       0.01316813
H        9.19536555       2.81808707       3.01866254       0.00305368      -0.00029887      -0.00804277
H        9.31274064       1.05863920       2.84149974      -0.01623632      -0.00133511      -0.00319736
H        9.97579419       2.11230354       1.58506534       0.00258759      -0.01222188      -0.00210209
H       13.85409915       2.00614187       2.78789585       0.02145576       0.03483224       0.01902966
O        5.65627173       2.32874394       6.09310502      -0.00425059       0.00594945       0.01226532
C        7.00470967       2.10519362       5.62431838      -0.00546107      -0.00422117       0.01463814
C        7.92728973       3.22265210       6.07590211       0.00075728      -0.00909853       0.01400369
C        7.50576975       0.74363976       6.06407544      -0.01596327      -0.00719035       0.01685202
H        6.91358802       2.13450606       4.53375556      -0.00369712      -0.00438565       0.01450294
H        8.93409695       3.06649763       5.68292644      -0.00034291      -0.01409871       0.01320024
H        7.56805100       4.19559547       5.74307503       0.00524117      -0.00762774       0.01332724
H        7.98867732       3.23447326       7.16801674       0.00100214      -0.00846583       0.01394874
H        8.52344899       0.58696072       5.70127744      -0.01664747      -0.01538966       0.01866882
H        6.88386057      -0.05801528       5.66092852      -0.02126838      -0.00261088       0.01613291
H        7.53459693       0.65300295       7.15441868      -0.01753171      -0.00745531       0.01696059
H        5.66233057       2.20446147       7.05087031      -0.00862563       0.00667848       0.01233682
O        6.60617110      10.51032405       2.03552088      -0.01472670       0.01283252       0.00320549
C        8.03446344      10.44687211       2.02700235      -0.01557094       0.00265419       0.00112757
C        8.61998031      11.33292699       0.94064817      -0.01336043      -0.00662273      -0.00477511
C        8.53664338      10.79894862       3.41832332      -0.01278256       0.00588793      -0.00094426
H        8.29227955       9.40525396       1.80944312      -0.02082451      -0.00011456       0.00605356
H        9.71282884      11.34383421       0.98458506      -0.01330191      -0.01553993      -0.00999628
H        8.32779929      10.99667188      -0.05478616      -0.02140036      -0.01086007      -0.00111318
H        8.28168362      12.36429606       1.06730184      -0.00644518      -0.00389245      -0.00888266
H        9.62646457      10.74991776       3.48201348      -0.01306280       0.00179117      -0.00276884
H        8.11472634      10.12277333       4.16387532      -0.01391470       0.01001249       0.00232372
H        8.22490870      11.81080460       3.67404553      -0.00895569       0.00787944      -0.00403199
H        6.33533819      11.23600445       1.46441306      -0.01378044      -0.01380908      -0.03090132
O        4.44636060       4.04832902       9.25722255      -0.00737410      -0.00649915      -0.03567952
C        3.53655653       3.83067566      10.34217065       0.00888997      -0.00265306      -0.02144926
C        2.37431282       4.80520246      10.24811678       0.01234221       0.00347313       0.00004573
C        3.09316305       2.37732747      10.38769993       0.00187425      -0.00017941      -0.01595214
H        4.12268633       4.05499064      11.23880354       0.02490914      -0.00712561      -0.03098333
H        1.64120532       4.63083496      11.03833658       0.02584428       0.00516668       0.01284194
H        2.72614489       5.83581606      10.30623375       0.01796946       0.00173950      -0.00378742
H        1.85751667       4.67823428       9.29284441      -0.00514084       0.00785895       0.00901079
H        2.40921515       2.19578335      11.22095990       0.01573541       0.00224191      -0.00416853
H        3.95954795       1.72014850      10.48216250      -0.00003764      -0.00477330      -0.03121020
H        2.56346862       2.11661829       9.46786788      -0.01568593       0.00428598      -0.00702719
H        3.92572287       4.09754495       8.44797763      -0.01969299       0.00153565      -0.02739850
O        2.23286875       1.42978712       2.76665037       0.00744411       0.01786977       0.00380609
C        3.30190104       2.07778450       1.94684392       0.00917104       0.00908310      -0.00616455
C        2.91774820       3.52461818       1.79477056       0.01817850       0.01083797      -0.01183229
C        4.61083819       1.87205685       2.66360898       0.01179603       0.00387544      -0.01344997
H        3.28896574       1.55033440       0.99326833      -0.00217021       0.00347577      -0.00249964
H        3.67520407       4.06488547       1.22809196       0.01943472       0.00117439      -0.01950712
H        1.96629043       3.62754046       1.26842972       0.01622151       0.01580578      -0.00711492
H        2.84277923       3.98162904       2.78246908       0.02718360       0.01685847      -0.01408428
H        5.40947715       2.31616190       2.06892685       0.01073919      -0.00842061      -0.02380671
H        4.84682963       0.81374368       2.78083208       0.00496546       0.00346795      -0.00549988
H        4.59479736       2.35698505       3.63980141       0.02256023       0.01415116      -0.01846980
H        2.69725236       1.07403030       4.39964366       0.03444809       0.00399536      -0.00138891
O        3.71029469       4.42018743       5.20811782       0.01880918      -0.01674348       0.00927137
C        4.46449797       5.64453945       5.16275763       0.00149751      -0.00645912       0.00497495
C        5.07553308       5.94737095       6.51932511       0.00153640       0.00439088       0.00223607
C        5.49815942       5.58593237       4.04587325      -0.00045818       0.00712796       0.00252384
H        3.72926315       6.41895665       4.92683675      -0.00941467      -0.01587597       0.00561243
H        5.67686572       6.85787264       6.50388263      -0.00736998       0.00996888      -0.00119389
H        4.29633511       6.07515039       7.27162292       0.00246368      -0.00162052       0.00387003
H        5.71736881       5.12220500       6.83749041       0.01034795       0.01240994       0.00427828
H        6.13879996       6.46961353       4.05787713      -0.01767953       0.01954830      -0.00404798
H        5.01958312       5.52717802       3.06760222      -0.00149345      -0.00700941       0.00395729
H        6.13098933       4.70363803       4.17007039       0.01794883       0.02069381       0.00457294
H        4.32976270       3.73279242       5.50363867       0.02771047      -0.00935935       0.00996744
O       11.19766238       2.82120580       7.12156700       0.00945097      -0.00173122       0.00171813
C       11.58187619       1.85520835       8.12072301       0.00887498      -0.00279209       0.00067276
C       11.81100978       2.53567772       9.45778918       0.00275348      -0.00511235       0.00295025
C       10.55630230       0.74771437       8.22676575       0.01156563      -0.00579017      -0.00505248
H       12.52858500       1.45659517       7.74241296       0.01100028       0.00065316       0.00263016
H       12.22936290       1.83520294      10.18296207       0.00217100      -0.00559072       0.00284564
H       12.49316826       3.37638566       9.34775298       0.00122830      -0.00322713       0.00728729
H       10.86975583       2.90298750       9.87343419       0.00051184      -0.00809454       0.00050024
H       10.84370730       0.00582417       8.97196833       0.01275681      -0.00728203      -0.00698461
H       10.41598968       0.23782871       7.27416735       0.01490108      -0.00346539      -0.00681463
H        9.58927019       1.13583028       8.54968545       0.00964826      -0.00960154      -0.00612623
H       10.38773716       3.23419767       7.43846964       0.00392772      -0.00893182      -0.00293724
O        9.14341195       3.71290683      11.53635681      -0.00009589      -0.00223424      -0.00569117
C        8.15710081       3.81825686      10.49327595      -0.00627756      -0.00367105       0.00002885
C        7.29656417       2.57272461      10.43641562      -0.00518459      -0.00471389       0.00451386
C        7.34217470       5.09199496      10.64978058      -0.00778624      -0.00513995       0.00461589
H        8.75460980       3.89413475       9.57785456      -0.01178938      -0.00254397      -0.00339705
H        6.57108660       2.64573792       9.62637516      -0.01244274      -0.00344048       0.01109011
H        7.88170421       1.66431282      10.29536986      -0.00517888      -0.00341249      -0.00368794
H        6.71712925       2.46704234      11.36001847       0.00396485      -0.00856404       0.00986549
H        6.60454961       5.17871575       9.85162572      -0.01114607      -0.00609132       0.00741856
H        7.98153950       5.97422015      10.63553039      -0.00920221      -0.00425749       0.00178192
H        6.79950791       5.07535385      11.59994047      -0.00282702      -0.00631940       0.00741154
H        8.66966327       3.48372488      12.34260234       0.00644378      -0.01157988      -0.00453645
O        7.49563283       8.45971819       7.55109989      -0.01287282       0.00527996      -0.01408839
C        8.60082817       7.81757675       6.94113293      -0.00325853       0.00965631      -0.00107145
C        9.82062657       8.72263827       6.85285507      -0.00846618       0.01758575       0.00776102
C        8.94046389       6.49264141       7.61917461      -0.00199206       0.01475298       0.00824100
H        8.25575602       7.59312492       5.92361871       0.00813371       0.00323096      -0.00341702
H       10.61327594       8.23888837       6.27613616       0.00125028       0.02039655       0.01882859
H        9.56389547       9.66961372       6.37947104      -0.00985742       0.01349841       0.00053389
H       10.20820291       8.93778613       7.85072455      -0.02152334       0.02534104       0.01102310
H        9.66512095       5.93148000       7.02231423       0.00635118       0.01565391       0.01762593
H        8.04121254       5.88856590       7.73786558       0.00027224       0.01048407       0.00348892
H        9.37481114       6.66270529       8.60666124      -0.01158954       0.02236393       0.01112582
H        7.74675105       8.91199774       8.37440811      -0.02198932       0.00758822      -0.01234001
O        3.59995050       7.72272702       1.16775094      -0.00279242       0.00068301      -0.00135887
C        2.66533371       8.04186928       2.19576698       0.00071460       0.00838855      -0.00042177
C        1.74658949       9.17088960       1.73224702       0.00259754       0.00949657      -0.00244328
C        1.88469305       6.81454739       2.63122454      -0.00290459       0.01369357       0.00795421
H        3.28197027       8.39591712       3.02619318       0.00439006       0.01048875      -0.00439876
H        1.06695593       9.42437392       2.56340043       0.00438542       0.01264833      -0.00184326
H        2.36239193      10.02158185       1.42263121       0.00389646       0.00792699      -0.00457590
H        1.12734131       8.85606510       0.88730222       0.00108628       0.00830899      -0.00085154
H        1.20642902       7.04112751       3.45592028       0.00167669       0.02139721       0.00964656
H        2.56763831       6.03646088       2.96234904      -0.00526993       0.01204300       0.00912458
H        1.29125401       6.42633806       1.79803618      -0.00874194       0.01359328       0.01236935
H        3.10358319       7.54769204       0.36128516      -0.00551096      -0.00446652       0.00155372
