150
Lattice="17.06943806446798 0.0 0.0 0.0 17.06943806446798 0.0 0.0 0.0 17.06943806446798" Properties=species:S:1:pos:R:3:forces:R:3 energy=-1455885.625 stress="-0.0007853233255445957 -2.0942537958035246e-05 9.277131175622344e-05 -2.0942537958035246e-05 -0.0009325806749984622 0.0003142524801660329 9.277131175622344e-05 0.0003142524801660329 -0.0017864854307845235" pbc="T T T"
Y       16.43679921      16.76935377      -0.00419931       0.00570846      -0.00269255      -0.00232147
S        9.83751689      10.23741272      10.60978221      -0.00885761      -0.00130129       0.00214481
F       10.79430301      12.58535867       9.83929811      -0.01701364      -0.00044441      -0.00360370
F       12.30094011      11.19957039      10.54118466      -0.01160276       0.00639915      -0.00117424
F       11.00577463      12.19869888      11.96312994      -0.01355415       0.00431955      -0.00347602
O       10.24993309       9.33698885      11.67328524      -0.00769162       0.00423265       0.00629997
O       10.07004746       9.73980078       9.26290364      -0.00506395      -0.00720704       0.00529313
O        8.56387469      10.89533544      10.81846904      -0.01022935      -0.00421917      -0.00347444
C       11.04756350      11.62667294      10.74046228      -0.01280332       0.00258732      -0.00223660
S        8.47968499      16.85995448      14.68777753       0.00453180       0.00275254      -0.00108480
F        8.21615644      14.23126119      14.80488528      -0.00183359       0.00447261      -0.00584543
F        6.55185642      15.32324563      15.66358269       0.00248539       0.00565480      -0.00176744
F        8.43631942      15.19839031      16.73584274       0.00390172      -0.00057378      -0.00462031
O        8.11889883      17.89295245      15.63834746       0.00786203       0.00166082       0.00080132
O        7.75849183      16.87220466      13.43451046       0.00380957       0.00689632       0.00008893
O        9.91025626      16.61019178      14.56923140       0.00356579      -0.00035632      -0.00187317
C        7.88143492      15.32263299      15.51080907       0.00209951       0.00324059      -0.00321484
S       11.23616128      15.80166178       6.32481297       0.01531428      -0.00120139       0.02009918
F        9.02253703      15.35144135       7.54888310       0.00257824       0.00953957       0.00300553
F       10.22230746      13.56922779       7.26134887      -0.00604083       0.00562903      -0.00387752
F        9.10745919      14.40556089       5.60091179      -0.00596163       0.01361816       0.00028652
O       11.88882139      14.73011657       5.25121526      -0.00192511       0.00180319       0.00019473
O       12.03862833      15.87302355       7.49385259      -0.00982282      -0.00069748      -0.01584005
O       10.77275178      16.96357632       5.64625590       0.00350845       0.00871551      -0.00407434
C        9.78971974      14.67750963       6.70222333      -0.00143003       0.00856167      -0.00025508
Cl       4.98333619       8.08016728      12.94863074      -0.00688297      -0.01394755      -0.01427735
Cl       7.07181557       6.54356136      14.23629472      -0.00422066      -0.00425712      -0.00992090
Cl       5.55429167       5.33534504      12.12782811      -0.00406284      -0.01588908      -0.00377131
Cl       4.25141850       5.87873035      14.63938031      -0.00156024      -0.00720425      -0.00454572
C        5.48370469       6.46643794      13.47590937      -0.00404430      -0.01104500      -0.00832035
Cl      14.04813678      17.78211387      10.24408251      -0.01120837      -0.00152934      -0.01528350
Cl      12.23494374      15.60552351      10.86217728      -0.00283939      -0.00388972      -0.00289921
Cl      14.80913212      15.77972131      12.19465111      -0.00595379       0.01503666      -0.00112736
Cl      14.67587107      15.08518714       9.38309342       0.00061586      -0.00407881       0.00456226
C       13.94423482      16.06361573      10.67231287      -0.00495829       0.00165901      -0.00367071
Cl       9.70117104       8.67483837       5.34123468      -0.00624022       0.00344318      -0.00492750
Cl      10.88819214      11.27759703       4.88303807      -0.00393397       0.00256699       0.00091624
Cl       8.13159344      11.06591069       5.76313683      -0.00406933       0.00368521      -0.00196627
Cl       8.87900610      10.27916624       3.07177372      -0.00293601       0.00761113      -0.00210625
C        9.39835870      10.32335480       4.76966174      -0.00427853       0.00446468      -0.00215743
Cl       3.80537956       2.75289855       2.76618949       0.00185161      -0.01232314       0.01280606
Cl       2.52473472       4.92373377       4.20136341      -0.00127548      -0.00208586      -0.00711199
Cl       5.43047575       4.73540240       4.14168258      -0.00162226      -0.00107232      -0.00162652
Cl       3.89055640       2.83035219       5.65750292      -0.00271347       0.01137003       0.01152128
C        3.91757688       3.81318616       4.19635404      -0.00082334      -0.00107666       0.00383616
Cl       3.64698063      15.57149124       9.16043100       0.02599524       0.00448793       0.00595248
Cl       2.87468161      16.83722393       6.67417886       0.00323725       0.00753549       0.01611641
Cl       5.45484387      15.51278470       6.89200321       0.00289696       0.00524297      -0.01118818
Cl       4.97289239      17.99855789       8.29457727       0.01866049       0.00348961      -0.00181177
C        4.22957621      16.47405447       7.75522731       0.01296609       0.00516474       0.00194546
Cl      15.46243548       8.79895268       7.55801433      -0.00260922      -0.00141394       0.00741228
Cl      14.74530733      11.47397464       8.43891711      -0.00556378      -0.00211024       0.00508961
Cl      12.66691239       9.55042354       7.89051738      -0.00284672      -0.00477251       0.00781998
Cl      14.22268962      10.65433936       5.71146358      -0.00477064      -0.00511017       0.00668627
C       14.24927908      10.11553632       7.40956252      -0.00402611      -0.00345972       0.00686001
Cl      15.72410990      10.06629016      14.39699697      -0.00005066       0.01246132       0.00283903
Cl      14.69229055      12.06726973      12.58374515       0.00021707       0.00775492      -0.00192411
Cl      13.09731628       9.72203386      13.20989299       0.00861001       0.00084037      -0.01133722
Cl      15.45532264       9.46251820      11.56647835       0.01881218       0.01253217       0.00218719
C       14.72180539      10.32502209      12.92912139       0.00718030       0.00835098      -0.00205047
Cl      11.55455692       4.81342203       5.84948488       0.02722809       0.02969576       0.01770848
Cl       8.68138743       5.14677680       5.88158345       0.02442998       0.00058759      -0.01799658
Cl      10.30770824       6.36340046       7.95489638      -0.01403514       0.00762749       0.00603998
Cl       9.95902717       3.48610686       7.88028848       0.01499993       0.00539482      -0.00954705
C       10.11580800       4.96080547       6.90994257       0.01286196       0.01075140      -0.00078212
Cl       1.82429199      12.71223793      10.41031850       0.01434207       0.00884879       0.01041294
Cl       4.44009029      11.47032821      10.16448887       0.00354618      -0.01274001       0.02580640
Cl       2.06740799      10.08274280       9.23786880      -0.00295264       0.00344667       0.02166900
Cl       2.51738780      10.44352690      12.07605963      -0.01194161       0.01064581       0.02213937
C        2.71929225      11.17969065      10.46857905       0.00108784       0.00249339       0.02036408
Cl       7.81358620       1.68714355       4.60633664      -0.00481699      -0.01579033      -0.00597054
Cl       9.90398303       1.71939854       2.59548773       0.00043964       0.01992670       0.00226656
Cl       7.13594474       1.53486687       1.78810014       0.00486898       0.00310282      -0.00849110
Cl       8.40022572      -0.71561513       3.09366234       0.02114001       0.00357670      -0.02463991
C        8.29509627       1.05490109       3.02161917       0.00521007       0.00251397      -0.00957141
Cl      13.29428973      13.25337683      16.29142723      -0.01557317       0.00265574       0.00750333
Cl      12.12127601      15.85179663      16.48600688       0.00643222       0.01261401      -0.01023379
Cl      11.92924796      14.37522302      14.05570811       0.00272739       0.00265322      -0.00261855
Cl      16.33222428      15.33070943      15.03805181       0.00395998       0.00149921      -0.00423610
C       12.43224720      14.50341276      15.60412063      -0.00198574       0.00610916      -0.00199190
Cl      15.15429916       8.00551799       3.14520105       0.00888776       0.00187814       0.00713469
Cl      16.11501593       8.98467146       0.59196737      -0.00165752       0.00438122       0.00483941
Cl      16.63108802      10.50035945       3.00176466      -0.00845307       0.01055911       0.00120798
Cl      13.94168674      10.35210866       1.95076413      -0.00872713      -0.00937732       0.00530377
C       15.46998121       9.46624651       2.18126853      -0.00274845       0.00205311       0.00469694
Cl      16.07928036       1.74204581       3.38045244      -0.01169938      -0.00419390      -0.00251586
Cl      14.51672822       1.32992655       0.07295792       0.00600260      -0.00238082      -0.00384034
Cl      14.67711742       4.07705989       2.48531004      -0.00900174      -0.00665224      -0.01149988
Cl      13.43474541       2.27900819       4.32363840      -0.01166385       0.00014094      -0.00809437
C       14.74740956       2.71476229       3.42618496      -0.01031565      -0.00291073      -0.00685929
Cl      14.15302176       6.27489537      14.96004625       0.00010905      -0.00145821      -0.01673588
Cl      11.33679449       6.71963340      14.50616714       0.00073516       0.00599243      -0.01183659
Cl      12.66557109       8.02235045      16.73498211       0.00422718      -0.00981158      -0.00611943
Cl      12.19264842       5.16694535      16.80064235       0.00012097      -0.00899303      -0.02266073
C       12.56981177       6.55384152      15.74388806       0.00159431      -0.00377349      -0.01435670
Cl      13.39797396      13.50955294       3.64611422      -0.00125921      -0.00225013       0.00399812
Cl      14.32168830      15.72421885       5.28047124      -0.00182369       0.00151254      -0.00134514
Cl      12.42911657      16.18008475       3.12284287      -0.00074597      -0.00413117      -0.00331700
Cl      16.13288180      15.43169941       2.06293860       0.00315428      -0.00090885      -0.00152433
C       12.94354756      15.04524240       4.39308715      -0.00106916      -0.00080365       0.00000516
Cl       3.24918070       7.86092081       6.24996646      -0.00529397       0.00118726       0.00016963
Cl       5.46818166       8.65952197       4.56784012      -0.00420147       0.00241381       0.00321931
Cl       4.43120188      10.48983802       6.53148224      -0.00089718      -0.00278670       0.00965780
Cl       2.86129979       9.83000902       4.17648055      -0.00098458       0.00883110       0.00708571
C        4.00313204       9.21505545       5.38694749      -0.00283030       0.00246383       0.00483913
Cl       9.60192099       5.29551106      11.79283152      -0.00884481      -0.00731540      -0.01130304
Cl       8.78889770       2.54954415      11.35457585       0.00666827      -0.01011163      -0.01388669
Cl       9.39789910       3.43779395      14.02807107      -0.00585717      -0.00761407      -0.01275563
Cl      11.53003484       3.15224366      12.09066763       0.00085115       0.00349665      -0.00591341
C        9.82940480       3.61296247      12.32734862      -0.00185549      -0.00554579      -0.01083833
Cl       5.51134396      11.37384388       2.30276686      -0.00024796       0.00716990      -0.00312200
Cl       3.18410204      13.09169630       2.10592453      -0.00267643       0.00293584      -0.00393611
Cl       4.69872049      12.41706895      -0.27756171      -0.00056756       0.00540972      -0.00242174
Cl       5.84025197      14.18750733       1.71498922      -0.00497347       0.00721252      -0.00243298
C        4.80770597      12.77080056       1.45958112      -0.00217954       0.00571827      -0.00289820
Cl       2.52076585       4.22212785      16.97389211      -0.00042772       0.00221510       0.01290706
Cl       0.14089936       5.78777089      16.81583664      -0.00092810       0.00005424       0.00666574
Cl       1.39460623       1.12095995      17.44429774       0.00591129      -0.00404999      -0.00366321
Cl       0.54496247       3.62848195      14.98378471       0.00832915       0.00343835       0.00534487
C        1.08093450       4.53764413      16.24959624       0.00196484       0.00184134       0.00861523
Cl       6.82784628       5.38785377       9.01953112      -0.01919435      -0.01996839      -0.02352688
Cl       7.40940087       7.88646709      10.37788255       0.01910967      -0.04361516      -0.00051373
Cl       4.72494980       7.35275745       9.42017591       0.01038629       0.00403294       0.00082514
Cl       6.86723346       7.88079685       7.55481692       0.01325612      -0.00681660       0.00173020
C        6.46819225       7.13375822       9.10886035       0.00594908      -0.01675975      -0.00594202
Cl       2.31909059       1.22255820      11.89695497      -0.00447363      -0.01825294       0.02648556
Cl       3.91473333       2.55786002      13.91557678       0.00635807      -0.01717645       0.01676881
Cl       5.21841183       1.05122884      11.83682813      -0.00677294      -0.00677570       0.00146466
Cl       3.73871418      -0.33489919      13.89617437       0.01782131      -0.01686037       0.01114643
C        3.81137791       1.10382701      12.88307135       0.00324631      -0.01473574       0.01456877
Cl       0.42720993      13.86933414       4.48718063      -0.00048682       0.00526385       0.00798494
Cl       2.75508179      13.43035086       6.14226886      -0.00038779       0.00418912       0.00614347
Cl       0.53649087      11.59317299       6.28319790      -0.00182471       0.00660670       0.00878488
Cl       0.25409710      14.27287324       7.34648445       0.00184292       0.00673217       0.00735989
C        0.99559232      13.28715198       6.05838331      -0.00027974       0.00571319       0.00766787
Cl       9.10801670       9.00827996      16.46603689       0.00124712       0.00228006       0.01189673
Cl      10.55002766      11.06597739      15.05622522      -0.00251997      -0.01242930      -0.01191318
Cl       8.48177598      11.78786063      16.95935387       0.01028270       0.00644970      -0.00650209
Cl       7.78227511      10.57728114      14.41436323      -0.00648695      -0.01124659       0.00784159
C        8.96414374      10.61772877      15.71851273       0.00123492      -0.00374720       0.00027558
Cl       4.17022769       6.99653323       1.85627547      -0.00230527       0.00335737      -0.00230527
Cl       6.07078062       5.38775423       0.38693857      -0.00360154      -0.00013936       0.00024886
Cl       7.06584966       7.40499363       2.15772772      -0.00382897       0.00042454      -0.00055999
Cl       5.68386531       8.23807382      -0.22933106       0.00027184      -0.00205633      -0.00333107
C        5.74076416       7.01284234       1.03602937      -0.00236520       0.00038949      -0.00154147
Cl       1.93656659       4.92712774      11.63823874      -0.01217699      -0.01890123       0.00807220
Cl      -0.94452140       5.17251995      11.89382160      -0.01013511       0.00498682       0.00083417
Cl       0.53246587       7.00709655      10.20514903       0.00890441      -0.00890180       0.00415444
Cl       0.79711183       7.15452165      13.08786652       0.00229204      -0.00915778       0.00387406
C        0.58642347       6.06591237      11.69791177      -0.00304482      -0.00815579       0.00436035
