142
Lattice="12.955529708443619 0.0 0.0 0.0 12.955529708443619 0.0 0.0 0.0 12.955529708443619" Properties=species:S:1:pos:R:3:forces:R:3 energy=-208589.765625 stress="-0.00038659560959786177 0.0002476094232406467 0.0006779544055461884 0.0002476094232406467 -0.0004783915646839887 -0.0002737844188231975 0.0006779544055461884 -0.0002737844188231975 9.912899258779362e-05" pbc="T T T"
Y       14.32216881      11.73497248       0.53925686       0.01963916       0.01874441      -0.00466773
P        6.96225572       9.63293024       3.34476308       0.00285106      -0.00148117      -0.00816671
F        6.62696456      10.74076408       2.18634993       0.00454231       0.00466716      -0.00328290
F        6.61048163      10.71481308       4.47128204       0.00153184      -0.00657159      -0.00242835
F        5.39272213       9.15774634       3.32365346       0.00016510       0.00067097      -0.00967219
F        7.27108976       8.51628792       4.47512301       0.00010295      -0.00811660      -0.01499587
F        8.50621570      10.09854447       3.35420771       0.00159073      -0.00380480      -0.00425598
F        7.28018957       8.54826253       2.18513385      -0.00138678       0.00439036      -0.01415539
P        1.34097241      10.39625579       4.22882926      -0.02345828       0.03409257      -0.00576335
F        0.36486484      11.36850752       4.85794480       0.01572263       0.02714664      -0.02324492
F        1.31025558       9.37846689       5.38948423      -0.00856104       0.02484679      -0.01389009
F        0.78782281       9.38009377       3.21519574      -0.00633478       0.02580857      -0.00900501
F        1.31106429      11.51312241       2.83746345       0.00823703       0.02390313      -0.01187906
F        2.83928438      10.59089630       4.21389638       0.00787783       0.02055892      -0.00499020
F       -0.19624244      12.94026706       0.64578606       0.02225596       0.01648507       0.04089911
P        3.56835464      12.51913558       7.12357342      -0.02097227       0.00551809       0.01062596
F        4.67976927      13.62440616       7.45565327      -0.01981640       0.00097871       0.02106661
F        2.52177020      13.23760595       8.13690035      -0.03126067       0.01362967      -0.00787669
F        2.99362488      13.41330302       5.89644573       0.00407171       0.00144297      -0.00388545
F        4.56446523      11.76563481       6.12269653      -0.01150918      -0.00608099       0.02656245
F        4.06640763      11.57698478       8.34815683      -0.03915083       0.00800872       0.02003348
F        2.39831977      11.39564341       6.77249974      -0.02208650       0.00991970       0.00148575
C        7.38235923       3.98265570       4.89225940      -0.00386228      -0.00854599      -0.00236630
C        5.99223329       3.52175433       4.47554478      -0.00462312      -0.00615904      -0.00395513
C        8.47383289       3.47993980       3.95456153      -0.00329567      -0.01035318      -0.00038531
C        4.87758412       4.00088921       5.39716510      -0.00400252      -0.00187501      -0.00499004
C        9.86818792       3.90899779       4.38315976      -0.00328070      -0.01212537       0.00140245
C        3.50894170       3.53648466       4.91886332      -0.00511342       0.00386149      -0.00672734
H        7.41121173       5.07789799       4.92890299      -0.00294619      -0.00840461      -0.00376498
H        7.59124457       3.63321852       5.91052530      -0.00354691      -0.00529385      -0.00138131
H        5.96869689       2.42709033       4.42455097      -0.01007333      -0.00640699      -0.01017304
H        5.79163434       3.87976873       3.45869545      -0.00206865      -0.00308971      -0.00329834
H        8.42071394       2.38890679       3.89374459      -0.00525303      -0.01019147      -0.00015969
H        8.27132673       3.85336133       2.94548206      -0.00177565      -0.01119286      -0.00083104
H        5.05724129       3.61695480       6.40638687      -0.00840719      -0.00142224      -0.00414717
H        4.91012973       5.09360686       5.46520811       0.00112294      -0.00186145      -0.00544078
H        9.93387287       4.99535195       4.43561037      -0.00121383      -0.01210186       0.00109809
H       10.63515397       3.56308358       3.68795543      -0.00285219      -0.01360650       0.00263016
H       10.11339963       3.51858440       5.37356522      -0.00543643      -0.01249004       0.00178763
H        3.32543929       3.86746805       3.89473010      -0.00081326       0.00352090      -0.00748803
H        3.44424209       2.44968996       4.94739309      -0.00932716       0.00416154      -0.00479273
H        2.70558031       3.92870405       5.54265504      -0.00491770       0.00824817      -0.00928201
C       10.95211584       6.93696992       6.36005384       0.00159329      -0.00226903      -0.00119748
C       10.39886483       7.61589064       5.11377238       0.00391471      -0.00391725      -0.00310132
C        9.97407775       6.88505864       7.52544345       0.00149727       0.00124156      -0.00103281
C       11.34716233       7.49371700       3.92680194       0.00414258      -0.00950471      -0.00263673
C       10.58331948       6.24476681       8.76521624       0.00304349       0.00726667       0.00139377
C       10.91306992       8.30398391       2.71334096       0.00927725      -0.00659299      -0.00251532
H       11.27188821       5.91704586       6.11502768       0.00039294      -0.00318691       0.00099411
H       11.85965431       7.46383002       6.67934152       0.00206217      -0.00291869      -0.00167786
H       10.21085513       8.67360899       5.32667840       0.00629280      -0.00318176      -0.00547592
H        9.41920341       7.20615045       4.85232760       0.00314522      -0.00232728      -0.00312775
H        9.63544734       7.89859344       7.75677670      -0.00019956       0.00159952      -0.00492176
H        9.07786786       6.33432725       7.22083154       0.00240779      -0.00150308       0.00170462
H       12.34605690       7.79384160       4.25500151       0.00625023      -0.01602563      -0.00238085
H       11.44102957       6.43890088       3.64820036      -0.00321290      -0.00977510      -0.00348411
H       10.88530167       5.21433107       8.56399342       0.00513841       0.00713846       0.00525441
H        9.88467051       6.22865470       9.60292609       0.00356248       0.00914428       0.00180827
H       11.47604476       6.78702018       9.08637814       0.00226244       0.01025388      -0.00153564
H        9.91393584       8.02072306       2.38357705       0.00708914       0.00058611      -0.00167027
H       10.85364901       9.36884986       2.94505852       0.01726221      -0.00644666      -0.00265586
H       11.59968267       8.16582186       1.87285907       0.00743981      -0.01182301      -0.00313886
C        1.57069087       9.40884395       9.69607905       0.00163572      -0.00594473       0.01686752
C        1.57203096       8.63935394       8.38049445       0.00043052      -0.00437388       0.01491702
C        0.88612031      10.76131778       9.56065936       0.00207549      -0.00461218       0.02075338
C        2.14979870       7.23725579       8.49962948       0.00523448      -0.00309044       0.00973034
C        0.88587189      11.57184597      10.84946618       0.00681126      -0.00084805       0.01759901
C        2.15586524       6.46560074       7.18712927       0.00055935       0.00452991       0.00525382
H        1.07665633       8.81027691      10.47619893       0.00322050      -0.00865795       0.01594970
H        2.61121062       9.55970725      10.01173265       0.00212502      -0.00740328       0.01616245
H        2.14857460       9.21378743       7.65466775      -0.00388989      -0.00311556       0.01194048
H        0.54803736       8.58669171       7.99102915       0.00009468      -0.00930484       0.01671690
H        1.37887324      11.35493388       8.79192688       0.00140783      -0.00327817       0.02165291
H       -0.15242147      10.62948529       9.24214246       0.00005034      -0.00149105       0.02684168
H        3.17528069       7.31873074       8.86912090       0.00663748      -0.00194874       0.00538716
H        1.59189409       6.67289838       9.25583456       0.00994115      -0.00805023       0.00953203
H        0.28649809      11.01440298      11.61005057       0.01091334       0.00043292       0.02144799
H        0.43339283      12.56013128      10.74448088       0.00495146      -0.00145945       0.01528831
H        1.94234832      11.70823782      11.17738236       0.00847255       0.00251960       0.01073168
H        1.14655407       6.35991508       6.78273095      -0.00135839       0.00473466       0.01019154
H        2.76296568       6.97379057       6.43530693      -0.00569209       0.01295501       0.00596589
H        2.56763640       5.46436401       7.31869026       0.00438543       0.00482535      -0.00546148
C        7.48119321       3.94032403      10.52017018       0.00194472      -0.00684610      -0.00439236
C        6.06290414       4.48428427      10.58827486       0.00300920      -0.00424714      -0.00459030
C        7.62896878       2.77092712       9.55542225      -0.00081614      -0.00726113      -0.00416413
C        5.91734100       5.70038424      11.49211310       0.00484398      -0.00296292      -0.00610846
C        9.05553828       2.24674436       9.48125003      -0.00185144      -0.00961478      -0.00541540
C        4.49452442       6.23174612      11.50223020       0.00534886      -0.00177254      -0.00680119
H        8.15924188       4.74603430      10.21646178       0.00360420      -0.00832108      -0.00465536
H        7.80481033       3.63525545      11.52256224       0.00138795      -0.00733891      -0.00442088
H        5.38325257       3.69405063      10.92788653       0.00177366      -0.00277069      -0.00382125
H        5.73090280       4.75061439       9.57819845       0.00339647      -0.00491405      -0.00485167
H        6.94905285       1.96588774       9.84900405      -0.00195453      -0.00603032      -0.00341906
H        7.29849909       3.08600301       8.56136673      -0.00120721      -0.00689210      -0.00393468
H        6.23026219       5.44721600      12.51043249       0.00488218      -0.00183035      -0.00590032
H        6.59898682       6.48636747      11.15142402       0.00552323      -0.00421339      -0.00752477
H        9.74297810       3.03425764       9.16417122      -0.00083498      -0.01071307      -0.00603406
H        9.14470245       1.42007725       8.77625921      -0.00392610      -0.00968681      -0.00550874
H        9.39520279       1.89186365      10.45706846      -0.00163396      -0.01016934      -0.00573644
H        4.16642331       6.48162969      10.49333142       0.00420829      -0.00825306      -0.00781652
H        3.79883657       5.48755582      11.89587619       0.00525172       0.00131288      -0.00122758
H        4.40503750       7.12945352      12.11224467       0.00653737       0.00231454      -0.01256154
C        9.06603443      10.96881862       7.71090801      -0.00270730       0.00344069       0.00034636
C        7.75735510      10.23687278       7.44310165      -0.00196639       0.00204844       0.00216627
C        9.59199620      11.69765049       6.47854251      -0.00506106       0.00639709       0.00086540
C        7.19315635       9.50437935       8.65392497       0.00060560       0.00403975       0.00455803
C       10.93951097      12.36895879       6.70535942      -0.00365150       0.00306883       0.00175032
C        5.96262272       8.67913045       8.29633960       0.00125518       0.00064775       0.01044941
H        8.93332929      11.68532935       8.53121245      -0.00225464       0.00016922       0.00332993
H        9.82532022      10.25323815       8.05626482      -0.00135857       0.00354543      -0.00205111
H        7.90678298       9.52603881       6.62553724      -0.00235877       0.00141469       0.00244734
H        7.00932370      10.94310255       7.07288518      -0.00218356       0.00206506       0.00291465
H        9.66255709      10.98957357       5.64794955      -0.00786142       0.00782749      -0.00063655
H        8.85218232      12.43650026       6.15914429      -0.00237501       0.01095054       0.00327394
H        7.96176675       8.85274895       9.08745525       0.00212768       0.00644240       0.00537824
H        6.93284356      10.23101090       9.43054452       0.00098939       0.00612396       0.00275791
H       10.89094612      13.10820594       7.50856995      -0.00365813      -0.00073889       0.00530556
H       11.28622988      12.88474158       5.80811364      -0.00716718       0.00790362       0.00345343
H       11.70458654      11.64073615       6.98509311      -0.00295816       0.00159334      -0.00321962
H        5.18348127       9.32016053       7.88095492       0.00149685      -0.00358129       0.00333261
H        6.20760632       7.92504291       7.54534171       0.00245108      -0.00678007       0.01829344
H        5.55485434       8.16562915       9.16993741       0.00018755       0.00889293       0.01488249
C        2.83368751       9.59716139       0.81803836      -0.00308912       0.00320049      -0.00462773
C        3.19142935       8.22610100       1.40380982      -0.00141227      -0.00000940      -0.01054907
C        3.91631762      10.63814586       1.19123745       0.00324392      -0.00341064      -0.00618832
C        2.19166079       7.12889991       1.06901616      -0.00306618       0.00207800      -0.00887299
C        3.77354216      12.14751204       0.91686984       0.01708118      -0.00141920      -0.00319746
C        2.57722346       5.81202947       1.72932608      -0.00748268       0.00369796      -0.00372058
H        2.69514182       9.52044925      -0.27700753      -0.00756866       0.00781679      -0.00433774
H        1.82587113       9.75247105       1.27830946      -0.00175285       0.01257160      -0.00464496
H        3.27760797       8.34011154       2.48811776       0.00291867      -0.00587348      -0.00988817
H        4.19983760       7.96060154       1.08232619      -0.00206831      -0.00390767      -0.01024134
H        4.16919004      10.52856339       2.24127121       0.00759546      -0.00838858      -0.00773087
H        4.81389720      10.31815333       0.66424014      -0.00388545      -0.00903800      -0.01407811
H        1.18977076       7.42322032       1.40523887       0.00115207       0.01109277      -0.00606097
H        2.12793247       7.00289432      -0.01596699      -0.00590462      -0.00269445      -0.00821036
H        3.51434915      12.41778903      -0.13385337       0.00991453      -0.00190181      -0.00166876
H        4.73002847      12.63852156       1.09024209       0.02538779      -0.01298241      -0.01857377
H        3.11100442      12.68230158       1.63650845       0.02878563       0.00623304       0.00210223
H        3.58082593       5.50456525       1.42955628      -0.00923091      -0.00385952      -0.00241065
H        2.57975222       5.90834878       2.81636954      -0.00673508       0.01355132      -0.00482821
H        1.88780183       5.00930629       1.46692147      -0.01065443       0.00437608       0.00269565
