139
Lattice="13.073453633546247 0.0 0.0 0.0 13.073453633546247 0.0 0.0 0.0 13.073453633546247" Properties=species:S:1:pos:R:3:forces:R:3 energy=-739980.75 stress="0.00019207764125894755 0.0003999534237664193 0.0003943848714698106 0.0003999534237664193 0.00034784007584676147 -0.00033052383514586836 0.0003943848714698106 -0.00033052383514586836 0.0009139179601334035" pbc="T T T"
Y       12.05648408      13.38431715       1.56033957      -0.01078807      -0.00254983      -0.00844718
I       12.96131985      14.06046549      12.05767013      -0.00610135       0.01543275      -0.00346267
I       11.83435274      14.43963546       7.93135267       0.01151193       0.01618735      -0.00041740
I        7.45011675      11.82169015      10.56753071       0.00113781      -0.04466601       0.02213036
O        4.99117928       8.97150750       8.09304000      -0.00152849      -0.00134867       0.00308788
C        4.81413029      10.38084885       7.98891033      -0.00137055      -0.00136030       0.00030875
C        4.68059156       8.51279638       9.39621138       0.00027184       0.00103986       0.00472715
C        5.33865721      10.83410594       6.65174512      -0.00124858      -0.00290697       0.00130087
C        5.04664883       7.05198636       9.49830703      -0.00092262       0.00073999       0.00529212
H        3.74931764      10.62705009       8.11076327      -0.00418097      -0.00271381      -0.00056146
H        5.37060109      10.87988868       8.79178375      -0.00504026      -0.00128779       0.00227541
H        5.23625769       9.10747600      10.13414077       0.00208342       0.00128064       0.00297672
H        3.60685641       8.66218946       9.59399599       0.00053799       0.00198393       0.00531039
H        5.23937941      11.91607588       6.56000024      -0.00353535      -0.00208054      -0.00561472
H        6.39678950      10.58281535       6.57554193      -0.00011697       0.00039870       0.00309981
H        4.80053630      10.36000372       5.82740039       0.00188941      -0.00478415       0.00035109
H        4.74464069       6.65347862      10.46775834       0.00013690       0.00168073       0.00652841
H        4.54819564       6.47428295       8.71810419      -0.00288120       0.00033509       0.00714312
H        6.12272400       6.92386914       9.38875159      -0.00131401      -0.00075228       0.00439664
O        0.72336127       8.05895936       4.18049869      -0.00182134      -0.00187552       0.00002445
C        1.50540833       8.19447924       3.00938802      -0.00237682      -0.00188258      -0.00038874
C        1.52771268       8.02072766       5.35001733      -0.00122693      -0.00159737      -0.00022423
C        0.58793897       8.16716477       1.81136505      -0.00348273      -0.00302047       0.00018921
C        0.63078877       7.94148869       6.55742072      -0.00114927      -0.00059688       0.00004187
H        2.06353854       9.14388932       3.05209372      -0.00320639      -0.00118402      -0.00135243
H        2.24772246       7.38538379       2.94908061      -0.00187767      -0.00112557      -0.00049959
H        2.19850034       7.15182442       5.30755983      -0.00154394      -0.00185496      -0.00023848
H        2.16219792       8.91802399       5.39009122      -0.00096455      -0.00164664      -0.00083955
H        1.15300585       8.33175867       0.89271832      -0.00422589      -0.00143224      -0.00024772
H        0.07719975       7.20646490       1.73765835      -0.00108419      -0.00457308      -0.00005239
H       -0.17813579       8.93836349       1.90114533      -0.00518319      -0.00539000       0.00138868
H        1.23096829       7.92784071       7.46798245      -0.00092809      -0.00154543       0.00011434
H       -0.03653884       8.80216954       6.59837327      -0.00015423       0.00004433       0.00018469
H        0.02284035       7.03660130       6.52360482      -0.00217903       0.00004072      -0.00007577
O        1.31341202      12.09836731       4.48356565      -0.01597907       0.00009628      -0.00234169
C        0.69851080      12.51963716       3.34057074      -0.02029504      -0.00271657      -0.00114799
C        0.41163441      11.86253653       5.59299415      -0.01153582      -0.00114462       0.00090139
C        1.72738630      12.66294291       2.23328561      -0.01912993       0.00123705      -0.00029299
C        1.23766770      11.57217244       6.81430707      -0.00445139       0.00310777      -0.00232816
H       -0.10518053      11.77739173       3.04321519      -0.01743692      -0.00489490      -0.00162308
H        0.18011494      13.51315994       3.53193638      -0.02213636      -0.00426466      -0.00047441
H       -0.20121052      12.75624232       5.76126059      -0.01262458      -0.00193262       0.00218102
H       -0.24021335      11.02098448       5.32223347      -0.00981580      -0.00304121       0.00486888
H        1.33725457      13.02714623       1.26278860      -0.01717860       0.00178880      -0.00123517
H        2.49350110      13.37539614       2.53673452      -0.02094297       0.00056894       0.00191450
H        2.18464393      11.69488019       2.03215893      -0.01830783       0.00130829      -0.00033639
H        0.57073097      11.37794284       7.65377275       0.00008644       0.00234668       0.00078413
H        1.88432829      10.70813839       6.65913407      -0.00272323       0.00419143      -0.00454473
H        1.85007071      12.43534575       7.07370773      -0.00539161       0.00481527      -0.00665772
O        9.02711177       8.02697562       7.93443300       0.00632453       0.00155942       0.00364816
C        8.88283141       7.33230064       6.71705173       0.00556535       0.00305507       0.00048295
C       10.26801267       8.70591433       8.01155511       0.01142597      -0.00492144      -0.00183153
C        7.56181517       6.60596411       6.73086020       0.00182331       0.00282758       0.00255589
C       10.38543788       9.38258406       9.35234803       0.00529203      -0.00797731       0.00717717
H        8.92982424       8.04119427       5.87308420       0.00436686       0.00182724       0.00231081
H        9.71747424       6.62427850       6.58762078       0.00181255       0.00002182       0.00005372
H       11.08241500       7.98187126       7.86248922       0.00622618      -0.00479671      -0.00165192
H       10.33681180       9.44446524       7.19720494       0.01052181      -0.00177661       0.00251964
H        7.42910069       6.03899763       5.80856392       0.00058620       0.00578277       0.00306869
H        7.52821791       5.90618382       7.56578970       0.00174367       0.00465059       0.00230746
H        6.73799557       7.31254641       6.84251215       0.00289087       0.00664200       0.00403361
H       11.34786856       9.89277658       9.42189621       0.01859474      -0.00658572       0.00127958
H        9.59085977      10.11721127       9.49696160       0.01722974      -0.01166782       0.00817512
H       10.31674980       8.64275828      10.15190149       0.01786853      -0.00852005      -0.00175782
O        4.89396311       6.83692236       2.70039784       0.00195548       0.00202221      -0.00048950
C        5.02288083       7.02960087       4.10133904       0.00088723       0.00282604      -0.00054222
C        5.15811203       8.02849790       1.98320573       0.00168673       0.00184973      -0.00125027
C        4.68046047       5.74252856       4.80866751       0.00257848       0.00260794      -0.00013596
C        4.97312703       7.77223385       0.50854420       0.00381251       0.00050326      -0.00130987
H        6.04787137       7.34710685       4.33970387       0.00032181       0.00460722       0.00000791
H        4.35535537       7.84135256       4.42403939      -0.00064895       0.00201428      -0.00115266
H        4.48032510       8.82510227       2.32686572       0.00044951       0.00154769      -0.00267169
H        6.18105061       8.37054816       2.19521473       0.00120103       0.00290819      -0.00018842
H        4.69190444       5.89589786       5.88795912       0.00310889       0.00293157       0.00011688
H        3.68502496       5.40408933       4.51709184       0.00282604       0.00139505       0.00067986
H        5.39469466       4.95321724       4.57245897       0.00335413       0.00333203      -0.00040555
H        5.17957760       8.67842627      -0.06218463       0.00435176       0.00017169      -0.00192178
H        5.64821977       6.98752340       0.16558871       0.00459363       0.00045946       0.00037417
H        3.95023622       7.45531388       0.30035442       0.00412688      -0.00002581      -0.00250951
O        9.78316611       9.06833318       1.47558811       0.00435639       0.00350144      -0.01084250
C       10.08990533       9.95978891       0.42611547      -0.00206766       0.00147307      -0.01500243
C        9.05088054       7.94204283       1.00379961       0.00180712       0.00214994      -0.00402197
C       10.83184486      11.14435312       1.02179537       0.00667282      -0.00123491      -0.02365795
C        8.81330503       6.99722090       2.15619076       0.00560318       0.00574175      -0.00136429
H       10.73011460       9.47472725      -0.32274576      -0.01017964      -0.00151402      -0.02045140
H        9.18725038      10.31577070      -0.08849494      -0.00579467       0.00330999      -0.00931916
H        8.10113498       8.28014795       0.56718746       0.00093880       0.00124052      -0.00262325
H        9.61870059       7.44860130       0.20241529      -0.00107124      -0.00061831      -0.00457114
H       11.08882642      11.80074017       0.16561376       0.00041256       0.00067647      -0.02444416
H       10.17110939      11.65239480       1.74963207       0.01440087      -0.00067063      -0.01505165
H       11.75063611      10.79299257       1.51827086       0.01193182      -0.00241085      -0.03445978
H        8.19827953       6.15658617       1.83022308       0.00678514       0.00423107       0.00418046
H        9.75813005       6.61676434       2.54753720       0.00737630       0.00904452      -0.00044151
H        8.28670493       7.50043201       2.96784364       0.00633575       0.00894816      -0.00087129
O       11.31309996       2.35021420       2.30175472      -0.00179110      -0.00434753      -0.00014833
C       10.17991800       2.68291930       1.43986223      -0.00913191       0.00140816       0.00972226
C       11.76002422       3.51041468       3.08782744      -0.01209012      -0.00612223       0.01081273
C        9.64775418       1.38266338       0.89333080      -0.00414488       0.00071450      -0.00290698
C       12.71818734       3.09737023       4.16371816       0.01292175      -0.01003490      -0.01122761
H        9.44084660       3.19604805       2.05436959      -0.00112650      -0.00453923       0.00051929
H       10.53507966       3.34423025       0.64628308      -0.00152467       0.00282070       0.00131534
H       12.19366609       4.22028513       2.37954454       0.00475462      -0.00076610       0.00003147
H       10.85369839       3.94083205       3.51624028       0.00945276      -0.00685409       0.00358871
H        8.73877531       1.51370515       0.30356422      -0.01176691       0.00527268       0.01072100
H       10.33562939       0.95609140       0.13792899      -0.01227655       0.00417617      -0.00602702
H        9.37863718       0.68194589       1.69955963      -0.00209134      -0.00207851       0.00057036
H       12.94747944       3.97795318       4.76526474       0.01091429      -0.01031128      -0.00647053
H       12.28234636       2.36629289       4.85021049       0.00277504      -0.01013459       0.00141431
H       13.66188656       2.72519266       3.75919319      -0.00179228      -0.01450722      -0.00726390
O        6.86394709       2.66621565       4.55171249      -0.00254151      -0.00038646       0.00327927
C        8.20384420       3.07346260       4.76019326      -0.00045058      -0.00481080       0.00124043
C        6.48992484       2.69752693       3.19024524      -0.00217503      -0.00290675       0.00291792
C        8.52690587       2.99053141       6.22840540      -0.00048629      -0.00188801       0.00180477
C        5.06649454       2.20806246       3.07375144      -0.00416911       0.00152221       0.00430969
H        8.87973076       2.41837746       4.18405884      -0.00356090      -0.00875795       0.00271416
H        8.33541051       4.10286135       4.38105670       0.00324362      -0.00616366      -0.00118892
H        6.58059221       3.72360773       2.79710052       0.00101108      -0.00425166       0.00026038
H        7.16383730       2.05281865       2.60427308      -0.00429928      -0.00668016       0.00504766
H        9.53873772       3.34547316       6.42726936       0.00233184      -0.00821917       0.00035504
H        7.82183498       3.58651904       6.80661565       0.00356656       0.00380433       0.00031967
H        8.47959556       1.96093514       6.57875128      -0.00589290      -0.00059946       0.00469776
H        4.73712023       2.24511578       2.03467037      -0.00370414      -0.00025872       0.00384516
H        4.99786500       1.17974576       3.43128348      -0.00758234       0.00270183       0.00691529
H        4.40359631       2.83089322       3.67450993      -0.00207128       0.00518952       0.00226566
O        7.78515601      11.86420193       2.81045064       0.00824516       0.00582248       0.00127490
C        6.76960973      11.39393619       1.92580728       0.00572240       0.00361010       0.00476071
C        7.97703852      10.96199331       3.89806167       0.01189759       0.00697990       0.00207549
C        6.44261843      12.46099287       0.92003999      -0.00373732       0.00515649       0.00882867
C        8.83405881      11.61601944       4.95130136       0.01329994       0.00930554      -0.00069380
H        7.11348406      10.47895239       1.42089405       0.00673939       0.00578722       0.00226104
H        5.88233190      11.12901131       2.51943296       0.00973168      -0.00047797       0.00913215
H        6.99642664      10.70400190       4.31865280       0.01293194       0.00731457       0.00523552
H        8.43667774      10.03639934       3.52515552       0.01140809       0.00674811       0.00257748
H        5.67428691      12.11025101       0.23085316      -0.00540255       0.00386874       0.01078848
H        6.09567896      13.36857916       1.41208759      -0.00520413       0.00182169       0.01268243
H        7.30408628      12.68609700       0.29302009      -0.00724469       0.00988499       0.00521821
H        8.95304853      10.94399278       5.80169000       0.01465164       0.01119125       0.00076568
H        9.83291495      11.84871438       4.57125139       0.01313102       0.00854149      -0.00239630
H        8.37426835      12.53822217       5.30572508       0.01386936       0.00985959      -0.00209356
