142
Lattice="12.474127104027087 0.0 0.0 0.0 12.474127104027087 0.0 0.0 0.0 12.474127104027087" Properties=species:S:1:pos:R:3:forces:R:3 energy=-207576.21875 stress="-0.0007905252277851105 0.00048772386799100786 -0.0007109659491106868 0.00048772386799100786 -0.000709093059413135 -0.00019921294006053358 -0.0007109659491106868 -0.00019921294006053358 -0.0014297381276264787" pbc="T T T"
Y       10.16577614      13.01762814      -0.27474611      -0.01196358       0.00053582       0.01732671
S        1.30931005      11.69608319       3.98916364      -0.00686371      -0.00764781      -0.01822972
N        0.01349417      12.51906949       6.35013789       0.00587213      -0.01430249      -0.01216102
C        0.56400501      12.17715556       5.36412467      -0.00229405      -0.01003447      -0.01083025
S        8.65494242      11.00073214      11.17410910      -0.01248282       0.00430022       0.00424436
N        6.21455721      11.98344801      12.20167499       0.01605988      -0.00549310       0.00179943
C        7.22761684      11.59095042      11.76994006      -0.00940415       0.00275499       0.00887196
S       10.47069833       9.34036725       2.06290021      -0.00492474      -0.02283108      -0.00074577
N       11.49495918      11.46115765       0.57864516      -0.01839006       0.00208721       0.02295810
C       11.07706300      10.54414289       1.22788234      -0.01507373      -0.01286209       0.01582861
O        9.96100191       1.64770958       1.61390915      -0.00337973       0.03508247      -0.00151287
N       10.59009953       3.83433448       1.55728288       0.00959414       0.02972874       0.00006134
C       12.01293249       3.53067418       1.59257900       0.00688452       0.02115296       0.00392282
C       10.20623138       5.23246755       1.43979938       0.01816596       0.03181243       0.00933173
C        9.69288484       2.88078624       1.58389215       0.00399601       0.03562629      -0.00423339
H       12.49413338       4.24751690       2.25548026       0.00883294       0.01464668       0.00914159
H       12.43849043       3.61973108       0.59154820       0.01011223       0.02364247       0.00591201
H       12.15766659       2.52005977       1.96478090      -0.00090277       0.01834765      -0.00202157
H       10.63272926       5.80509827       2.26059160       0.02221909       0.02448498       0.01192787
H        9.12366734       5.31015395       1.47841236       0.01894403       0.03422217       0.01015943
H       10.58531956       5.63154931       0.49803452       0.02077530       0.03738627       0.01319671
H        8.65588005       3.21445237       1.55786990       0.00539904       0.04073837      -0.00923921
O        8.69403607       4.57242082       4.01072010      -0.00164777      -0.00215560       0.00153883
N        8.03466862       2.42048097       4.39887633      -0.00377738      -0.00177131      -0.00089399
C        9.13411223       2.10363621       5.28369467      -0.00120234      -0.00707278      -0.00609854
C        7.03625086       1.39361989       4.20916805      -0.00400838      -0.00052947      -0.00377105
C        7.90077873       3.64709360       3.88344176      -0.00292721      -0.00072253       0.00198665
H        9.68685232       1.23440696       4.92390763       0.00085834      -0.00145900      -0.01591228
H        8.72436786       1.88230424       6.26575144       0.00132273      -0.01872209      -0.00794160
H        9.79957390       2.95938798       5.34979622      -0.00372668      -0.00591421       0.00124494
H        7.49561474       0.50002636       3.78125982      -0.00489111       0.00130853      -0.00837722
H        6.27018115       1.75345974       3.52435721      -0.00495318       0.00244175      -0.00101045
H        6.57204893       1.12886923       5.16308896      -0.00245681      -0.00476544      -0.00440753
H        6.98010156       3.73846708       3.27775637      -0.00439614       0.00161250       0.00466610
O        2.92217178       3.74504774      -0.05427884       0.01201266       0.01057107       0.01283836
N        2.59345495       2.52213810       1.85992908       0.00339377       0.00199640       0.00556111
C        2.68845943       1.22056380       1.22469229       0.00226373       0.00517677      -0.00050133
C        2.36874449       2.54814365       3.29295000       0.00098851      -0.00409103       0.00512192
C        2.71342277       3.65588765       1.14968912       0.00856999       0.00509262       0.01182711
H        1.74479674       0.68091005       1.33259268       0.00512367       0.00188330       0.00554980
H        3.46431309       0.62994437       1.71180525       0.00843436       0.00557356      -0.01014467
H        2.93688323       1.36056695       0.17652309      -0.00721758       0.01042236      -0.00176707
H        1.50129382       1.94192339       3.56022339       0.00013775      -0.00452182       0.00078078
H        2.22721648       3.58034722       3.61156541       0.00110576      -0.00555019       0.00934131
H        3.21892889       2.11407120       3.82563907      -0.00029302      -0.00677954       0.00476076
H        2.59176933       4.54973168       1.78556718       0.00908990       0.00193971       0.01583779
O        6.27915570       4.25580114       7.24834680       0.00186232       0.00249362       0.00615174
N        5.90604583       5.38654466       5.29232565      -0.00088762       0.00256464       0.00724275
C        4.67453269       4.70125198       4.97475623      -0.00129409       0.00231561       0.00954499
C        6.35294571       6.39281004       4.35180560      -0.00162323       0.00178196       0.00602178
C        6.59876646       5.08945962       6.41057000       0.00119730       0.00246775       0.00576198
H        4.77463941       4.16505570       4.02553192      -0.00220949       0.00098129       0.01016951
H        3.86287618       5.42558786       4.87699853      -0.00089878       0.00248554       0.00979294
H        4.44717378       3.99153353       5.76536620      -0.00008571       0.00351398       0.01081207
H        6.57561432       5.94254215       3.38129268      -0.00227360       0.00121908       0.00628567
H        7.27150251       6.84605344       4.71445444      -0.00158268       0.00243562       0.00503071
H        5.57670234       7.14825643       4.23841140      -0.00192010       0.00127655       0.00600110
H        7.51578288       5.69506052       6.49828797       0.00151509       0.00221542       0.00453030
O       11.40057842       2.10383791      11.09815393       0.01205496      -0.03624016       0.00554954
N       10.85080701       0.86312041       9.27517930       0.00939838      -0.02177328      -0.00430852
C       11.82240976      -0.20051584       9.52154443      -0.00594226      -0.03434420      -0.00367498
C        9.94769231       0.67722334       8.14731604       0.01316059      -0.00699035      -0.00934494
C       10.86599414       1.99188007       9.95738848       0.01478285      -0.02774173       0.00239328
H       12.32508068      -0.37375761       8.56568034      -0.00085168      -0.03565396      -0.00006163
H       11.32434988      -1.11689256       9.84501556      -0.01962163      -0.02907184      -0.01207189
H       12.53678336       0.13487154      10.26959163      -0.00814253      -0.04752144       0.00374474
H       10.53842984       0.56319681       7.23810112       0.01543841      -0.00707604      -0.00764453
H        9.28433610       1.53617515       8.10615011       0.02190986      -0.00037155      -0.00674434
H        9.34602787      -0.21658161       8.32750408       0.00407848      -0.00210920      -0.01700999
H       10.34451501       2.83154144       9.49260349       0.02232215      -0.02076557       0.00637989
O        8.48567274       1.98669128      11.57638625       0.00130909       0.00113937      -0.00859168
N        6.90691938       3.56222635      11.10564834      -0.00076663      -0.00195220      -0.01101296
C        5.76439208       2.70172374      11.37726332      -0.00023741      -0.00455877      -0.01728717
C        6.60742881       4.89984226      10.62240663      -0.00094794      -0.00091007      -0.00794029
C        8.14725880       3.14068690      11.22135681       0.00011802       0.00013784      -0.00814249
H        5.20952088       2.54394309      10.45163635       0.00638875      -0.00628927      -0.02087206
H        5.09813259       3.20554094      12.07563001      -0.00578712      -0.00510928      -0.02191314
H        6.09946136       1.74778992      11.77123844      -0.00055702      -0.00282240      -0.01433107
H        6.14806830       4.83355514       9.63482400       0.00160164       0.00102326      -0.00907895
H        7.52509831       5.47963307      10.55572535      -0.00137484       0.00009659      -0.00407820
H        5.91919044       5.38368680      11.31647049      -0.00307675      -0.00383744      -0.00813365
H        8.90251922       3.90024961      10.98564820      -0.00090253       0.00183953      -0.00576543
O       12.40316196       4.84448438       7.90213497      -0.02497303      -0.00479639       0.01806791
N       11.20810438       6.23337636       6.52990755      -0.00194417      -0.00015356       0.00354022
C       11.71240845       5.67643496       5.28940932       0.00093045      -0.01076552       0.01010007
C       10.24183757       7.30140265       6.41643983       0.00756936       0.00684154      -0.00772008
C       11.61108101       5.75765693       7.72280798      -0.01556653       0.00130075       0.00819692
H       12.17191888       6.45817887       4.68093290       0.00745749      -0.01712027       0.00741987
H       10.88510726       5.23510383       4.72796719       0.00151896      -0.01008467       0.00893970
H       12.44526811       4.91085948       5.53206249      -0.00435986      -0.01284407       0.01856056
H       10.67424752       8.17128202       5.91655959       0.01710208      -0.00098762      -0.01215467
H        9.89986887       7.59356755       7.40797617       0.00653814       0.01705068      -0.01137716
H        9.38443598       6.96332146       5.82861854       0.00711089       0.01016325      -0.00871298
H       11.13904942       6.29888184       8.56366219      -0.01744363       0.00848141       0.00185871
O        0.67033443       7.32705267       2.88563089      -0.00154638      -0.03036213      -0.00819573
N        2.50753378       7.50538794       1.53881448      -0.00077663      -0.00196601      -0.00256686
C        1.92339040       8.50340136       0.66883201      -0.01172358      -0.01060352      -0.00386576
C        3.82226461       7.00561863       1.21498876       0.00441346       0.01286396      -0.00203898
C        1.81840912       7.03621817       2.60102323       0.00347519      -0.01145674      -0.00443745
H        1.71480915       8.08673591      -0.31986744      -0.00239865      -0.01317576      -0.00429878
H        2.61946653       9.33814361       0.55344754      -0.02441385       0.00024424       0.00122635
H        0.99838558       8.85869341       1.11745316      -0.01808956      -0.02299075      -0.00897519
H        3.79960304       6.42578043       0.28674150       0.01075495       0.01237580      -0.00169912
H        4.16804506       6.35993154       2.02123801       0.01159908       0.01741160      -0.00185414
H        4.53364345       7.82943064       1.10913806      -0.00528209       0.02072132      -0.00278514
H        2.41988684       6.33241196       3.20176923       0.01286143      -0.00025773      -0.00197539
O        7.05325003      10.82250584       7.99040537       0.00723052      -0.00742975      -0.01130331
N        5.70868169       9.81612215       9.54218129       0.00786272       0.00086752      -0.00632343
C        6.47144170       8.59280865       9.59256601       0.00512704      -0.00070413      -0.00376496
C        4.50362764       9.87186453      10.33556053       0.00859945       0.00575093      -0.00610740
C        6.07823034      10.83508224       8.72678760       0.00951684      -0.00311685      -0.01094425
H        5.87050479       7.75032524       9.23089969       0.00204191      -0.00032946       0.00103492
H        6.78910767       8.38449819      10.61808036       0.00750895       0.00243694      -0.00412238
H        7.35079098       8.70914534       8.96446151       0.00348926      -0.00505184      -0.00667764
H        3.82710312       9.05555262      10.06002052       0.00553167       0.00807768      -0.00506322
H        3.99250110      10.81479922      10.15585201       0.01207066       0.00741610      -0.00663183
H        4.73941345       9.80247044      11.40043981       0.00862439       0.00574115      -0.00627607
H        5.40193612      11.69710529       8.80865774       0.01067924      -0.00140148      -0.01272602
O        3.83930432       8.34707210       4.53025719      -0.00556080      -0.00138485      -0.00056612
N        5.15863768      10.00926122       3.67495533      -0.00456226       0.00162169       0.00724301
C        6.23619445       9.88568168       4.63559260      -0.00951748       0.00345209       0.01283614
C        5.32826783      10.99608118       2.63389171      -0.00348334       0.00442302       0.01081403
C        4.03328436       9.27871119       3.75530121      -0.00345847      -0.00119919       0.00100762
H        6.38011258      10.82785880       5.16695657      -0.01638625       0.00227645       0.01628743
H        7.16809252       9.61742053       4.12955584      -0.00602406       0.00867467       0.01705314
H        5.97778977       9.12579083       5.36486032      -0.01007903       0.00048456       0.00918084
H        5.31356824      12.00883413       3.04314083      -0.01160655       0.00329882       0.01264007
H        4.52444617      10.91023582       1.90598333       0.00291485       0.00164501       0.00474355
H        6.27619466      10.84015842       2.11440916       0.00080678       0.01056547       0.01687939
H        3.27872283       9.58958014       3.02031429       0.00043344      -0.00270936      -0.00337595
O        3.67552877      10.55519414       7.21019935      -0.00015885      -0.00700641       0.00103280
N        2.57189075       8.54998825       7.22501436      -0.01030362      -0.00113982      -0.00128402
C        1.25818728       9.13047716       7.04453852      -0.00650067       0.00557165      -0.00581167
C        2.68837146       7.11875206       7.08705728      -0.01715593      -0.00146214      -0.00129630
C        3.66675410       9.33693755       7.21817734      -0.00646795      -0.00694871       0.00188261
H        0.56868487       8.72378639       7.78904923      -0.01113759       0.00875925      -0.00861824
H        0.88443910       8.90455984       6.04141515      -0.00396690       0.00802581      -0.00719446
H        1.32770516      10.21063593       7.14325652      -0.00162398       0.00498676      -0.00520381
H        2.13845731       6.59581771       7.87280454      -0.02415225       0.00139344      -0.00457227
H        3.73985125       6.83591875       7.13763413      -0.01920736      -0.00714445       0.00477226
H        2.29406096       6.80263824       6.11770521      -0.01325122       0.00106719      -0.00364313
H        4.59592738       8.74133122       7.24967496      -0.00978023      -0.01159045       0.00550344
