150
Lattice="16.514213560583087 0.0 0.0 0.0 16.514213560583087 0.0 0.0 0.0 16.514213560583087" Properties=species:S:1:pos:R:3:forces:R:3 energy=-1219664.875 stress="-0.00033313376479782164 -0.00011238205115660094 0.00033489947963971645 -0.00011238205115660094 -0.0006867852644063532 -6.372780035235337e-06 0.00033489947963971645 -6.372780035235337e-06 -0.0008395070908591151" pbc="T T T"
Y       16.56964020      16.55497004       0.80440253       0.00977176      -0.01014689       0.00924808
S       16.29830013      15.51168058       3.54179416       0.01593610      -0.00453102       0.01710159
N       16.11361495      14.22126550       1.09064775       0.00284112      -0.00427708       0.01787207
C       16.16706122      14.57167283       2.22597636       0.00809926      -0.00194564       0.01739869
S        3.89225294      14.78266907      15.39473772       0.00581896       0.00185907      -0.00417611
N        1.57705818      16.25228180      15.81100289       0.00586492      -0.00167757       0.00522328
C        2.57588681      15.62025484      15.61845415       0.00645113       0.00009111       0.00094438
S       11.48649366      15.39462526       9.32803037       0.01513171      -0.03971761      -0.01057959
N        9.16612056      14.29336421      10.48048202       0.01950765       0.02190435       0.02352130
C       10.12383671      14.76404663       9.98752066       0.00683835      -0.01121686       0.01562020
Cl       4.49435420       1.91330993      16.30803970       0.01539561       0.01075429       0.00481378
Cl       4.66362703       4.69240450      15.42101789       0.00776765       0.00870423      -0.00278929
Cl       2.11178951       3.27871871      15.31994382       0.01532921      -0.00386835      -0.01285750
C        3.64818859       3.46129176      16.18449146       0.00888421       0.00640731      -0.00493589
H        3.42629444       3.79407943      17.19188322       0.00178339       0.00809302      -0.00744456
Cl       3.96153204      12.06025487       6.40129448       0.00061771       0.01538070       0.01851276
Cl       1.31710591      12.40368345       5.20905232       0.00688159      -0.00277659       0.00196695
Cl       1.60706155      11.10620819       7.80558054      -0.00325018       0.01052094       0.00889218
C        2.23890660      12.33910793       6.71836198      -0.00222226       0.00862088       0.00756226
H        2.14804279      13.30318124       7.20553558      -0.00957935       0.01037881       0.00246800
Cl       1.82848973       6.82275187      14.46873133       0.00009598       0.01134329       0.01296748
Cl      -0.90216968       5.84007346      14.76587755      -0.00008500       0.00970039       0.00257005
Cl      -0.41930436       8.59286190      13.90588353       0.00084954       0.00535950      -0.00884155
C        0.16687299       6.91876394      13.86913559       0.00323944       0.00629851       0.00325326
H        0.16510570       6.60320899      12.83238128       0.00938910       0.00123200       0.00499490
Cl      14.39712408      17.47781016       0.12613985       0.01285454       0.01948106       0.03640766
Cl      10.46051701      15.37286888       0.86101400      -0.01479745      -0.00015773       0.00056124
Cl      12.77014878      13.95399404       1.85524809       0.00006694       0.01915413      -0.00922678
C       11.87051809      15.32811286       1.71108547      -0.00852110       0.01269603      -0.01017761
H       12.23727799      16.22687329       2.18102199      -0.00898704       0.01679075      -0.01836935
Cl       3.12279806      15.56029291       5.24306821       0.01962881      -0.00003755      -0.00374837
Cl       3.83283682      15.15689184       2.42200347      -0.00189264      -0.00604939      -0.00794515
Cl       5.84172290      14.82553292       4.51262868       0.01044336      -0.01183373      -0.02127281
C        4.14200610      14.66098829       4.09987860       0.00737066      -0.00547994      -0.00935085
H        3.86248873      13.61890423       4.18819051       0.00392633      -0.00440204      -0.00644050
Cl      14.85678716       3.78581633       8.28629612       0.00102508      -0.00269252       0.00255423
Cl      14.34065112       6.11032322       6.60825602       0.00804169      -0.00238267       0.00163120
Cl      12.20408289       4.19563254       7.13489037       0.00427443       0.00104871      -0.00274605
C       13.64821397       4.98419174       7.77387457       0.00386489      -0.00119213      -0.00005963
H       13.35924277       5.54631261       8.65335413       0.00295697      -0.00071932      -0.00084135
Cl       7.36820288       0.06367835      12.82323366       0.00766158      -0.00924557       0.00401284
Cl       5.15475368       1.98221610      12.77775840       0.02204317       0.00640529       0.00416560
Cl       4.70404239      -0.78330588      12.00806963       0.00311238       0.01085064      -0.00010067
C        5.63907141       0.29625136      13.05213644       0.00975127       0.00269330       0.00221419
H        5.38158760       0.04396128      14.07531375       0.00660846       0.00328451       0.00141650
Cl      -0.15263518      10.65524157       2.36988745      -0.00210834       0.00528325       0.00167348
Cl       1.10421575       8.84839654       4.29514183      -0.00547997      -0.00624229      -0.00761598
Cl       1.05063243       8.15035623       1.46256935      -0.01397759       0.00428867      -0.00987217
C        1.14007747       9.46636338       2.64215573      -0.00653909      -0.00060282      -0.00525651
H        2.08542912       9.97126853       2.48686783      -0.00491092      -0.00398275      -0.00538642
Cl       3.31725934       5.94554745       3.98157184      -0.00053790      -0.00475210      -0.01115495
Cl       1.97084644       6.13157127       6.56867505      -0.00551534       0.00297907      -0.01453681
Cl       4.52578467       4.74498069       6.35566800      -0.01155402      -0.00808507      -0.00758427
C        3.53565894       6.06943908       5.73419581      -0.00429523      -0.00443175      -0.01083827
H        4.05780669       6.99876452       5.92812281      -0.00057375      -0.00678289      -0.01052421
Cl       5.39931188       7.98840862      11.84193451       0.00223076      -0.00438460      -0.01284486
Cl       3.39806161       9.84293952      10.78250054      -0.00638015      -0.00988185      -0.00117834
Cl       3.05639168       6.97312639      10.41670538      -0.00324120      -0.01179925       0.00465146
C        3.68826388       8.24103143      11.47459996      -0.00068748      -0.00844787      -0.00133290
H        3.14661531       8.18610339      12.41125819       0.00480860      -0.00810120       0.00177661
Cl      13.14049209       8.19750285       9.46732039      -0.00431219      -0.00371069      -0.00343941
Cl      15.42090348       6.62498353      10.40497081      -0.00779711      -0.00077125       0.00832997
Cl      15.84912171       9.13366257       8.98411125      -0.00465830      -0.00360712       0.00540593
C       14.78768249       8.26480128      10.08430078      -0.00704388      -0.00162530       0.00299709
H       14.76674276       8.78786156      11.03336441      -0.01116500      -0.00023662       0.00208041
Cl      -0.07052266      12.37758205      12.09326591       0.00540668       0.00703919       0.00391026
Cl       2.46107026      13.25568013      10.93205334       0.00496450       0.00329371       0.00145432
Cl      -0.02356143      14.55471663      10.14145054       0.00601771       0.00550949       0.00250810
C        0.84823755      13.75719913      11.45366449       0.00608178       0.00538384       0.00218710
H        0.96983107      14.47161512      12.25850905       0.00766011       0.00582427       0.00148508
Cl       7.02519636       7.14596255       5.22937846      -0.01354417      -0.00858137      -0.00157525
Cl       7.52350840       8.42583411       2.65841456      -0.00794543      -0.00555526       0.00150037
Cl       5.23136566       9.24379518       4.27551860      -0.00072572       0.00517811       0.00584519
C        6.90439380       8.64497473       4.29388875      -0.00473888      -0.00548529       0.00246552
H        7.50740916       9.39739202       4.78829445       0.00053115      -0.01061869       0.00358683
Cl       1.65427126       2.70319890       4.91968563      -0.01563525       0.00251158      -0.00552140
Cl       1.35262477       2.25351455       2.03459281      -0.00024261      -0.00132728      -0.00541386
Cl       4.01489449       2.33782317       3.27921100      -0.00768360      -0.01174231       0.00843390
C        2.36309221       1.88828907       3.57026198      -0.01138267      -0.00307332       0.00019744
H        2.28764643       0.81163546       3.68262720      -0.01762472      -0.00248003       0.00149522
Cl      13.42097266       1.41570097      10.96543439      -0.02710787      -0.00066370       0.00929686
Cl      11.99310841       3.92028110      11.39802594       0.00137571       0.01364073       0.01508890
Cl      13.73537024       2.83632006      13.48583423       0.00727593       0.00177117       0.00364232
C       13.47229987       2.99761575      11.74121640      -0.00517335       0.00005620       0.00549127
H       14.30113853       3.56439311      11.33102148      -0.00324047      -0.00866276      -0.00194574
Cl      10.62150481      10.93671629       2.18619802      -0.00132917       0.00518157      -0.00229862
Cl       8.25689041      11.99667707       3.53207033      -0.00825885      -0.00891702      -0.00444184
Cl      10.11429162      10.26458937       4.98381193       0.00082087       0.00311786      -0.00273940
C        9.94286563      11.49486882       3.72747952      -0.00563147       0.00143488      -0.00313725
H       10.50828079      12.36286237       4.04794749      -0.01135516       0.00469840      -0.00280280
Cl       7.33060022       5.74350616       9.31386614       0.00561464      -0.00195727      -0.00363973
Cl       5.11787530       3.90845549       9.80056366       0.00874692      -0.00671750      -0.01011032
Cl       7.86284507       3.05616613      10.31866207       0.00899547      -0.00011942      -0.00208937
C        6.73445108       4.41225499      10.31860854       0.00598104      -0.00316966      -0.00540020
H        6.64825539       4.78006693      11.33356595       0.00186098      -0.00329448      -0.00588706
Cl      11.85717663      12.62398672      14.99132939      -0.01860967       0.00187819      -0.00736588
Cl       9.01402870      13.00830711      14.47087360      -0.01401052       0.02167997      -0.01478909
Cl      10.94857326      15.00818304      13.58190850       0.00134963       0.01367688       0.00122502
C       10.64751722      13.29255820      13.85677142      -0.01092292       0.01452183      -0.00809732
H       10.75288030      12.77058130      12.91331497      -0.01133482       0.01885903      -0.01032820
Cl      13.03417787      11.24850380       7.12940383       0.00178814       0.00249413      -0.00756532
Cl      10.93722680      11.17243230       9.16179431       0.00718129      -0.00122249      -0.00144738
Cl      13.56816685      12.29818048       9.79060829       0.02051064      -0.03353699       0.00220835
C       12.33143549      12.06082455       8.54208473       0.01405775      -0.00777052       0.00376619
H       11.98997657      13.05484688       8.25953098       0.02176891      -0.00043035       0.01937394
Cl      11.43456669       5.70166758      16.24919645      -0.00069292       0.00563180       0.00083163
Cl      10.64894658       2.95414845      15.65525366       0.00857279       0.00207385       0.00706191
Cl       9.30973257       5.18045076      14.31173256       0.00325781      -0.00591829      -0.00010481
C       10.82794569       4.59004295      15.00497492       0.00414421       0.00070296       0.00309896
H       11.56183008       4.55152657      14.20879211       0.00501207       0.00088144       0.00412107
Cl      13.04063584      10.27218100      12.53854272      -0.01312046      -0.00084548       0.00033915
Cl      10.29632358       9.41461585      12.95396070      -0.01118466      -0.00300424       0.00536670
Cl      12.45952684       7.45121850      13.00663732      -0.00853737      -0.00031281       0.00172263
C       11.98532269       9.11725401      13.36947127      -0.01033164      -0.00111345       0.00255847
H       12.10298941       9.27096093      14.43480768      -0.00886155      -0.00094176       0.00226632
Cl      13.36832245       0.62134897       7.40823600      -0.00693339      -0.00351370       0.01470190
Cl      14.62534239       1.81993190       5.06861886      -0.02442195      -0.00391909       0.00484373
Cl      16.26682679       0.51394150       7.12059085      -0.01036194      -0.00967506      -0.01021421
C       14.70179109       0.52247416       6.27025355      -0.01744349      -0.00471358       0.00278404
H       14.62846599      -0.41740251       5.73673143      -0.02363608      -0.00398937       0.00285266
Cl      15.91469635       5.30845713       3.28004683       0.00287771      -0.00519396       0.00328313
Cl      13.02653069       4.92734621       3.12202820       0.00300217      -0.00735289       0.01029736
Cl      14.13627601       7.62750764       3.23769544       0.00173611      -0.00683543      -0.00294501
C       14.38267096       5.97049041       2.67455151       0.00166997      -0.00881455       0.00353847
H       14.44471831       5.99959685       1.59369620      -0.00057894      -0.01344908       0.00344616
Cl       2.20131968      11.28318867      16.18928972       0.00419626       0.00939485       0.00032446
Cl       4.19677352      11.40545882      14.05826970       0.00636292      -0.00783220       0.00156614
Cl       4.20979655       9.17187801      15.93108267       0.00397885       0.00915262       0.02285457
C        3.20324910      10.35209752      15.06697082       0.00560103       0.00059177       0.00952935
H        2.52994299       9.80254281      14.41917303       0.00712618      -0.00517260       0.01301169
Cl       6.26227247       9.11836596       8.36696921       0.00539869      -0.01208591      -0.00012965
Cl       7.36728388      11.14354469      10.16696086      -0.00302455      -0.00374248      -0.00400782
Cl       7.29246672      11.61473905       7.29061682      -0.00666988      -0.00824438      -0.00363049
C        6.48723567      10.84728144       8.67779587      -0.00259653      -0.01100701      -0.00292012
H        5.50480736      11.29321423       8.76679210      -0.00410560      -0.01465717      -0.00292900
Cl       0.74242183       3.62468298      11.66236763      -0.00948447      -0.00025094      -0.01295490
Cl       1.91565385       1.40905538      10.16644756      -0.00052935       0.00336874      -0.00965935
Cl       0.83853362       0.95555669      12.83710906      -0.00171924       0.00164011      -0.01011163
C        0.68177515       1.87272398      11.33487341      -0.00322188      -0.00039199      -0.01139004
H       -0.29117098       1.65244912      10.91001142      -0.00191113      -0.00416510      -0.01203814
Cl       6.90826811      -0.82404579       9.03538782       0.01385391       0.01244742       0.01487439
Cl       5.66784997       1.11260779       7.22042207       0.01396797      -0.00625575      -0.00419903
Cl       4.02569421      -0.87319501       8.59823521       0.01658124      -0.00403285       0.00124846
C        5.49277529       0.14234756       8.69684932       0.01129134       0.00345550       0.00165638
H        5.33413195       0.82894988       9.52080133       0.00303529       0.00796145      -0.00399911
Cl       9.23612829      14.27810644       6.19918169      -0.01671851       0.01970974      -0.02645781
Cl      12.06081931      14.31568770       5.48625482      -0.01283261       0.00605148      -0.01088263
Cl      10.39076691      16.65127139       4.95112100       0.00792310       0.02295618       0.00349003
C       10.67130954      15.28770435       6.04667712      -0.00841425       0.01041943      -0.00856578
H       10.92254434      15.64918937       7.05125519      -0.01080163      -0.00124156      -0.00443637
