148
Lattice="11.569060068413414 0.0 0.0 0.0 11.569060068413414 0.0 0.0 0.0 11.569060068413414" Properties=species:S:1:pos:R:3:forces:R:3 energy=-465408.46875 stress="0.001988460309803486 -0.0001985769995371811 -0.00010593225306365639 -0.0001985769995371811 0.002013798337429762 0.0006645894609391689 -0.00010593225306365639 0.0006645894609391689 0.0023704299237579107" pbc="T T T"
Yb      10.43979692      11.41041195       2.05580677      -0.00461800       0.01662037      -0.00707304
O        9.10431928       9.46718831       2.69097345      -0.00389509       0.00712150       0.00968814
O        9.81373723      10.85279421       4.27184801      -0.00341845      -0.00003123       0.00826091
O        8.25814978       9.29687133       4.75989192      -0.00092649      -0.01474476       0.00490820
C        9.03663181       9.84150524       3.94797348       0.00019675      -0.00379276      -0.00562704
H        7.75435939       8.55058860       2.32621132       0.03172773       0.00984162       0.00112130
O        8.67138742      10.03870105      -0.24266472       0.02153429       0.00470614       0.02340579
O        6.59700200      10.57968756       0.41672865       0.04074275       0.01995167      -0.00816452
O        8.36834604      11.86637150       0.96075088       0.00986245       0.01993489       0.00066078
C        7.80064656      10.88152260       0.42297798      -0.03777924      -0.01155889      -0.00302935
H        8.16542923       9.27313725      -0.56405114       0.02150935      -0.00374803       0.02560695
O        4.56914290      11.17038785       2.07554423      -0.00429249       0.00977272       0.00885457
O        2.94886873      10.33870217       3.31907520      -0.00388110       0.00220689       0.00244963
O        4.47101716       8.94878260       2.44718990      -0.00321275       0.01183128       0.00234435
C        3.97711729      10.09197860       2.63906384       0.00366266      -0.00027937       0.00089377
H        5.33850488      10.90340851       1.51531482      -0.00009169       0.00152785       0.00266190
N        7.97271540       3.71929795       5.70356375      -0.00892603      -0.00882870       0.01312220
H        7.24123718       4.42157554       5.71585004      -0.00189832      -0.00116964      -0.00415770
H        7.62566689       2.94823009       5.12495620       0.00546909      -0.00342482      -0.00331942
H        8.74187948       4.14586460       5.19608478       0.00848681      -0.00965813       0.03921007
N        2.31787473       6.64812899       1.65331395       0.00113145       0.00466586      -0.01237278
H        1.31503889       6.76794272       1.76996064       0.00456876       0.02632873      -0.00652640
H        2.78729150       7.48747601       1.98773951       0.02758197      -0.01037930      -0.00584719
H        2.59774722       5.88878804       2.26330214      -0.01555880      -0.00884052      -0.02318623
N        3.40284104       3.71427349       4.08452534      -0.00506601       0.00274865      -0.01239381
H        3.50354889       3.66275603       3.07362886       0.00130636       0.01502598      -0.01281127
H        2.66516298       4.37439136       4.30874998       0.00282608       0.00889936      -0.00542904
H        3.07128996       2.80785543       4.41381305      -0.01359540       0.00166416      -0.02389526
N       10.62056343       6.95529217       1.22995814       0.00456396      -0.00053639       0.01139924
H       10.97275262       7.42913332       0.39828786      -0.00503646       0.00055349       0.00692283
H        9.85994810       7.52268217       1.59325864       0.00443051      -0.00945561       0.02347243
H       10.26015034       6.06165901       0.90978287       0.00646355      -0.00460185       0.02037309
N        3.24395964       5.51453089       8.76177580      -0.01409766       0.01727504       0.01511002
H        2.79865012       6.31906320       9.18953741      -0.01791920       0.02270174       0.00110415
H        4.04313874       5.28732680       9.34371132      -0.00947824       0.02951900       0.01407077
H        2.59131567       4.73495049       8.86368256      -0.01149458       0.01576862       0.01942535
N        5.60151884      10.52210797       5.74511748      -0.01573640      -0.00397229       0.02180132
H        4.82893913      10.28149189       5.13305296      -0.01401730      -0.01157521       0.02231734
H        5.43248751      10.08510417       6.64436546      -0.02017662       0.00606199       0.02758609
H        6.44067971      10.08222840       5.36287824      -0.01361699      -0.00196048       0.02920298
N       11.06490771       5.43661969       8.36614120      -0.00433484      -0.00693679       0.01076670
H       10.47384112       5.10526863       9.12063097      -0.01669398       0.01800187       0.01205001
H       11.79364655       4.74143638       8.23965087      -0.01923081      -0.02514099       0.02116449
H       10.49807084       5.46114665       7.52297443      -0.00252963       0.00229473       0.00965503
N        1.31534913       9.63834574       7.41799315      -0.00447661       0.00131220       0.00236714
H        0.61748339       9.60850093       6.68178442      -0.00062864      -0.00304643      -0.00093533
H        2.15153466       9.21832013       7.02580305      -0.00527337      -0.01519710       0.01793168
H        1.53640934      10.61943026       7.54520259       0.00233450       0.00197046      -0.01277625
N        5.46672350       6.21401529       3.77319887       0.00279592      -0.00230626      -0.00172800
H        4.95401528       5.34863347       3.94487790       0.00248967      -0.00413186      -0.00976617
H        4.78799797       6.93179842       3.52550935       0.00902037       0.00466452      -0.00138666
H        5.84702050       6.48963317       4.67449335      -0.00014000      -0.00175362      -0.00159571
N        1.15185037       0.98420515       2.52927817      -0.00010818       0.00336996       0.00228123
H        1.20440543       1.53459176       3.38348810       0.00554368       0.00174726       0.00432631
H        1.46529797       1.60891359       1.79307903      -0.00828867       0.00743858       0.00224828
H        1.90147299       0.29120848       2.65004729      -0.00284912      -0.00031613       0.00024991
N        9.78206855       1.98179969       9.25238352       0.01014677      -0.00195388      -0.00931358
H        9.64815594       2.89905805       8.83721812       0.00732151       0.01043222       0.01728226
H        8.84669560       1.64200946       9.45967040       0.01253179      -0.00305569      -0.00300385
H       10.11107278       1.39956169       8.48412900      -0.00750780       0.01414707      -0.02985688
N        6.93293662       7.99142016       1.95869821       0.02066024       0.01695360       0.01184610
H        7.10718542       7.74582665       0.98326693      -0.00839558       0.00749099       0.01510471
H        6.04489177       8.55076667       2.02813542      -0.00013918      -0.02471554      -0.01568528
H        6.75755143       7.14784275       2.52642166      -0.02161206       0.01264733      -0.00576904
N        4.35554879       3.01101257       7.05830383       0.00141770      -0.01670775       0.00908441
H        4.11150372       3.99197847       7.15425005      -0.01191722      -0.02219096       0.03201558
H        4.66540726       2.90991691       6.09664910      -0.01071377       0.00790048       0.00221913
H        5.15903276       2.85312289       7.65546773       0.01149108      -0.02046210      -0.00473660
N        6.34846019       9.43828124       8.97605181       0.00045027      -0.00434092      -0.00532293
H        5.96916628       9.86665547       9.81636003       0.00394140       0.00530188      -0.00699299
H        7.07076208      10.07306717       8.65070145      -0.00508147      -0.00502881      -0.01953466
H        6.82642857       8.60322185       9.30062265       0.00922098       0.00543023       0.00625811
N        8.90263190       7.01372396       6.51255841       0.00549702      -0.01957950      -0.00696103
H        9.51547675       7.39852116       7.22256548       0.00338750      -0.01482158      -0.00711128
H        8.03518943       6.77217118       6.98102859       0.00584355      -0.01937401      -0.00327461
H        8.67860116       7.77833628       5.86972368       0.00665432      -0.02422196      -0.00975931
N       10.85699464       4.02984576      -0.06835257      -0.00347567      -0.01098779       0.00976580
H       11.77147406       4.34145502      -0.37754742      -0.00996672       0.00149474       0.00128779
H       10.61182020       3.22226478      -0.63833693       0.01993035      -0.01742101       0.00922166
H       10.96949759       3.70709927       0.88555928       0.01759726      -0.01724842       0.00505923
N        6.77139158       5.05885225       8.65059456       0.02778895       0.00258502      -0.00376286
H        6.33426164       4.37669081       9.26728922       0.01765721       0.01171120      -0.00157771
H        7.32607285       4.53021075       7.98265095       0.02060361      -0.01412153       0.00276846
H        6.05200939       5.52263429       8.10234179       0.03195521       0.00028641      -0.01290545
N        8.13367326       6.97736430      10.61048152       0.00615194       0.01814193      -0.00099166
H        9.03159824       7.25676738      10.22484674       0.00422295       0.02975109       0.00212977
H        7.66027633       6.43295195       9.87510810       0.01180279       0.01653053      -0.00409868
H        8.38251043       6.28292750      11.30835860       0.01260072       0.02316821       0.00106488
N       10.89493794       1.63888946       6.22496303      -0.01272979       0.00676300      -0.01332802
H       11.53612008       2.26171775       5.74579073       0.00518543       0.00337806       0.00646240
H       10.03734779       2.16523804       6.36619015      -0.01156596       0.01424134      -0.04388811
H       10.65440639       0.89591700       5.57130890      -0.00696405       0.00862695      -0.02017677
N        9.71116490       2.23635764       2.86591996      -0.00061667       0.00676948      -0.01427597
H        9.03782943       2.60447889       2.19955963       0.01775254      -0.00558019      -0.03872034
H       10.26059749       3.03676793       3.18452755      -0.01199685       0.00834279       0.00604922
H        9.13110153       1.98375967       3.66653543      -0.02496789       0.00595022      -0.03132807
N        0.67740240       7.87880947      10.21058681       0.00368501      -0.00225884       0.00774031
H        1.06406427       8.53130150       9.53228223      -0.00293111       0.00438609       0.01002499
H        0.29459445       7.11722076       9.64831613       0.02097117      -0.00854493       0.00471516
H        1.44108668       7.49020312      10.75597871       0.00506377       0.00972805       0.01465574
N        5.16373365       7.30252438       6.88935308       0.00465543       0.00327999       0.01289438
H        4.35484871       6.80514797       7.25109158       0.00188019       0.00920108       0.01461322
H        4.86682869       7.81491294       6.06718871       0.00963724      -0.01269042       0.00100978
H        5.42528053       8.00496289       7.58090908       0.00648882       0.01463741       0.00219466
N        1.75779402       2.81907858       8.99235321      -0.00435475      -0.01279411      -0.02307782
H        2.40535203       2.58839927       8.23916315       0.02177770      -0.01227652      -0.00265766
H        0.90695545       2.28534750       8.85879629      -0.00515408      -0.00865627      -0.03649135
H        2.18922454       2.50316509       9.85267739      -0.02591006       0.00048599      -0.00814832
N        2.42762450       0.95803000       5.40852085      -0.01871565       0.00679840      -0.00407442
H        1.59437707       0.63325051       5.88226032      -0.00645603      -0.00467034       0.00980217
H        2.79593670       0.18182218       4.86226637      -0.01189156       0.00775402      -0.00008881
H        3.10145251       1.21078463       6.12413516      -0.01281543       0.01665519      -0.01188353
N        7.12176167      12.66780783       4.14903943       0.00104983      -0.00203462      -0.00239584
H        6.77023546      12.61945969       3.19774141       0.02651138      -0.02625347      -0.01047347
H        6.38365906      12.29073948       4.74275934      -0.00951118       0.00521901      -0.01232698
H        7.85552391      11.96546567       4.21451594       0.00206535       0.00010974       0.02498721
N        7.13762008       1.18112546       7.77108358      -0.01277115       0.00314424      -0.01682196
H        7.90186257       0.50232444       7.72009311      -0.00962882       0.00514859      -0.00723236
H        7.46995152       1.98677290       7.24270337      -0.01800791      -0.00075465      -0.02504374
H        6.39681180       0.76971746       7.20622090      -0.01340365      -0.01062652      -0.00651250
N       -0.37094926       0.02565541      11.16667523       0.01978087      -0.00010090      -0.00701028
H       -0.84435297       0.76410261      10.63988825       0.03105923       0.01407157      -0.00005580
H       -0.72244891      -0.85125631      10.79019125       0.00129541       0.00375134       0.00306985
H        0.61118593       0.07624750      10.92395523       0.02813400      -0.01875084       0.01649813
N        6.34367894       2.52217084      10.64798017      -0.01049160      -0.01701683      -0.01496980
H        5.87984133       1.85000433      11.25160007      -0.00565391      -0.02487742      -0.02058044
H        7.22989002       2.70769896      11.10674578      -0.00616740      -0.01937439      -0.02163362
H        6.56640244       2.01527493       9.78709076      -0.01615422      -0.01170781      -0.02045636
N       10.82082428       5.21529360       4.03311532      -0.00799535      -0.00765680       0.00618850
H       10.95134489       5.77260206       3.19124337      -0.01189091      -0.01063335       0.00369444
H       11.71031735       5.24195400       4.52900183      -0.00774962      -0.00162794       0.00735084
H       10.18325133       5.75219024       4.61914423      -0.01302024      -0.00765423       0.00028020
N        1.74560364       6.13324272       5.86201715       0.00589828       0.00050944      -0.00425757
H        1.04307842       6.65854521       6.37151869      -0.01469800      -0.01895750      -0.01219386
H        2.16876899       6.77096198       5.19677847       0.01175320       0.02288210       0.02094913
H        2.45704047       5.88708637       6.54453915      -0.00410116      -0.00246557       0.00558237
N        4.50206709       4.40090407       1.07467715       0.00057452       0.00207081      -0.00901993
H        5.22885031       4.74983644       1.69012132      -0.00277449       0.01927451      -0.01381291
H        3.96663341       5.20817039       0.77136836      -0.00260308      -0.00710020      -0.02883966
H        4.96184683       3.99451457       0.26506051       0.00634339      -0.01610538       0.00369048
N        9.40662448      10.50269333       7.36819778      -0.01977541      -0.01155737       0.00478381
H       10.26699720      10.27902330       7.85513528      -0.01919009       0.01374843       0.01480681
H        9.64614769      10.72734223       6.40160499      -0.01728554      -0.00593733       0.00495320
H        8.88768611       9.63607384       7.27864262       0.00537127      -0.02397060       0.00031389
N        0.54429852       9.49365181       1.93501536       0.00276542       0.00780320       0.00218564
H        0.07939142       8.67494322       2.31637218       0.01661904       0.00308841       0.01203361
H        1.39755688       9.65355804       2.48166300       0.00041090       0.01062562       0.00287861
H        0.83476922       9.21777241       1.00164914       0.00818709      -0.00168990       0.00592467
