148
Lattice="13.106208535757496 0.0 0.0 0.0 13.106208535757496 0.0 0.0 0.0 13.106208535757496" Properties=species:S:1:pos:R:3:forces:R:3 energy=-465679.75 stress="8.502010314259678e-05 0.00013536925689550117 -0.0003797027311520651 0.00013536925689550117 -0.0009183186921291053 0.0005229820962995291 -0.0003797027311520651 0.0005229820962995291 -0.00016251062334049493" pbc="T T T"
Yb      14.35582619      13.16120136       0.11172841       0.00174712       0.01119717      -0.00176192
O       12.29024672      13.47134311      12.41562745       0.00263441       0.01601480      -0.01526499
O       10.30904833      12.97537234      13.34664743       0.03168124      -0.02059549       0.03115463
C       11.00301144      13.52229247      12.51191752       0.01293910       0.00705051       0.00679803
H       10.53549020      14.14792834      11.72257812      -0.01728871       0.00325012       0.03837997
O        1.85580517      12.68273274       2.19753398       0.01120019       0.01172332      -0.00840324
O        2.99054788      12.36074858       4.09957933      -0.04090948       0.00298448       0.01408172
C        2.93519559      12.50513893       2.89583848      -0.00694177       0.00277957       0.01878685
H        3.86509056      12.49377335       2.28632450       0.00584280      -0.00447737       0.03601655
O        3.21727395      12.96877389      12.15213351      -0.00354123       0.01374218      -0.01688540
O        4.87175075      11.61517518      12.82463595      -0.02096575       0.02128124       0.01284188
C        4.43992094      12.56115569      12.19216139      -0.00406951      -0.00190353       0.00454211
H        5.13313924      13.17569945      11.57706943       0.00247419      -0.00906336      -0.00622043
O       10.19580182       9.89337429       9.52491404       0.00298682       0.00176087       0.00370762
C       11.60271666       9.96104167       9.39600421       0.00304633       0.00283253       0.00427825
C        9.59536987      11.17753452       9.46990842       0.00231332       0.00146272       0.00571322
C       12.16147087       8.55894060       9.42575755       0.00380437       0.00311792       0.00368118
C        8.10796191      11.03608053       9.67671898       0.00221962      -0.00034599       0.00336818
H       11.86598292      10.46491754       8.45252352       0.00304781       0.00342886       0.00484782
H       12.02083320      10.56685162      10.21396279       0.00225973       0.00250819       0.00483462
H       10.03821519      11.82123271      10.24318789       0.00109378       0.00010878       0.00746250
H        9.81441675      11.63871669       8.49366349       0.00302844       0.00376812       0.00705010
H       13.25102784       8.58136154       9.38525466       0.00365332       0.00369713       0.00293330
H       11.85847978       8.04875126      10.34042981       0.00462770       0.00265614       0.00353813
H       11.80066556       7.97976818       8.57494628       0.00356527       0.00320251       0.00359930
H        7.62523453      12.01020568       9.58311661       0.00133588      -0.00060159       0.00558062
H        7.68728252      10.36148416       8.93113911       0.00388759       0.00148362       0.00100711
H        7.88960538      10.64698548      10.67078013       0.00139247      -0.00372794       0.00188512
O        8.12321496       8.44632047       7.29054607      -0.00006256       0.00057372       0.00089999
C        8.50910936       7.30343926       8.03629847       0.00122291       0.00017393      -0.00032929
C        9.13071115       8.85063069       6.38371561      -0.00043520       0.00288147       0.00170815
C        7.39395219       6.93296300       8.98136953       0.00179815      -0.00199039      -0.00073105
C        8.68959798      10.11529108       5.68742825      -0.00208113       0.00329751       0.00325842
H        8.72830989       6.47193707       7.34925237       0.00201168       0.00115204      -0.00130954
H        9.42371649       7.53059156       8.59740601       0.00113124       0.00054950      -0.00036255
H       10.06934054       9.01917407       6.93001391      -0.00081748       0.00346259       0.00209197
H        9.31229436       8.04674440       5.65301757       0.00066833       0.00425369       0.00072449
H        7.67850833       6.05220082       9.55968529       0.00268686      -0.00234039      -0.00166553
H        7.19351163       7.75466200       9.66954611       0.00119356      -0.00285435       0.00024258
H        6.47724422       6.70880333       8.43351469       0.00202486      -0.00216434      -0.00067623
H        9.45415124      10.44179521       4.98141522      -0.00245735       0.00514111       0.00376661
H        7.76032507       9.95663223       5.13977899      -0.00175019       0.00263622       0.00322320
H        8.52536888      10.91232684       6.41311223      -0.00295454       0.00214411       0.00421105
O        3.66177118       8.60325310       2.57586708      -0.00568372      -0.00372922       0.00170544
C        2.48625868       9.10318076       3.18112301      -0.00359941      -0.00513598       0.00654402
C        4.53163206       9.66600902       2.21176223      -0.00459075      -0.00359763       0.00489426
C        1.56852046       7.95326506       3.51595933      -0.00310242      -0.00611019       0.00419849
C        5.82156959       9.11643154       1.65873871      -0.00898451      -0.00380728      -0.00464508
H        2.74190618       9.68090800       4.08036723      -0.00093199      -0.00903320       0.00825638
H        1.98732297       9.80967695       2.50049529      -0.00501201      -0.00224641       0.01076400
H        4.05175658      10.29586477       1.45495247      -0.00623310       0.00314218       0.01197559
H        4.72580056      10.29648895       3.09232912       0.00144683      -0.01049331       0.00847071
H        0.69745947       8.31941192       4.06095506      -0.00186644      -0.00821597       0.00748509
H        1.22309123       7.45729236       2.60877718      -0.00507000      -0.00231401       0.00291796
H        2.08766124       7.21934388       4.13275339      -0.00184368      -0.00870383      -0.00002623
H        6.45390634       9.94341317       1.33518662      -0.00763538      -0.00387974      -0.00216329
H        6.34535568       8.52862808       2.41198430      -0.00766065      -0.01078980      -0.01121849
H        5.63138220       8.48258110       0.79220764      -0.01538465       0.00275050      -0.00781818
O       11.12142452       2.53000299       2.64554181      -0.00017473      -0.00659962      -0.00069660
C       12.25304385       1.72343468       2.88070353       0.00004328      -0.00722903      -0.00279204
C       11.45962904       3.82131038       2.17812797       0.00001872      -0.00565493       0.00127013
C       11.81472031       0.36729239       3.36813911       0.00053030      -0.00772893      -0.00391449
C       10.18637060       4.58720034       1.91765641       0.00003004      -0.00670977      -0.00177742
H       12.82881023       1.62968364       1.93264429      -0.00146638      -0.00611025      -0.00378668
H       12.92635759       2.21088839       3.60139655       0.00076064      -0.00806227      -0.00321284
H       12.08547144       4.33691384       2.92310332      -0.00267261      -0.00565149       0.00341308
H       12.05808375       3.73529138       1.25641870       0.00251213      -0.00419605       0.00306484
H       12.69122824      -0.25614206       3.54523554       0.00089215      -0.00871761      -0.00624951
H       11.25960271       0.47065771       4.30174072       0.00224736      -0.00893503      -0.00298485
H       11.17295336      -0.10641455       2.62452845      -0.00052430      -0.00585014      -0.00352421
H       10.41227722       5.59932711       1.57951898       0.00004208      -0.00613470      -0.00026471
H        9.59544737       4.08614017       1.15115878       0.00293458      -0.00643846      -0.00412408
H        9.58241037       4.64260973       2.82311652      -0.00284095      -0.00814972      -0.00372013
O        7.77249365       2.60906887       4.09175107       0.00313820      -0.00368842      -0.00178084
C        7.76227007       1.40580518       3.33214905       0.00312567      -0.00331630      -0.00151694
C        8.43412618       2.45265094       5.33032718       0.00146393      -0.00437075      -0.00091887
C        7.01871690       1.64934522       2.04313911       0.00272188      -0.00393410      -0.00128984
C        8.36292765       3.75709872       6.08805990       0.00325826      -0.00355715      -0.00240046
H        8.79330326       1.09373986       3.12823385       0.00235760      -0.00519542      -0.00114504
H        7.27182425       0.61352378       3.91796740       0.00799254      -0.00270936       0.00036818
H        7.95187914       1.64661690       5.90638052      -0.00070861      -0.00290617      -0.00079325
H        9.47892994       2.15725448       5.15657616       0.00091398      -0.00682691       0.00013366
H        7.00141786       0.73811555       1.44511146       0.00013214      -0.00437583      -0.00048473
H        5.99286483       1.96352322       2.24378851       0.00330952      -0.00131119      -0.00226992
H        7.51093254       2.43042260       1.46412725       0.00442079      -0.00559935      -0.00197489
H        8.84046149       3.66926159       7.06535773       0.00247251      -0.00310025      -0.00205365
H        8.86319950       4.55040739       5.53106528       0.00489427      -0.00521471      -0.00320964
H        7.32332875       4.05303270       6.23870957       0.00369766      -0.00175528      -0.00343590
O        3.06704966       4.18735539      11.03223279      -0.00101915       0.01259252      -0.00724953
C        4.38165942       4.71816126      11.07216163      -0.00083703       0.01066107      -0.00480026
C        3.06688138       2.77780669      10.95914751      -0.00363165       0.01257449      -0.01430283
C        4.29261724       6.22146025      11.12981964       0.00174672       0.01052356       0.00105814
C        1.63564748       2.30270249      11.05560568      -0.00317231       0.01424684      -0.00752500
H        4.91266754       4.32049238      11.95115009      -0.00149436       0.00735459      -0.00618583
H        4.93905249       4.38986305      10.18258811      -0.00070889       0.01335375      -0.00550014
H        3.51842467       2.44386293      10.01364770      -0.00894320       0.01839156      -0.01895458
H        3.67615294       2.35295935      11.76835733      -0.00218144       0.01040491      -0.01646113
H        5.29032974       6.65716039      11.17480122       0.00242655       0.00868406       0.00460736
H        3.78581014       6.60515247      10.24415036       0.00426143       0.01545088       0.00157501
H        3.73588092       6.54022505      12.01099577       0.00063026       0.00874803       0.00130734
H        1.56830451       1.24676226      10.78972826      -0.00626630       0.01543187      -0.00710726
H        1.23038372       2.48403928      12.06386668       0.00058774       0.01269579      -0.00635437
H        0.98831282       2.85191264      10.37067816      -0.00477093       0.01663521      -0.00237052
O        3.37837540       3.68055618       3.11189886       0.00267220       0.00040904      -0.00211893
C        3.41982768       2.49369478       3.88922050       0.00665489       0.00128677      -0.00221014
C        2.50847132       3.57139804       2.01262594       0.00228287      -0.00131962      -0.00119799
C        4.30973424       2.71312450       5.08544395       0.00328061       0.00641730      -0.00104946
C        2.57369649       4.84638303       1.20970983      -0.00053586      -0.00119984      -0.00119007
H        2.40359733       2.20802539       4.19605604       0.00931829      -0.00467537      -0.00235201
H        3.80920258       1.67439387       3.27349853       0.01069716       0.00319541      -0.00252914
H        2.80864723       2.70150479       1.38793346       0.00476734      -0.00095254      -0.00097790
H        1.48445719       3.37524579       2.36667212       0.00232393      -0.00338804      -0.00117308
H        4.33487900       1.79944232       5.68033368       0.00504846       0.00904638       0.00233430
H        5.32452263       2.95636378       4.76832175       0.00245020       0.00910719      -0.00173562
H        3.93187306       3.53119201       5.69915278      -0.00164253       0.00214519       0.00170671
H        1.85086725       4.83202371       0.39389111      -0.00039360      -0.00408825      -0.00127010
H        2.38069816       5.70139184       1.85464872      -0.00332263      -0.00098883      -0.00195591
H        3.56423373       4.97558640       0.77942015      -0.00066489       0.00089820      -0.00091730
O        5.71763476       6.38201408       4.01164019       0.00337404      -0.00333007      -0.00176576
C        6.78838266       5.87725603       3.23898712       0.00334704      -0.00363502      -0.00149220
C        6.16198905       7.08645418       5.14987503       0.00321740      -0.00355756      -0.00169039
C        6.23143197       5.34126904       1.94390417       0.00369951      -0.00382236      -0.00151461
C        4.97178090       7.71111642       5.83468459       0.00274885      -0.00686213       0.00020421
H        7.51304725       6.68524115       3.04342867       0.00366408      -0.00390506      -0.00134054
H        7.31287755       5.08365495       3.78523495       0.00295827      -0.00366521      -0.00116122
H        6.70022407       6.41223107       5.83356763       0.00541037      -0.00309631      -0.00301710
H        6.87753085       7.86391203       4.84548200       0.00124127      -0.00174257      -0.00176953
H        7.04020447       4.97363270       1.31088835       0.00366834      -0.00567690      -0.00034471
H        5.53741420       4.52735932       2.14853986       0.00222819      -0.00245933      -0.00140360
H        5.69442245       6.12925578       1.41568523       0.00545591      -0.00358640      -0.00286632
H        5.30327978       8.28784211       6.69816984       0.00245986      -0.00599197      -0.00028412
H        4.45198666       8.37088999       5.14091132      -0.00014213      -0.00845563       0.00093114
H        4.27032052       6.94357253       6.16448371       0.00531681      -0.00875877       0.00130065
O        9.44647624       3.37285528       9.59180344      -0.00406924       0.00019538      -0.00433433
C       10.85196045       3.30152916       9.42594349      -0.00375816       0.00005168      -0.00377702
C        8.81252401       2.11479652       9.44009948      -0.00327790      -0.00006115      -0.00400019
C       11.42681332       4.68127814       9.63413845      -0.00434788       0.00019169      -0.00299501
C        7.32997657       2.30045465       9.64743942      -0.00347966      -0.00033271      -0.00486512
H       11.27666890       2.58714608      10.14674167      -0.00425494      -0.00037742      -0.00429013
H       11.08870770       2.92569566       8.41873064      -0.00373657       0.00092791      -0.00402671
H        9.02334728       1.70829235       8.43872200      -0.00290309      -0.00022312      -0.00387022
H        9.21854964       1.40025304      10.16978845      -0.00294812       0.00040311      -0.00374269
H       12.51131636       4.66991017       9.51835404      -0.00456029       0.00107304      -0.00532072
H       11.01117517       5.38171609       8.90954072      -0.00616063       0.00075723      -0.00127079
H       11.18999633       5.04454561      10.63459941      -0.00239052      -0.00128447      -0.00216860
H        6.80802123       1.34934536       9.53839818      -0.00376896      -0.00007974      -0.00627730
H        7.13318046       2.68759300      10.64770787      -0.00452478      -0.00071080      -0.00508943
H        6.92722025       3.00301727       8.91695334      -0.00264560       0.00031397      -0.00473236
