148
Lattice="11.39002283616024 0.0 0.0 0.0 11.39002283616024 0.0 0.0 0.0 11.39002283616024" Properties=species:S:1:pos:R:3:forces:R:3 energy=-501092.28125 stress="0.0017043596599251032 -0.0012745038256980479 0.0005781298968940973 -0.0012745038256980479 0.000619324913714081 -0.000585631700232625 0.0005781298968940973 -0.000585631700232625 0.0030261301435530186" pbc="T T T"
Yb      10.59918570      11.46389520       0.74155379      -0.00381407       0.00353540       0.00075751
F        1.07011818      10.47704869       1.36816335       0.00187747       0.01762071       0.00614797
F       10.43554269      11.00176820       7.78000326       0.00283660       0.00301850      -0.00506493
F        6.87659966      11.20591014       1.95972514      -0.00486050      -0.00596346       0.00279973
O        4.00244124       4.34795644       9.03619766       0.00797901      -0.00846130      -0.00474386
H        3.60086696       3.60199294       9.51419645       0.00833219      -0.00432880      -0.00828309
H        4.02593706       4.12474988       8.09073691       0.00905414      -0.00809769      -0.00939852
O        7.61720456       7.64251391       8.83538232      -0.00354804      -0.00644445       0.00099007
H        7.12228072       7.47990266       9.66439461      -0.00365495      -0.00688225       0.00084910
H        7.70409536       8.61107791       8.80122896      -0.00004197      -0.00678343       0.00336096
O        8.72671590       6.88901442       6.34426740      -0.00279719      -0.00644996       0.00144564
H        8.12099912       7.01638804       7.08815142      -0.00381100      -0.00601805       0.00311045
H        9.51543746       7.42325540       6.56166586      -0.00652848      -0.00280525      -0.00275988
O       10.71135267       6.89765955       0.18705293       0.00312272       0.01305355       0.00027858
H        9.99459864       6.87419256       0.86914557       0.00640954       0.00287941       0.00410252
H       11.50761585       6.54165724       0.62011001       0.01268802       0.03189894      -0.00139226
O        9.11317537       3.07840689      10.26251806       0.00200267      -0.00276124       0.00621122
H        8.79241904       3.97719204      10.07633129       0.00110001      -0.00318293       0.00525014
H        8.91628983       2.55018528       9.45916289       0.00298694      -0.00383109       0.00627506
O        9.50956486       5.72835639       9.38791017       0.00091258      -0.00145611       0.00476535
H        8.89356204       6.44719852       9.14167338      -0.00147027      -0.00251658       0.00384013
H        9.98076278       6.05287919      10.18168721       0.00262176       0.00188884       0.00152838
O       10.49980167       0.40141752       5.31704706       0.00033662       0.00435039      -0.00423804
H       10.40408030      -0.00390129       6.21506731       0.00078265       0.00443905      -0.00464295
H        9.88755541      -0.01832450       4.69750973      -0.00024489       0.00403582      -0.00475213
O        8.42522651       3.20911832       2.43817016      -0.00838931      -0.00099846      -0.00087987
H        8.50478520       3.95121697       3.05982668      -0.00912307       0.00087310      -0.00303286
H        7.61124649       2.74832259       2.71297363      -0.00754670      -0.00211255       0.00130902
O        1.09452144       7.76160115       8.94775410      -0.00472170       0.00396660      -0.01455051
H        0.64404076       7.36314012       9.69854744      -0.00725488       0.00562080      -0.00286103
H        0.40413658       7.92899809       8.26638832      -0.00569391       0.00178937      -0.00607119
O        3.17943243       7.04604154       7.18916588      -0.02658358      -0.01137331       0.03454896
H        3.61631718       6.18948796       7.19915547      -0.00414492      -0.01054665       0.00500589
H        2.57794151       7.04971162       7.95338094       0.01896831      -0.00287610      -0.03137055
O       -0.01896728       0.64292838       9.97259473      -0.00315467      -0.00042853       0.00037946
H        0.25475013       1.56073159       9.74178392      -0.00130922      -0.00036822       0.00017236
H       -0.20848711       0.16374207       9.12820387       0.00189212      -0.00121409       0.00033725
O        1.77047980       0.37938254       4.55477118      -0.00100526      -0.00050974      -0.00883998
H        0.83679470       0.18635187       4.77465988      -0.00066678       0.00156830      -0.00590671
H        2.29329998       0.12713476       5.35877499      -0.00024280       0.00365947      -0.00787196
O        9.41925577      10.79017142       2.75754921      -0.00292933       0.00078510       0.00168340
H        8.45670562      10.87863214       2.59861642      -0.00343552      -0.00091162       0.00138262
H        9.58482965       9.88756217       3.18119411      -0.00250528       0.00211749       0.00485965
O        1.13209262       8.33789249       2.89605564      -0.00052850       0.02274995       0.01079573
H        1.23431044       9.11711902       2.30461531      -0.00231764       0.02400313       0.01250194
H        1.37784587       7.54586508       2.37403578       0.00548577       0.02463767       0.00898537
O       10.06897426       8.56217488       3.86975301      -0.00309062       0.00584188       0.01120406
H       10.98383433       8.38796152       3.53093355      -0.00170650       0.01055143       0.00963934
H       10.13833828       8.54116937       4.83400543       0.00020283       0.01275951       0.00990210
O        2.41670467       5.13890670       4.19926679      -0.00399897      -0.00163269      -0.00067342
H        3.14387088       5.79473461       4.26774121      -0.00395676      -0.00048991      -0.00180823
H        1.61921458       5.54367482       4.65335392      -0.00250815      -0.00141254      -0.00005552
O        4.83291687       3.60118527       1.24796423       0.00129384      -0.00532506      -0.00389773
H        5.13325383       2.96484251       1.93110112      -0.00038672      -0.00453461      -0.00181940
H        4.06625350       3.21537073       0.77084340       0.00248702      -0.00598874      -0.00471759
O       10.90475656       8.58044989       6.86284955      -0.00667170       0.00428723      -0.00833653
H       10.73389762       9.48072408       7.22566286      -0.00485536       0.00453584      -0.00542529
H       11.75191036       8.64538761       6.33514054      -0.00150404       0.00262923      -0.00119938
O        3.70499224      10.52083706       3.05295589       0.00721990       0.00288776      -0.00424689
H        2.88220674      10.89877222       3.43054964       0.00551125       0.00171884      -0.00838712
H        4.09990105      11.22832435       2.53580498       0.01515275       0.00813161       0.00703102
O        1.16153905       2.81411749       3.73283437      -0.00581272      -0.00013776      -0.00800470
H        1.55216163       1.96595275       4.06646772      -0.00549920      -0.00188272      -0.01402641
H        1.82525111       3.52375297       3.81262309      -0.00389746      -0.00060241      -0.00718100
O        8.59398006       1.24098906       8.30712470       0.00293989      -0.00362994       0.00852481
H        9.35472993       0.63312525       8.05835455       0.00288366      -0.00088295       0.00258110
H        8.07837713       1.33291669       7.49969085      -0.00102659      -0.00136445       0.01051302
O        8.59533109       6.80513280       1.85743955       0.00988948      -0.00271172       0.00308120
H        8.76759002       6.16308576       2.56205942       0.01016751      -0.00052582       0.00553575
H        8.21424694       7.58174567       2.32703511       0.00653477      -0.00278645       0.00084265
O        0.44667165       3.24967875       9.90242783       0.00058479      -0.00409499      -0.00072010
H       -0.48905181       3.31615946      10.19470985       0.00176554      -0.00159446       0.00351202
H        0.46792811       3.75911971       9.06412364      -0.00102783      -0.00224752       0.00037430
O        6.98809745      10.95418841       6.41120946      -0.00033914      -0.00204831       0.00496861
H        6.40748401      10.33152455       5.93061080      -0.00117441      -0.00213312       0.00519098
H        7.04453757      10.60275310       7.31053653       0.00333123      -0.00367571       0.00363517
O        1.82639748       8.76352174       5.54975121       0.00334726      -0.00005686       0.01357737
H        2.35780504       8.05312934       5.96152493      -0.00153477      -0.00227584       0.00287852
H        1.70082847       8.51653949       4.61401016       0.00137012       0.01012020       0.00569364
O        3.45781614      11.16791735       6.54131597      -0.00358383       0.00402705      -0.00397307
H        3.89380742      10.37872501       6.17464031      -0.00502542       0.00191356      -0.00275461
H        3.04032545      10.86311617       7.39313335      -0.00655594       0.00537817      -0.00536733
O       11.67153612       6.12071642       5.27485222      -0.00105760       0.00164609       0.00393875
H       10.85681698       5.89272831       4.79606579      -0.00208890       0.00598794       0.00302741
H       11.56378677       5.73271737       6.17111299      -0.00226883      -0.00073363       0.00263906
O        3.13647164      -0.15722334      -0.10986795       0.00047281      -0.00505878      -0.00908411
H        2.49936741      -0.54320213       0.53024732       0.00126381       0.00308367      -0.00378425
H        3.97822120      -0.64504233      -0.03461398       0.00030002      -0.00492097      -0.00478204
O        4.52313951       6.21275186       1.77342746       0.00210699      -0.00419403      -0.00358687
H        4.67024805       5.24841119       1.61175029      -0.00432028      -0.00504552      -0.00606865
H        5.15717491       6.67252763       1.19030201       0.00224007      -0.00635429      -0.00568274
O        5.69626464       9.99416866      -0.07459722       0.00057871      -0.00730848      -0.00108354
H        5.78827106       9.03477397       0.04837399      -0.00009981      -0.00704634       0.00041974
H        6.11959986      10.40669369       0.71117240      -0.00168343      -0.00713143       0.00021625
O        5.94344854       1.94957856       3.09805198      -0.00400912      -0.00593326       0.00104225
H        5.63956031       1.81977095       4.02221570      -0.00120959      -0.00427180       0.00270414
H        6.22708135       1.07046836       2.76012520      -0.00145473      -0.00548531       0.00249972
O        6.91471931       8.68496707       2.79322071       0.00067423      -0.00778512      -0.00069499
H        6.85644800       9.61513435       2.50650207      -0.00141275      -0.00750413       0.00156125
H        6.50261903       8.69234735       3.66881796       0.00342866      -0.00994170       0.00124554
O        5.25151637       1.62185269       5.75776796       0.00045400       0.00035719       0.00358887
H        4.49347864       1.06852261       6.06541646      -0.00015553      -0.00002476       0.00183361
H        6.00332648       1.06920630       6.05369641       0.00019367       0.00079532       0.00429712
O        6.24706973       4.67718467      10.48601300       0.00524020      -0.00618264      -0.00064637
H        5.94617041       4.17553232      11.26697868       0.00373106      -0.00657534      -0.00287084
H        5.49208345       4.58444685       9.85586913       0.00600825      -0.00585194      -0.00413005
O        6.48208316       7.10259439      11.33135685       0.00100154      -0.00840363       0.00394982
H        6.35571359       6.16195920      10.97349317       0.00429085      -0.00862104       0.00186381
H        7.21754849       7.00350400      11.96528612       0.00128415      -0.00600102       0.00363668
O        2.32646446      10.33474005       8.76106263      -0.01235217       0.00449004      -0.00897400
H        1.96963292       9.44106671       8.88918209      -0.00757821       0.00823355      -0.01111919
H        2.57058857      10.66337432       9.64590117      -0.00356805       0.00197156      -0.00540891
O        2.92409715       2.58673260      -0.41176867       0.00463481      -0.00554480      -0.00702772
H        2.94348046       1.60883626      -0.35738358       0.00457406      -0.00611920      -0.00699808
H        2.00152323       2.85415264      -0.58257384       0.00447790      -0.00527104      -0.00497216
O       10.47013310       3.10467030       5.49439133      -0.00205537       0.00374156      -0.00522841
H       11.26244878       3.13571062       4.91136694      -0.00138061       0.00290842      -0.00460444
H       10.28578491       2.13967306       5.50959803      -0.00229108       0.00378788      -0.00552561
O        9.13222365       5.16052259       4.32215555      -0.00349031       0.00291925      -0.00522728
H        9.47959091       4.36330760       4.78485529      -0.00047110       0.00283587      -0.00715803
H        8.81636097       5.76304414       5.03525703      -0.00458971       0.00023094      -0.00338449
O        4.66393068       6.68651321       4.40724521      -0.00235274      -0.00108998      -0.00450507
H        4.81136799       6.54672307       3.43837758       0.00122115      -0.00416025      -0.00042184
H        5.13239376       5.98961179       4.88314289      -0.00701589      -0.00593005       0.00109923
O        8.41844196       0.93827444       0.21293733      -0.00684068      -0.00303034       0.00130017
H        8.40652360       1.88372143      -0.05487080      -0.00688775      -0.00264232       0.00289803
H        7.70926203       0.72618510       0.85548147      -0.00640393      -0.00430964       0.00170107
O        9.67845262       9.53317202      11.03762971       0.01163068      -0.00466168       0.00840086
H        8.97984743       9.66309281      10.35973694       0.01131839      -0.01380634       0.00770262
H       10.05323367       8.63864638      10.98548748       0.01240666      -0.00591113       0.02141844
O        1.73562850       6.02006644       1.57632664       0.01309299       0.04199645       0.00418612
H        2.67440296       6.16367866       1.34818392       0.01833659       0.02584464       0.01584579
H        1.81491235       5.52174690       2.41239114      -0.00261139       0.01868848      -0.00892972
O        4.34874619       4.23051471       6.22248014       0.00438055      -0.00147526      -0.00820930
H        4.75010587       3.34967250       6.07826737       0.00092415       0.00049367      -0.00670840
H        3.58712477       4.27800258       5.62256794      -0.00066713      -0.00081631      -0.00552498
O        7.59415075      10.31769123       9.35875996       0.00816303      -0.00863291       0.00334145
H        7.88624996      11.23917279       9.18592841       0.00954918      -0.00895580       0.00481037
H        6.86720909      10.34644299      10.02174024       0.00751186      -0.00790326       0.00309829
O       -0.54293898       2.22531261       1.72566802      -0.00832304       0.00092536       0.00165165
H        0.11930063       2.50044671       2.40154818      -0.00723049       0.00435776      -0.00037840
H       -1.41650795       2.59462298       2.00940015      -0.00801632       0.00273179       0.00043564
O        5.12520662       9.39240066       5.01664370      -0.00124477      -0.00051689       0.00147035
H        4.62762601       9.80052640       4.26328379       0.00182042      -0.00089705       0.00006809
H        4.87106186       8.45096006       5.00956425      -0.00189693      -0.00134467       0.00089231
O       11.27377214       4.69203860       7.60008686      -0.00265837      -0.00315962       0.00145648
H       10.86706365       4.02493750       7.01013765      -0.00273272      -0.00170724      -0.00153881
H       10.55004992       5.10802123       8.12116883      -0.00248243      -0.00368385       0.00091311
