142
Lattice="12.7788858301875 0.0 0.0 0.0 12.7788858301875 0.0 0.0 0.0 12.7788858301875" Properties=species:S:1:pos:R:3:forces:R:3 energy=-496535.6875 stress="0.00034350977512076497 0.000221338719711639 0.00014869277947582304 0.000221338719711639 -0.0006067632930353284 0.0005820340884383768 0.00014869277947582304 0.0005820340884383768 0.00030935058020986617" pbc="T T T"
Yb      12.70723573      11.51735426       1.57776119       0.01922056       0.02639086       0.00313575
P       10.50565268      10.88402977       3.62736691      -0.01102310       0.00992180      -0.01587867
O       11.24199987      10.86471695       5.04337297      -0.00954055       0.01098973      -0.00700992
O       11.40370573       9.71682918       2.83048524       0.01788044       0.01861507      -0.00981292
O        9.09358168      10.49907876       3.62811861       0.01476002       0.01820142      -0.04041114
O       11.00089483      12.15622210       2.96830623       0.01309400       0.02393872      -0.00511219
H       11.22212109      10.00352922       5.47689948       0.00129494       0.00494194      -0.01555279
H       10.81113140       9.15792825       2.31280526       0.02153546       0.02496135      -0.02350435
P        2.28587437       8.17930410       6.24508245      -0.02288634      -0.00515109       0.00776875
O        0.80789787       8.12797108       5.49501263      -0.01948619       0.00903693      -0.00275102
O        2.08521106       9.48973723       7.18577252      -0.01096877       0.00825936      -0.00711071
O        2.39781244       6.94240122       7.06150794      -0.04490815       0.00271952       0.01658928
O        3.29536380       8.56993572       5.22467258      -0.00998652      -0.02414131       0.00758064
H        0.48806911       7.22537209       5.57634876      -0.03305610       0.01422377       0.00692070
H        1.60197162       9.26213732       7.98701923      -0.01926134       0.02183018      -0.00716589
P       11.75192688      11.13608468      11.43917897       0.00748981       0.00768310       0.00898767
O       12.63565939      12.43038740      12.05227707      -0.00476031       0.01984775       0.00354749
O       10.31655152      11.80934508      11.48182184       0.00291088      -0.00346398       0.00344881
O       12.21549568      10.75331129      10.10279712       0.01596859       0.00554099       0.00992626
O       11.91448552      10.21233898      12.63189857       0.01652131       0.01552621       0.01272321
H       12.80093643      13.10384529      11.38489448      -0.01408045       0.01900667      -0.00095171
H        9.60977487      11.35757730      10.94233758       0.00491661      -0.01085138       0.00307101
O       10.09965131       6.51384252       7.89716478       0.01262766       0.00229487      -0.00224262
C        9.58357701       5.57079336       6.97535323       0.00962925       0.00136286       0.00064076
C       11.49421971       6.34303602       8.08421232       0.01171675      -0.00361258       0.00075299
C        8.08434248       5.69579393       6.90631599       0.00990450       0.00611432       0.00047368
C       12.00813396       7.36651479       9.06234163       0.01640183       0.00220186      -0.00792378
H       10.03560363       5.74182888       5.98530354       0.01012227      -0.00289205       0.00012875
H        9.87742184       4.55602601       7.28883794       0.00626327       0.00113773       0.00325817
H       11.69209979       5.32303803       8.44654817       0.00613642      -0.00166899       0.00937736
H       12.01226514       6.44364984       7.11943130       0.01367822      -0.01521251       0.00066221
H        7.68727238       4.97817469       6.18663455       0.00758854       0.00758663       0.00030909
H        7.63022590       5.48668535       7.87606384       0.00905944       0.00768480       0.00039990
H        7.77394051       6.69524310       6.60200743       0.01344369       0.00717592       0.00032219
H       13.07638717       7.21332357       9.21404766       0.01754384       0.00315920      -0.01385365
H       11.85819829       8.38200390       8.69559497       0.01352385      -0.00043666      -0.01407453
H       11.49597413       7.27517253      10.02117643       0.02124774       0.00840119      -0.00468649
O        5.02574251       4.76383280       8.77946375       0.00364429       0.00865668       0.00679933
C        5.23690050       3.74204098       7.81992018      -0.00264028       0.01060780       0.00351918
C        5.53361500       4.44030033      10.05402492       0.00254251       0.00200021       0.00566161
C        4.70033645       4.21787835       6.49476194      -0.00485566       0.01691788       0.00650793
C        5.15440196       5.53861203      11.01845923       0.00271158      -0.00182021       0.01003647
H        6.30947317       3.50891780       7.75352084      -0.00367749       0.00657033      -0.00008805
H        4.74149320       2.81777579       8.14194315      -0.00563884       0.01163214       0.00253397
H        5.13242315       3.47537523      10.38734372       0.00138989       0.00061661       0.00051136
H        6.62905739       4.32757770      10.00720402       0.00248170       0.00125170       0.00580993
H        4.80487314       3.43427380       5.74212678      -0.01376024       0.01782188       0.00435096
H        3.64840845       4.48022537       6.58609670      -0.00269547       0.02447192       0.01210362
H        5.22638272       5.11136268       6.15808863       0.00046459       0.01371737       0.00598062
H        5.53313321       5.31350609      12.01630378       0.00395244      -0.00467732       0.00884773
H        5.56262906       6.49382823      10.69123645       0.00128274      -0.00028619       0.01264476
H        4.07012378       5.63619807      11.07061189       0.00237203      -0.00296094       0.01141810
O        6.42151060       8.58311333       6.36915732      -0.00461519       0.00237620      -0.00139943
C        6.44484891       9.33639054       5.16478152      -0.00430396       0.00077894      -0.00229973
C        5.74957732       9.24337228       7.42484202      -0.00741252       0.00339086      -0.00337005
C        6.85167418       8.41169289       4.04351409      -0.00190838       0.00106078      -0.00172120
C        5.48052124       8.23015191       8.51098536      -0.00988671       0.00541669      -0.00212529
H        5.43927583       9.73247295       4.98158306      -0.00484222      -0.00042447      -0.00368465
H        7.15409166      10.17046984       5.24375930      -0.00626099       0.00259376      -0.00229988
H        6.36399563      10.07641454       7.80334329      -0.00852716       0.00423259      -0.00328335
H        4.80731793       9.66183271       7.05429476      -0.00700504       0.00188175      -0.00610307
H        6.92213867       8.96978672       3.11033007      -0.00248807       0.00097360      -0.00181226
H        7.83316395       7.97834560       4.23957519      -0.00112346       0.00315453      -0.00142819
H        6.11897865       7.60959323       3.94367955      -0.00033249      -0.00050569      -0.00164069
H        5.03536791       8.71773339       9.38100351      -0.00898959       0.00797101      -0.00313167
H        4.79660965       7.45739739       8.15922495      -0.01155534       0.00622472      -0.00060275
H        6.40998425       7.74549705       8.81786002      -0.01110156       0.00369442      -0.00093734
O        2.22781350       4.28124881       4.17033695      -0.00138770      -0.00140041      -0.00618622
C        2.77800307       5.52302192       3.73545087      -0.00257432       0.00008615      -0.00298181
C        1.22303438       4.48371757       5.15416738      -0.00522223      -0.00402433      -0.00938237
C        3.94405177       5.26239975       2.81504337      -0.00088680       0.00286861      -0.00162041
C        0.82693732       3.15065548       5.74037612      -0.00382294      -0.00543481      -0.01161900
H        1.99752830       6.10541310       3.22005450      -0.00246876       0.00009704      -0.00297222
H        3.09763027       6.11179356       4.60049924      -0.00477043      -0.00010473      -0.00192875
H        1.60118782       5.15767594       5.93523925      -0.00994140      -0.00349799      -0.00765055
H        0.34793367       4.96816614       4.68556190      -0.00433835      -0.00532921      -0.01201501
H        4.34980509       6.21340006       2.46726435      -0.00152269       0.00388390       0.00020998
H        4.73426883       4.73114163       3.34559347      -0.00089973       0.00325849      -0.00122586
H        3.65837734       4.65978739       1.95389945       0.00072786       0.00391226      -0.00298311
H        0.07548431       3.29468371       6.51821429      -0.00657071      -0.00785948      -0.01383196
H        0.41129347       2.48716017       4.98104859       0.00008906      -0.00623263      -0.01330088
H        1.69402639       2.66453489       6.18985641      -0.00383694      -0.00319487      -0.00917970
O        3.76463401       1.96894766       1.82696725      -0.00755930      -0.01050392      -0.01511152
C        2.42026023       1.54997492       1.85805745      -0.00879508      -0.00465125      -0.00909969
C        4.61131808       1.12082918       2.59147204      -0.00745082      -0.00546291      -0.00898579
C        1.54271872       2.59330478       1.21005326      -0.00434987      -0.00539955      -0.01648800
C        5.98853902       1.72980303       2.67968895      -0.00703326      -0.00518408      -0.01548490
H        2.32724816       0.57110969       1.33693842      -0.01371157      -0.00875664      -0.00251924
H        2.10970485       1.39760537       2.89793453      -0.00803353       0.00431954      -0.00727659
H        4.18644539       0.99071302       3.59654124      -0.00649282       0.00352827      -0.00744489
H        4.65233528       0.12704065       2.12288342      -0.00886795      -0.00917807      -0.00113499
H        0.51034177       2.23183688       1.15830287      -0.00606591      -0.00083905      -0.01550132
H        1.55030309       3.50300754       1.80861071      -0.00055120      -0.00147474      -0.02244663
H        1.88472002       2.82050295       0.19985914      -0.00173786      -0.01364003      -0.01748642
H        6.66125899       1.04629082       3.19928209      -0.00690849      -0.00100495      -0.01020258
H        6.39280928       1.92196530       1.68559194      -0.00768286      -0.01414237      -0.01750503
H        5.95872828       2.67202266       3.22657729      -0.00641956      -0.00036784      -0.02368514
O        1.90514416      10.96571592       2.77875260       0.00486857      -0.00366514       0.01222219
C        1.61247043      10.94537406       4.21756265       0.01316296      -0.00164849       0.01353928
C        2.47292356       9.71066273       2.30975574       0.00019854      -0.00508595       0.00977829
C        1.21806050      12.32651366       4.66001303       0.00954525      -0.00172475       0.01160321
C        3.32087127      10.00706906       1.10025723      -0.01642308      -0.00709641      -0.00309038
H        0.81799989      10.21921869       4.39128653       0.01773289      -0.00461283       0.01972999
H        2.49952878      10.57480831       4.72556167       0.01810735       0.00469524       0.00933221
H        3.03201828       9.26237690       3.13465120       0.01181585      -0.00073940       0.00431257
H        1.64800641       9.02603596       2.06167911      -0.00219247      -0.00726050       0.02475041
H        0.81872820      12.26351165       5.67074030       0.02304595       0.00045615       0.01720381
H        2.06643399      13.00850420       4.65882883       0.00505257       0.00389586      -0.00204451
H        0.41395817      12.75463782       4.05062282      -0.00152916      -0.01071573       0.01967036
H        3.72047507       9.08149650       0.68615102      -0.01883779      -0.00813165      -0.00358149
H        2.74148105      10.49730817       0.30860410      -0.02906211      -0.01320717       0.00162563
H        4.15619468      10.65338130       1.36981640      -0.01487893      -0.00302595      -0.01631781
O        8.38463357      10.48534623      10.21089713       0.00773620      -0.00943585       0.00542070
C        7.91699526       9.59619976      11.23172055       0.00901562      -0.01144868       0.00449547
C        9.05521537       9.78688808       9.13952467       0.00270624      -0.00803429       0.00107986
C        6.80717041      10.26625095      12.00306682       0.01875058      -0.01001438       0.01736632
C        9.36946511      10.77209738       8.04797343       0.00481138      -0.00527784       0.00403687
H        7.55517951       8.68063033      10.75596348       0.00018026      -0.00656700       0.00150821
H        8.75343477       9.32813985      11.88993391       0.01149029      -0.01970962      -0.00213617
H        9.96777690       9.32761453       9.52986669       0.00151420      -0.01431882      -0.00275904
H        8.39875989       8.99247581       8.77664626      -0.00182512      -0.00363675      -0.00084725
H        6.45642458       9.60977918      12.80000827       0.01456879      -0.01745859       0.00959514
H        7.14620737      11.19712694      12.45933139       0.02974785      -0.02076794       0.03120632
H        5.96860243      10.48442497      11.34038975       0.01873684       0.00667172       0.02298011
H        9.81777166      10.24212507       7.21005680      -0.00353943      -0.00423531      -0.00106673
H        8.46109245      11.25148337       7.68392433       0.00621012       0.00324417       0.01139648
H       10.07579766      11.52974081       8.38642409       0.01196793      -0.01179028       0.00418718
O        5.80057454       1.12620173       9.83285911      -0.00125302      -0.00459073       0.00554585
C        7.09700878       1.07216925      10.40699929      -0.00074744      -0.00508305       0.00491649
C        4.78804761       0.78587590      10.75830690      -0.00047237      -0.00522717       0.00615698
C        8.11420089       1.47641723       9.36826192      -0.00151870      -0.00581741       0.00387156
C        3.44475666       0.93109017      10.08221131      -0.00105312      -0.01100712       0.00600988
H        7.14137997       1.74423896      11.27826669       0.00024687      -0.00464767       0.00454968
H        7.30012825       0.05443211      10.75933475      -0.00113335      -0.00497854       0.00566342
H        4.93292828      -0.24658458      11.10690704       0.00308936      -0.00374490       0.00932264
H        4.84944063       1.43864331      11.64347997      -0.00307938      -0.00260743       0.00434038
H        9.12031661       1.34974145       9.76913676      -0.00119267      -0.00495841       0.00325032
H        8.01827378       0.85222626       8.48042187      -0.00190737      -0.00676768       0.00453295
H        7.98433579       2.51801807       9.07403017      -0.00247585      -0.00621292       0.00281014
H        2.65232400       0.62220177      10.76617010      -0.00000273      -0.01178492       0.00692026
H        3.26647508       1.96633391       9.78713801      -0.00381224      -0.01202166       0.00401064
H        3.39297372       0.30361684       9.19273063      -0.00002278      -0.01283818       0.00716183
