138
Lattice="12.727085485190575 0.0 0.0 0.0 12.727085485190575 0.0 0.0 0.0 12.727085485190575" Properties=species:S:1:pos:R:3:forces:R:3 energy=-536201.4375 stress="-0.0009421029826626182 4.694982817454729e-05 0.0003446246118983254 4.694982817454729e-05 -0.0003983565547969192 3.2470964015374193e-06 0.0003446246118983254 3.2470964015374193e-06 -0.0015228844713419676" pbc="T T T"
Zn      12.41697396      12.93590714       1.47822384      -0.02928418      -0.03409043      -0.02039719
I       12.94929101      13.55693075       3.89456022       0.02356148       0.02729115       0.02912229
I        1.01578502      14.24627925       6.73376533      -0.02318095       0.00823176      -0.00691772
O        8.31564994      11.52801056      11.84921313       0.00837147       0.00278559       0.01196613
O       10.46192699      11.23505888      11.77206139       0.00908247      -0.00097166       0.01659052
O        9.11533248       9.44810860      11.44125111       0.00416131       0.00294220      -0.00397015
C        6.96859319      10.97941673      11.86973874       0.00756867       0.00582087       0.00072332
C        6.01604087      12.13802280      11.99040571       0.00790310       0.00574169       0.00577250
C        9.27154930      10.62091209      11.66695887       0.00596194       0.00584269       0.00850727
C       11.57484559      10.34437993      11.60007382       0.00437046      -0.00293994       0.00966156
H        6.81021374      10.39951102      10.96104120       0.01108344       0.01409543      -0.00514153
H        6.90049286      10.29030649      12.71262175       0.00203769      -0.00146899      -0.00580677
H        4.99620132      11.75633252      12.05598956       0.00768730       0.00547822       0.00317282
H        6.21971444      12.72263622      12.88763216       0.00770527       0.00083734       0.00902069
H        6.08209979      12.79956919      11.12717842       0.00811419       0.00989710       0.00913872
H       11.64427998       9.65794167      12.44340829      -0.00058912      -0.01596214       0.00113973
H       12.45196474      10.98346768      11.55667610       0.00890321      -0.00685190       0.01915945
H       11.46527608       9.76690679      10.68626679       0.00654910       0.00980476       0.00181395
O       10.99625214       6.75239216       8.36014801       0.00795952      -0.00000082       0.00493094
O       10.84040550       8.58947695       7.23586898       0.00321648      -0.00111943       0.00488344
O       12.58681942       7.21064670       6.81317175      -0.00769448      -0.00955084      -0.01214445
C       11.56639068       5.43431383       8.56495732       0.00828511       0.00047970       0.00627548
C       10.50650047       4.59338789       9.22732553       0.00978202       0.00449656       0.01361418
C       11.57868476       7.48163273       7.41906792       0.00141925      -0.00396132      -0.00279742
C       11.31106778       9.42501464       6.16154961      -0.00497498      -0.00556534      -0.00255634
H       11.85990676       5.03142795       7.59660105       0.00393376      -0.00369458       0.00683779
H       12.46198968       5.54637364       9.17890932       0.01113981       0.00098978       0.00202560
H       10.90341481       3.59835983       9.42942496       0.00772831       0.00471950       0.01570244
H       10.18526496       5.03619912      10.17040359       0.01439181       0.00887650       0.01304631
H        9.63977148       4.50094759       8.57475418       0.00750738       0.00391023       0.01700835
H       12.28313004       9.85404897       6.39426668       0.00096038      -0.01325595      -0.01434566
H       10.56079378      10.20048483       6.04543224      -0.00123525       0.00022252       0.00713133
H       11.39917033       8.84720599       5.24597255      -0.02164664      -0.00827721      -0.00345618
O        4.80954632       3.90656153       8.50309359       0.00884131       0.00353155       0.00717966
O        3.37217495       4.89063252       9.77010160       0.00815454       0.00334339       0.00815621
O        5.04323786       3.71159756      10.75088405       0.00320578      -0.00744689       0.00732851
C        5.98337681       3.07645126       8.32062580       0.01009476      -0.00225413       0.00564706
C        6.24539166       3.00031791       6.83946736       0.00910406      -0.00175184       0.01060143
C        4.46437810       4.12334511       9.77552619       0.00646961      -0.00031042       0.00854009
C        2.92238854       5.33397977      11.06018953       0.00708045      -0.00419100       0.00943938
H        6.81616356       3.52885099       8.86170390       0.00777569      -0.00352296       0.00488412
H        5.78702852       2.09350080       8.74757128       0.00054100       0.00022018       0.01141346
H        7.08516397       2.32999476       6.65569619      -0.00485998      -0.00887854       0.00598604
H        5.37172892       2.61446818       6.31350397       0.00152250      -0.00757755       0.00963039
H        6.49886673       3.97994211       6.43403000      -0.00600288      -0.00742465       0.00341124
H        2.50400947       4.49889464      11.62098493       0.00621741      -0.00752336       0.00316806
H        2.17080315       6.08781553      10.84824210       0.00811991      -0.00350603       0.01119889
H        3.74780638       5.76802506      11.62119973       0.00675672      -0.00840914       0.01273045
O        2.96073652       8.21785357       7.18165297      -0.00792427      -0.00357284      -0.00299636
O        1.73384886       9.87613261       7.78106740      -0.00354386      -0.00157008       0.00100213
O        1.97146548       8.13926756       9.22137971      -0.01534551      -0.01067728      -0.00755906
C        3.50519325       6.89175326       7.39047317      -0.01051348      -0.00521964      -0.00560343
C        4.25791964       6.51060760       6.14489160      -0.00724342      -0.00147940      -0.00448388
C        2.20391023       8.67134334       8.16300180      -0.00927748      -0.00605559      -0.00338608
C        0.91465849      10.51930513       8.75849696      -0.00355137      -0.00263879       0.00024775
H        4.14138758       6.92876683       8.27534031      -0.01309893      -0.00938853      -0.00387925
H        2.68068090       6.21321711       7.60258653      -0.01184446      -0.00514737      -0.01042949
H        4.68802521       5.51921790       6.28749989      -0.00923825      -0.00287642      -0.00746080
H        3.58675395       6.48694782       5.28970300      -0.00424725       0.00261973      -0.00683884
H        5.06288838       7.21213979       5.92652581      -0.00568973      -0.00154792       0.00117349
H        0.04559929       9.90170832       8.97774629      -0.00869861       0.00163674      -0.00873293
H        0.61848606      11.46994526       8.32042866       0.00561146       0.00279853       0.00539528
H        1.47443397      10.68056323       9.68043669      -0.00762606      -0.01255425       0.00419596
O        3.23140253       9.37703364       4.55303242      -0.00834563       0.00439732      -0.01101223
O        1.94031082       7.71367258       4.12676187      -0.00578874       0.00441325      -0.02165654
O        1.05289118       9.79831865       4.08056688      -0.00717640       0.00284719      -0.01671952
C        3.44017770      10.76098812       4.89881948      -0.01105642       0.00456280      -0.00763342
C        4.85394071      10.87104364       5.41134616      -0.01075906       0.00532250      -0.00788625
C        1.98081196       9.04050132       4.24236275      -0.00848907       0.00522625      -0.01632646
C        0.68671840       7.17451680       3.70020055      -0.00629322       0.00474499      -0.02130735
H        3.26525016      11.37965791       4.01517141      -0.01114000       0.00632861      -0.00606507
H        2.70870522      11.04272293       5.65646995      -0.01119223       0.00324220      -0.00692809
H        5.05265342      11.89533827       5.73016612      -0.01320457       0.00452341      -0.00424308
H        4.99860448      10.20438708       6.26134797      -0.00901136       0.00329472      -0.01031290
H        5.57945511      10.60262753       4.64316488      -0.01056087       0.00934659      -0.00870854
H       -0.07837692       7.38492936       4.44135330      -0.00291565      -0.00840779      -0.01405928
H        0.84975678       6.10403605       3.63069603      -0.00110304       0.00673035      -0.03585557
H        0.40849493       7.58149792       2.72934646      -0.01434398       0.01523666      -0.01447067
O        7.45069554      11.82044253       8.29159865      -0.00096989       0.00663906      -0.00059148
O        5.37614929      12.33302423       8.55137655      -0.00097612       0.00712691      -0.00060279
O        5.96682815      10.14787500       8.66012364      -0.00127000       0.00607026      -0.00450332
C        8.53189668      10.85250951       8.26955473      -0.00096384       0.00678003      -0.00353312
C        9.81372746      11.63951536       8.32023044      -0.00109792       0.00627998       0.00479608
C        6.24060787      11.31427846       8.50817985      -0.00056942       0.00680614      -0.00184821
C        4.01688401      11.94783049       8.81408866      -0.00063264       0.00869960      -0.00202295
H        8.42297802      10.18487623       9.12357934      -0.00337761       0.00158772      -0.00803745
H        8.44129198      10.25029626       7.36333344       0.00119364       0.01298341      -0.00759664
H       10.65587015      10.95256865       8.38149051      -0.00067049       0.00607406      -0.00058661
H        9.93661085      12.25863258       7.43160803      -0.00022264       0.01546332       0.01119775
H        9.82927284      12.28837160       9.19531701      -0.00270428      -0.00161257       0.01022756
H        3.62875919      11.34322447       7.99847472      -0.00066093       0.00892706      -0.00235191
H        3.46144584      12.87799598       8.89181144      -0.00075635       0.00943831      -0.00282061
H        3.96108788      11.38097828       9.74280069      -0.00182203       0.00837682      -0.00244007
O        8.18629502       6.23242750       7.32973605      -0.00825857      -0.00283665       0.00234103
O        9.43248951       5.73408306       5.65024444      -0.00627263      -0.00388452       0.00434276
O        7.95626972       7.44082765       5.41818443       0.02510887       0.02402580       0.01572865
C        7.19636745       7.03889043       8.01711409      -0.00083309       0.00288484       0.00617573
C        7.60099708       7.15243730       9.46184746       0.00104082      -0.00633157       0.00622380
C        8.46305606       6.56332996       6.07175570       0.00479794       0.00798833       0.00825930
C        9.72312883       5.82720916       4.24752551       0.00178041       0.00476393       0.00719179
H        7.12417900       8.00795910       7.52855672       0.00654985       0.00495136       0.00975400
H        6.24371225       6.52159775       7.90732083      -0.00484067       0.01049024       0.00508083
H        6.86097469       7.75133154       9.99328960       0.00619033      -0.00337131       0.00979603
H        7.65241080       6.16941328       9.93185705      -0.00620468      -0.00882097       0.00158083
H        8.56897738       7.63891043       9.56427675       0.00485158      -0.01440565       0.00756200
H        8.90369867       5.39351392       3.67560191      -0.00368822       0.02726622      -0.00110623
H       10.63608403       5.25817942       4.09737870      -0.00878233      -0.01171014       0.00588592
H        9.85962967       6.86129326       3.94223769       0.02394119       0.00496110       0.01828540
O        3.60282412       5.82859812       2.39224997       0.00610900      -0.01072179      -0.01420704
O        4.14550773       7.88745753       2.07584452       0.00300668      -0.00913772      -0.01482454
O        5.73340067       6.46113706       2.84547394      -0.00423896      -0.00342229       0.00352359
C        3.91605918       4.47295251       2.78099599       0.00756001      -0.00589353      -0.00991414
C        2.65767080       3.86049618       3.33296798      -0.00117630      -0.00598727      -0.01085365
C        4.61209283       6.70171792       2.47353351       0.00410700      -0.00691590      -0.00669503
C        5.09119155       8.96188377       2.15486608      -0.00208047      -0.00496377      -0.00744240
H        4.26811574       3.94842048       1.88905490       0.00730984      -0.01368719      -0.00686470
H        4.72180320       4.49395574       3.51326753       0.00472614      -0.00489976       0.00000173
H        2.79917903       2.79301198       3.49958274       0.01574083      -0.00451639       0.01126625
H        2.38309322       4.31445993       4.28489559      -0.00247066      -0.00063245      -0.00743192
H        1.83008807       3.98995526       2.63533981       0.00197989      -0.02354900      -0.01433747
H        5.70259300       8.85827228       3.04826410      -0.01306427       0.00419988       0.00090617
H        4.49715880       9.87074624       2.19683462      -0.00658274      -0.00763246      -0.01925842
H        5.73318907       8.94463842       1.27974964       0.00925532      -0.00406814       0.00113833
O        9.67475443       8.33541095       1.83591191       0.00275431      -0.00136553       0.00134599
O        9.31443885       6.31108712       1.16219590      -0.00018542      -0.00249593      -0.00548968
O        7.67973828       7.84627534       0.87362735       0.00103915       0.00251430      -0.00450051
C        9.15764080       9.63392274       2.19883710       0.00001442      -0.00553839       0.00853206
C       10.32294558      10.51235061       2.56357565       0.00185627      -0.00369951       0.00539577
C        8.77688181       7.53271945       1.24827910       0.00111687       0.00071809      -0.00267112
C        8.39398205       5.31464994       0.68422881      -0.00018081       0.00451088      -0.01209430
H        8.59618735      10.03278066       1.35581954      -0.00612146      -0.00373694       0.01472190
H        8.46738447       9.49781197       3.03505833       0.00868660      -0.01068607       0.01285473
H        9.95631146      11.49806339       2.85516149      -0.00065303      -0.00826118       0.02054898
H       10.90900856      10.10438988       3.38498412       0.01209278      -0.00738412      -0.00466231
H       10.98962055      10.63573201       1.70669664      -0.00957368       0.00515297      -0.00039361
H        7.52285619       5.27375350       1.33735413      -0.00392896       0.00354222      -0.01634935
H        8.94764223       4.38053913       0.70912230      -0.00244343       0.00128338      -0.01167025
H        8.07381968       5.54554823      -0.32933271       0.00527691       0.00647536      -0.01345003
