146
Lattice="17.56622978305117 0.0 0.0 0.0 17.56622978305117 0.0 0.0 0.0 17.56622978305117" Properties=species:S:1:pos:R:3:forces:R:3 energy=-1595362.25 stress="4.140704186283983e-05 0.0002749123814282939 4.750195148517378e-05 0.0002749123814282939 0.00017661502351984382 0.00021177768212510273 4.750195148517378e-05 0.00021177768212510273 8.867523138178512e-05" pbc="T T T"
Zn      16.28719997      17.61770567      -1.64774314       0.00026512      -0.02962635      -0.02091192
Br       9.89260759      15.55810814       9.13423505      -0.00432028       0.00226591       0.00382654
O        9.50612391      14.78195400      10.50953525       0.00281185       0.00056255       0.00919414
O       11.50602197      15.47769522       8.91364470      -0.00690126      -0.00461719      -0.00755346
O        9.14960267      14.85930709       7.87394800      -0.01451111       0.00576639       0.00860023
O        9.43851498      17.11821897       9.24643589       0.00761449       0.00356841       0.00689256
Br       6.96418986      15.34602609      13.58084167       0.00303154       0.02305999      -0.01808377
O        7.65018825      16.54384133      12.72588108      -0.01718211       0.01965296      -0.01294434
O        5.99859852      16.00113553      14.72323422       0.00288260       0.02356410      -0.01107001
O        6.06480408      14.40937263      12.60402428       0.00218499       0.03333008       0.00245571
O        8.10386596      14.44877355      14.30692788       0.00255489       0.02983868      -0.01803178
Cl      13.28155386      13.98065494      11.30057982      -0.00638491      -0.00055939       0.00114325
Cl      15.13275646      15.40207918       9.59051157      -0.00039449       0.00269661       0.00292766
Cl      15.84621931      14.85054254      12.34999552      -0.01344407       0.02500962       0.01988241
Cl      13.78404631      16.79986056      11.74704507      -0.01942930      -0.00998718      -0.01890032
C       14.49688064      15.25772922      11.24102454      -0.00285092      -0.00444492       0.00184859
Cl       8.12210192       9.28379497       5.98046565       0.00029272      -0.00539355      -0.00094458
Cl       8.87613052       9.21369544       3.17664184       0.00908184       0.01042071       0.00123483
Cl      10.77866579       8.41432211       5.21543612       0.00252399       0.00264439       0.00243825
Cl      10.02587657      11.20277711       4.94209817       0.00038338       0.00250673       0.01528704
C        9.44200123       9.53579233       4.82713978       0.00291346       0.00283229       0.00481601
Cl       5.21381049       4.12317569       7.45012228      -0.01975459      -0.00870070       0.00417930
Cl       2.47084900       3.51615874       6.70974125      -0.01415691       0.00781870       0.00791508
Cl       4.29723428       4.62294393       4.75128686      -0.00940387       0.00108555       0.00250626
Cl       3.34238159       6.26782699       6.95296842      -0.00040033       0.01092947      -0.00103921
C        3.83790570       4.63199454       6.47527797      -0.01373660       0.00482290       0.00222002
Cl       4.83706565      16.92376643       7.28028326       0.02822503       0.00708190       0.00869864
Cl       2.92061820      16.77731848       9.44761607       0.02837521      -0.01519181       0.00979015
Cl       5.05623602      18.73316650       9.53977023       0.01706706      -0.00355589       0.01003785
Cl       5.65443815      15.93025457       9.88927917       0.03015482      -0.01305366      -0.00112039
C        4.63505397      17.07674768       9.04563132       0.02825174      -0.00936556       0.00922601
Cl      14.52924886      11.21225329       8.68981011       0.00032614      -0.01196375       0.01185882
Cl      12.74431997      13.23383439       7.63714868      -0.00177228      -0.01001817       0.01757354
Cl      13.49090224      10.95066880       5.99520461      -0.00469956      -0.01020890       0.01451355
Cl      15.45047604      12.99549658       6.60942221      -0.00311017      -0.00929010       0.01113611
C       14.02685142      12.10603731       7.23415660      -0.00242862      -0.00952805       0.01346659
Cl      14.13929639      11.34373791      14.10942435      -0.00440255       0.00044832      -0.01011615
Cl      16.62235069      10.00224876      14.77446052      -0.01095700      -0.00091908       0.00901237
Cl      16.20948914      11.05480131      12.10346642       0.00409666      -0.01333511       0.00057805
Cl      14.72071396       8.73363434      12.99721194      -0.00519921      -0.00565600       0.00639847
C       15.42138590      10.28755185      13.49660021      -0.00388950      -0.00482571       0.00125066
Cl       8.60361008       3.05756501      10.00594126       0.00266211      -0.00034261       0.00075006
Cl      10.05525258       5.51963377      10.51759582      -0.01153594       0.00765541      -0.00290328
Cl       7.19150784       5.59279692      10.12093500      -0.01141191      -0.00977632      -0.00157964
Cl       8.95066017       4.99987677       7.89101713      -0.00979105      -0.00250324      -0.00181884
C        8.70411004       4.78032548       9.64001729      -0.00756064      -0.00078754      -0.00167790
Cl      16.34565344       8.26985294       6.50949812       0.00941861       0.00429341      -0.00413138
Cl      16.89074170       5.89788475       4.92224244       0.01665652       0.00482798      -0.00287725
Cl      16.83365467       8.50923861       3.66721477       0.01296735       0.00492856      -0.00171804
Cl      14.37327868       7.31164264       4.61309480       0.01336044      -0.00138915      -0.00671870
C       16.11478547       7.49947436       4.93071645       0.01289357       0.00266111      -0.00374140
Cl       4.83033847       8.64431039      11.56511376       0.00304669       0.00341350       0.00670919
Cl       4.16555099       9.84143890       9.00998524       0.00258830      -0.00844687       0.00127137
Cl       4.82369493      11.52831206      11.28302348       0.01769224       0.00251359      -0.00933200
Cl       2.32240547      10.06229108      11.23754259       0.01024294       0.01415370       0.00576523
C        4.03856063      10.03462435      10.77933126       0.00917529       0.00280950       0.00135309
Cl       8.48728324       0.18329099       3.92234975      -0.00073072      -0.00524598       0.00811845
Cl       7.44891349       2.63162724       5.05222316       0.00906754       0.00174814       0.00070556
Cl      10.29034279       2.37083675       4.53833034       0.00964224      -0.01407573       0.00696483
Cl       9.05902936       0.84571905       6.68342449      -0.00271155      -0.00440091       0.00746715
C        8.82402903       1.50315716       5.07503550       0.00392525      -0.00474934       0.00676070
Cl      11.74758839      14.87788947      14.52997007       0.03406286      -0.00881386       0.00123313
Cl      11.38973597      16.08337676      17.13125702       0.00880863      -0.00000487      -0.00813937
Cl      11.49161020      17.74575088      14.77146614      -0.01411331      -0.01041597      -0.01658407
Cl      13.94139691      16.46909759      15.71386525       0.00771043       0.02645555      -0.00130722
C       12.05809454      16.27161722      15.52098461       0.00379258       0.00281747      -0.00787444
Cl      16.99425690      10.74123758       0.97115783       0.00618285       0.00876372       0.01337746
Cl      14.89435425      12.56728167       0.18421416      -0.01007402      -0.01239339      -0.00345001
Cl      15.55353299      12.23905376       2.99506593      -0.01874409      -0.00251603       0.00152957
Cl      14.22049475      10.11507623       1.56171279       0.01150638      -0.01937777       0.00152037
C       15.40519137      11.42257283       1.43505026      -0.00276295      -0.00695332       0.00220174
Cl       5.06763131       7.59522337      -1.49896048       0.00088944       0.00257179       0.01068950
Cl       5.39772390       4.71540024      -1.66538725      -0.01644182       0.00017318       0.01017156
Cl       4.39635978       5.92055307       0.76773628      -0.00663549       0.00722852       0.01151931
Cl       7.17058694       6.28528136      -0.00228243      -0.00550300      -0.01084218       0.00798976
C        5.50453554       6.12528441      -0.60008086      -0.00721544      -0.00040350       0.00993480
Cl      16.14951226       3.35563047       1.46676468      -0.00054160      -0.00950335       0.00212154
Cl      15.17125218       1.64575746       3.60038799      -0.01481774      -0.01139253      -0.00604415
Cl      13.84126627       1.66779887       1.02649405      -0.01019326       0.00460166      -0.00842217
Cl      13.64328151       3.96689209       2.78207960       0.00125837       0.00038615       0.00092392
C       14.69984743       2.66255285       2.22569416      -0.00609105      -0.00408952      -0.00322720
Cl      12.43382365       4.99285021      16.64041445      -0.01186533       0.00176001       0.02710176
Cl      11.81595061       6.83077650      18.80557542       0.00548181       0.02362020       0.01581100
Cl      12.26680547       7.83978539      16.13540286       0.01904023       0.00061890       0.00884977
Cl      14.48232291       6.76411190      17.66645361       0.00495750      -0.01157670       0.01797152
C       12.75188468       6.60415280      17.30244030       0.00358492       0.00301218       0.01769033
Cl       4.42291353      10.09641438       4.95042238      -0.00087321      -0.01611654       0.01743764
Cl       2.97319897       7.89636733       3.73901349      -0.00608855      -0.00022674      -0.00383310
Cl       5.09876529       9.21619394       2.28257233       0.00816274      -0.00564746       0.01664925
Cl       2.58911136      10.58973575       2.75998252       0.01286829       0.00747180       0.00990860
C        3.77360689       9.44911467       3.43161474       0.00302982      -0.00261194       0.00989844
Cl       8.22506441       4.51943746      13.70960919      -0.01392120      -0.01641417      -0.03300351
Cl       8.40642450       1.61823754      13.65972370       0.01002705      -0.01828849      -0.00445437
Cl       9.30951301       3.09560754      15.98795823      -0.02073660       0.01069993      -0.00943655
Cl      10.80820977       3.24258967      13.50649998       0.00152981      -0.00287571       0.00363711
C        9.16561728       3.10011969      14.20549357      -0.00577833      -0.00593328      -0.01102170
Cl       4.11150123      13.78901920       1.48154811       0.00412291       0.00891653       0.00255048
Cl       5.20809858      11.72621510      -0.24589100      -0.01555236      -0.00393838       0.00518253
Cl       6.78087684      12.76364493       1.96387463       0.00869334       0.00777473      -0.01815826
Cl       6.22593571      14.41519391      -0.38002725      -0.01249301      -0.00655222      -0.02465969
C        5.59914157      13.18623283       0.69970187      -0.00380658       0.00168129      -0.00908235
Cl       8.45881922       9.37103780      10.40888607       0.00625938       0.00885296      -0.00718037
Cl      10.90238644       9.80193936       8.91014819      -0.00385788      -0.00627340      -0.02403903
Cl      11.00874995       9.48261635      11.78321434       0.01761860       0.01286703      -0.02368140
Cl       9.86584740      11.89863836      10.61792323       0.01364456       0.01029229      -0.03248505
C       10.04962190      10.16106667      10.43234295       0.00769101       0.00784221      -0.02101997
Cl       0.81262143       7.08508106      16.81642692      -0.00962826       0.01010767      -0.00091898
Cl      -0.82762187       5.68716230      14.87444732      -0.00462121       0.00560790      -0.00060317
Cl       1.03295798       4.20651627      16.54340297      -0.00358524       0.01315951       0.00308417
Cl       2.02286456       5.93794430      14.44154384      -0.00366190       0.01129201       0.00282007
C        0.75685671       5.72881839      15.66277433      -0.00564714       0.01028154       0.00040224
Cl       3.64986710      13.30064128       7.72229531      -0.01698351      -0.00127818       0.00881004
Cl       1.48305352      11.74265316       6.58040535      -0.01274627      -0.00368595       0.00001994
Cl       2.77750946      13.81342389       5.01122300       0.00891237      -0.01525451      -0.00135541
Cl       1.07296792      14.53032233       7.24443507      -0.00708222       0.00236937      -0.02070330
C        2.25388189      13.34383226       6.64348086      -0.00657099      -0.00609708      -0.00365153
Cl      11.03658607      11.07758402      17.90302307       0.01262057      -0.00035128      -0.00772536
Cl      10.51015800      10.61421291      15.08315078       0.00747591      -0.01162702      -0.00620747
Cl       8.99209375      12.59227573      16.50705381       0.00887573      -0.01076555      -0.01539737
Cl       8.57882078       9.77979296      17.07917507       0.00873023      -0.00923163      -0.00141202
C        9.77350328      11.03451522      16.64997634       0.00930001      -0.01084182      -0.00590266
Cl      11.97322345      13.83369403       2.82203706      -0.00984296       0.00608456      -0.00503857
Cl      14.04421498      15.65138962       1.92922025       0.00223497      -0.00061821       0.00608394
Cl      13.54904710      15.30863778       4.75594954      -0.00889266      -0.00781723       0.00332892
Cl      11.61701041      16.69207006       3.11740534       0.00392270       0.00826907       0.00273022
C       12.79206603      15.37420519       3.15700093      -0.00348710       0.00137737       0.00107903
Cl       2.03740340      16.69142678       2.51671428       0.00940076      -0.01684529       0.00100976
Cl      -0.46781081      17.06497685       1.10391516       0.00693873      -0.00146742       0.01227751
Cl      -0.44017263      15.88562883       3.77210568       0.00714338      -0.00445955       0.00833160
Cl       0.59058710      14.39533785       1.51522994      -0.00614996      -0.00733876       0.00430781
C        0.44324197      15.99629909       2.25110977       0.00360392      -0.00667185       0.00545654
Cl       6.66107945       1.58914880       0.54424463      -0.00566691       0.01588270      -0.00420743
Cl       3.94583510       2.24323628       1.31898226      -0.00879532       0.00374928      -0.00537123
Cl       5.26393273      -0.07775203       2.45112924       0.00380043       0.01231369      -0.00215977
Cl       4.47549914      -0.07887146      -0.33792950       0.00433645       0.00417435      -0.00105667
C        5.08404397       0.91166811       0.98159232      -0.00233748       0.00972232      -0.00217493
Cl      15.39512692       4.56147085       8.24022539      -0.00179374       0.00666922      -0.00694317
Cl      13.67162194       4.50936576      10.57174597      -0.00376445      -0.00083545      -0.00967318
Cl      13.02574288       6.23111227       8.32546691      -0.00040090       0.00757244      -0.00232077
Cl      15.29213222       6.84588620      10.02435422      -0.00132051       0.00038445       0.00191224
C       14.34225662       5.53574625       9.28613367      -0.00166020       0.00366342      -0.00402847
Cl       1.89769421       1.60724880      11.99197453      -0.00820339      -0.01691267      -0.00798452
Cl       3.24812077       2.22458219      14.46949210      -0.01787478       0.00660199      -0.00751156
Cl       3.32722115      -0.46629618      13.44286777      -0.00491774      -0.00085843       0.01112390
Cl       0.79550162       0.59559777      14.52491268      -0.01091254      -0.00401439      -0.00569338
C        2.38830884       0.98930540      13.55805727      -0.00686997      -0.00451060      -0.00309435
