143
Lattice="12.377316475255633 0.0 0.0 0.0 12.377316475255633 0.0 0.0 0.0 12.377316475255633" Properties=species:S:1:pos:R:3:forces:R:3 energy=-185135.4375 stress="0.0002807413402479142 0.0005356468318495899 0.000122329674923094 0.0005356468318495899 -0.0004900421481579542 -0.0005989375058561563 0.000122329674923094 -0.0005989375058561563 0.0005805172258988023" pbc="T T T"
Zn      11.84375466      11.88465377       0.56363920      -0.00764829       0.01509312       0.00170270
F        8.59761714      14.27709586      10.79026993      -0.00388107       0.00960276       0.00084401
F       12.09245020      11.63736638      11.17760820       0.00095042       0.02728142       0.00094251
O        9.13984313       9.56192468       5.89364756      -0.00397845       0.00426479       0.00131048
O       11.07269080      10.66431321       5.90085337      -0.00800391       0.01134892      -0.00042404
O        9.47562297      11.21757557       4.40577694      -0.01673707       0.01504791       0.00333524
C        9.76205919       9.17634256       7.12605729       0.00131041       0.00094211      -0.00266361
C       11.16839274       9.75211872       7.00741749      -0.00257570       0.01122129      -0.00161988
C        9.86068722      10.55591232       5.31703266      -0.00735059       0.00569290       0.00836098
H        9.72136393       8.09402173       7.21423966       0.00871262      -0.00007176      -0.00863429
H        9.21928364       9.65142704       7.93945442      -0.00030467      -0.00824389       0.00177464
H       11.44979734      10.31590631       7.89440660      -0.00672017       0.01227239      -0.00060529
H       11.92806405       9.00312725       6.78622942       0.00311038       0.01630270      -0.00134973
O        9.87789431      11.30162158       0.86700229      -0.00072653       0.01566428       0.00136100
O        7.94419093      10.26445644       1.18925431       0.00684522       0.00662342       0.01157284
O        9.82066731       9.38830340       2.08259550       0.01528937       0.02090943       0.00985962
C        8.83419101      12.25382731       0.40533504      -0.00684043       0.00904840       0.00185244
C        7.67492622      11.31851565       0.21846756      -0.00100303       0.00106100       0.00689113
C        9.24851857      10.21687709       1.45503302       0.00734624       0.01484871       0.00794280
H        9.13267154      12.77296270      -0.51060235      -0.01118584       0.00971255       0.00045061
H        8.67207630      12.96585819       1.21178685      -0.00900257       0.00947827       0.00108600
H        6.71108126      11.75462497       0.45843715      -0.00358099      -0.00423351       0.00557184
H        7.64926760      10.85941395      -0.76874540       0.00124045      -0.00397903       0.00908759
O        2.89264365       9.99029849       5.90622165       0.00439407       0.01152977       0.01220584
O        1.95041247       8.87213680       7.58257859       0.00084863       0.01094308       0.00970618
O        2.69524799       7.75303145       5.77523449       0.01360258       0.01003861       0.01437670
C        2.38626478      11.01105736       6.79278654      -0.00338789       0.01113361       0.00835115
C        2.05418132      10.23430661       8.05989289      -0.00330072       0.01180645       0.00865686
C        2.53322921       8.77416747       6.37532126       0.00671241       0.01229060       0.01309845
H        1.51598750      11.46727432       6.31928407      -0.00431588       0.00567992       0.00494972
H        3.16637791      11.75388774       6.93698880      -0.00768092       0.01546839       0.00904270
H        2.83691118      10.26750189       8.81173450      -0.00424847       0.01420737       0.00963932
H        1.10722860      10.51274948       8.51412121      -0.00472552       0.01015208       0.00693002
O       11.33615673       5.79394660       3.11541899      -0.01937769       0.02220416       0.00889561
O       12.07341092       7.80670902       2.54088073       0.01514319       0.00550786      -0.00308581
O       10.74889304       6.65786888       1.11563063      -0.00836378       0.02347527       0.00974691
C       12.32551613       6.15381875       4.10137189      -0.00595866       0.00639468       0.00140691
C       12.37406768       7.65774051       3.93722187       0.02337235       0.00478393      -0.00439164
C       11.32958635       6.74959654       2.15155007      -0.00763258       0.01795583       0.00072497
H       13.27523247       5.68721771       3.83569444      -0.01792422      -0.01456212      -0.00363798
H       11.98924629       5.80768728       5.07505516      -0.00696225       0.01711106       0.00425163
H       11.58474267       8.16143066       4.50244445       0.03826839       0.02321480      -0.00057866
H       13.34607335       8.09466695       4.13932409       0.03335550      -0.01424517      -0.01340652
O       11.17094655       1.35127422       1.13586165      -0.00552946       0.02303994      -0.00160292
O       11.75316128       3.17997172       2.23044161      -0.00056557       0.03046587      -0.01128861
O       11.85948022       1.19262137       3.27978774      -0.00044678       0.04033625      -0.01822996
C       11.17486950       2.39198983       0.09512304      -0.00760503       0.01720644      -0.00624609
C       11.32519378       3.65763693       0.91905203      -0.00899778       0.02228433      -0.00994372
C       11.61348995       1.87626918       2.33463287       0.00266321       0.00829983       0.01036865
H       10.23576595       2.31156775      -0.46693977      -0.00707322       0.01473613      -0.00514758
H       12.02805318       2.19012181      -0.54350378      -0.00714329       0.01781511      -0.00468048
H       12.09767635       4.32907089       0.55298927      -0.01286945       0.02282357      -0.01372743
H       10.39355927       4.19137552       1.05926776      -0.01078528       0.01745507      -0.00580291
O        7.01157812       0.07466928       6.40857369      -0.00263029       0.00195667       0.00392909
O        8.26359413       1.85276993       6.85387179       0.00303440      -0.00357544       0.00985083
O        8.97728404      -0.19629771       7.46640119      -0.01001936      -0.00548190       0.01237902
C        6.39025477       1.16898528       5.69060360       0.00619093       0.00465864       0.00021315
C        7.00817894       2.37894625       6.36103692       0.00764364       0.00181866       0.00422181
C        8.15991708       0.51636267       6.95582612      -0.00155604      -0.00458431       0.01042807
H        5.31424372       1.08979389       5.82624059       0.00524095       0.00923110      -0.00625616
H        6.64938914       1.08580515       4.63669675       0.01207612       0.00380940       0.00173855
H        7.21514267       3.19531600       5.67613170       0.01410569       0.00185660       0.00644535
H        6.43817868       2.74026181       7.21604108       0.00483486       0.00311875       0.00183910
O        5.82214816      11.23130856       3.72106031      -0.01133317       0.00420313       0.00281909
O        5.20566547       9.42594309       2.58799833       0.00061776       0.00588986      -0.00616345
O        4.86135416      11.46240509       1.70506423      -0.00596958       0.00746876       0.00041938
C        6.10069770      10.13157227       4.61456387      -0.00557183       0.00204998      -0.00132787
C        5.91414966       8.90662421       3.72742442      -0.00272661       0.00391436      -0.00489902
C        5.26439355      10.76396142       2.59364017      -0.00548410       0.00579911      -0.00025386
H        5.37955121      10.17300423       5.42967650      -0.00398210      -0.00296410       0.00020665
H        7.11190297      10.24894459       4.98515388      -0.00513726       0.00467514      -0.00321063
H        6.86312302       8.50026733       3.37640039      -0.00181341       0.00437854      -0.00291246
H        5.30231083       8.13264440       4.18492806      -0.00414053       0.00300848      -0.00826278
O        1.78418220       1.68768627       1.03526767      -0.01043692      -0.02520189       0.00878775
O        2.70323036       0.68656576       2.77488214      -0.01402155      -0.02077779       0.01222080
O        1.18031191      -0.41118013       1.56886649      -0.02210799      -0.01890001       0.01981942
C        2.58378395       2.73143008       1.67750967      -0.00303552      -0.02641332       0.00031975
C        3.46587080       1.91944874       2.61255192      -0.00750738      -0.02589023       0.00496054
C        1.85009734       0.59447458       1.78406422      -0.01531301      -0.02150393       0.01537884
H        1.89503179       3.40346752       2.18443346       0.00192001      -0.01794076      -0.00416943
H        3.11539604       3.27646757       0.90517992      -0.00013068      -0.03559357      -0.00434878
H        4.43461374       1.64891510       2.19456128      -0.00940865      -0.03469723       0.00603592
H        3.58309345       2.36734441       3.59391222      -0.00527734      -0.02111766       0.00238267
O        8.31593546       4.34829009       2.20609507      -0.01253524      -0.00324032       0.00328473
O        6.52561460       4.09490942       3.49570171      -0.01178445      -0.00559366       0.00399297
O        7.50671981       2.28527432       2.59732312      -0.01196812      -0.00430679       0.00073892
C        8.06059390       5.67240125       2.72560565      -0.01337099      -0.00372925       0.00462216
C        6.69961255       5.52798102       3.39898524      -0.01297373      -0.00518182       0.00532745
C        7.45416305       3.47368413       2.73859590      -0.01264772      -0.00396430       0.00276184
H        8.06248951       6.36784103       1.89285523      -0.01454173      -0.00326884       0.00505877
H        8.86259787       5.91145349       3.42169322      -0.01312417      -0.00373363       0.00426614
H        6.66878120       5.93242662       4.40888984      -0.01218304      -0.00610667       0.00567648
H        5.89697742       5.92634227       2.78249006      -0.01370943      -0.00547129       0.00620660
O       11.66224883       2.78567265       9.63904655       0.01680660      -0.01109400      -0.00686072
O       12.84683745       2.46893445       7.78999936       0.00625723      -0.03064957      -0.01001590
O       13.68591570       3.75132555       9.45105339       0.02237034      -0.02353096      -0.02404052
C       11.00012870       1.69208248       8.94440724       0.00450328      -0.00877759       0.00046837
C       11.55315106       1.85662360       7.54528203      -0.00092081      -0.01811323      -0.00309128
C       12.81431470       3.06622800       9.00218375       0.01477081      -0.02304706      -0.01510915
H        9.92644998       1.80534389       9.08181653       0.00574481       0.00024404       0.00424044
H       11.31881573       0.76154575       9.42024204       0.00063735      -0.00848895       0.00356603
H       11.70559048       0.92499980       7.00760849      -0.01185712      -0.02105662      -0.00079316
H       10.96430979       2.53739190       6.92759447       0.00274628      -0.01369157      -0.00146407
O        5.68492122       3.81238267      12.59354969      -0.00351832      -0.00461936       0.00159112
O        5.09937539       5.14578795      10.91280099       0.00299588      -0.00662968      -0.00219485
O        6.05066663       6.03022278      12.75047369      -0.01442137      -0.00332749       0.00473583
C        5.39826709       2.92326136      11.48420985       0.00743720      -0.00579774      -0.00053018
C        4.61219774       3.83171448      10.55031326       0.01028484      -0.00864895      -0.00563109
C        5.64455981       5.08698011      12.13798314      -0.00575036      -0.00438190       0.00215235
H        4.82046684       2.08129313      11.86187983       0.00810465      -0.00778598      -0.00424823
H        6.35372991       2.56714700      11.08316602       0.01152194      -0.00234407       0.00556879
H        4.82246685       3.67673780       9.49684070       0.01757248      -0.00780943      -0.00424814
H        3.53441500       3.81333463      10.71640378       0.00926125      -0.01247795      -0.01277828
O        8.77985136       5.90321477       7.94858888       0.01872692       0.00264439      -0.00043820
O        7.16159627       4.60757696       8.74103200       0.01057047       0.01095836      -0.00378987
O        6.73641532       5.97658574       7.00182093       0.02564102       0.00047314      -0.01514965
C        9.41951928       4.98753666       8.88126325       0.01056343       0.00779324       0.00985276
C        8.25697679       4.48213616       9.69998791       0.00384149       0.01301785       0.00391501
C        7.48302278       5.52977800       7.82795497       0.01885957       0.00458837      -0.00750428
H       10.16959113       5.52951448       9.45085092       0.00645803       0.01088294       0.01245567
H        9.88917533       4.19926412       8.29367511       0.01517846       0.00405344       0.01867282
H        8.34548669       3.43146333      10.04929728       0.00027421       0.01384610       0.00667432
H        8.02827057       5.14500267      10.53836835      -0.00111142       0.01607388       0.00027692
O        1.24485734       7.73966583       0.01611702       0.00926018      -0.02779108      -0.01328918
O        2.55179612       7.78403746       1.81081244       0.00765935      -0.01362291      -0.01293704
O        1.81673176       5.81256858       1.02740931       0.01290942      -0.02047074      -0.00067367
C        1.30324425       9.13080400       0.38107506       0.00850791      -0.02440227      -0.02546173
C        2.41998666       9.16860978       1.41672113       0.00550050      -0.01601465      -0.02216136
C        1.86874851       7.01216483       0.95301123       0.01040108      -0.01977551      -0.00832645
H        0.32570665       9.39194997       0.79974980       0.00794008      -0.01967708      -0.03203836
H        1.51371486       9.72068918      -0.50654682       0.01287615      -0.03255999      -0.02974960
H        3.36269031       9.50515136       0.99671543       0.00642133      -0.01723082      -0.02097064
H        2.17838105       9.74925933       2.30403342       0.00074628      -0.01120508      -0.02674499
O        6.18272277       8.86594197      10.48180771       0.00027817       0.00563852       0.00473767
O        5.15254897       9.67924527       8.68507463      -0.00425699      -0.01219290      -0.00057998
O        4.04604915       9.55483328      10.64078138      -0.00287759      -0.00010881       0.00220388
C        7.19594909       8.88876491       9.46741355      -0.00107491      -0.00156766       0.00328228
C        6.43639900       9.25481979       8.19047636      -0.00175328      -0.00750715       0.00176990
C        5.03708538       9.37668379      10.00117039      -0.00019848      -0.00250364       0.00064316
H        7.66415259       7.90826637       9.42271763      -0.00247954      -0.00256580       0.00847770
H        7.93754325       9.63990149       9.74307619       0.00044352      -0.00113714      -0.00169961
H        6.88361732      10.08590565       7.64948766      -0.00450020      -0.00656313       0.00069714
H        6.29024512       8.40007310       7.53038923       0.00269320      -0.00908485       0.00277868
