150
Lattice="16.35839754064787 0.0 0.0 0.0 16.35839754064787 0.0 0.0 0.0 16.35839754064787" Properties=species:S:1:pos:R:3:forces:R:3 energy=-1181649.5 stress="-0.00020773500727955252 -2.9591877819257206e-06 0.00019145040278090164 -2.9591877819257206e-06 -0.00022554959286935627 5.861146928509697e-05 0.00019145040278090164 5.861146928509697e-05 -0.0003799158148467541" pbc="T T T"
Zn      16.03145260      16.95005314       0.09798174      -0.00372021      -0.00154245      -0.02019176
O       14.82016865      14.23723628       1.96177150       0.01071370       0.03443480      -0.02488816
O       15.59338155      15.10579295       0.02155563      -0.00011119      -0.00217775      -0.00869584
O       15.69288600      16.33093892       1.88341113       0.01532280       0.00068152      -0.01181459
C       15.33734135      15.14537412       1.33645093      -0.01334532      -0.02678913       0.01376274
Cl      11.61235087      13.93575327       9.64536012      -0.00602569      -0.00693885       0.01616764
Cl      14.50165213      14.12525191      10.02003326      -0.00478047       0.00040250      -0.00031012
Cl      12.75853585      16.23983310      11.02595975      -0.00302307       0.00151229      -0.00047109
C       12.91257933      14.50623392      10.71121689      -0.00179685       0.00048147       0.00691673
H       12.82102093      13.97961850      11.65468508       0.00399273       0.00443086       0.00974756
Cl       8.85487661       9.42757068       5.60314346      -0.00511338      -0.00637138       0.00745928
Cl       9.08143050      12.31204831       6.00878551       0.00496626      -0.00354528      -0.02417268
Cl       6.94841353      10.80473700       7.31987056       0.01178846       0.01589286       0.00754538
C        8.61965654      10.76802618       6.73501476       0.00728462       0.00547702      -0.00433189
H        9.26364724      10.59067141       7.58793612       0.01432218       0.01329800      -0.00796703
Cl       8.19147133       6.82700938       3.28784480       0.00232542       0.00799879      -0.00265201
Cl       9.85358067       4.57016857       4.11893228      -0.00456382       0.00383729      -0.00174151
Cl       9.98499842       5.55095086       1.37526448      -0.00726805      -0.00353248      -0.00473866
C        9.73726943       5.98668119       3.07284051      -0.00171005       0.00156206      -0.00538014
H       10.51987365       6.68021086       3.35536654       0.00153247      -0.00093108      -0.00885836
Cl       5.07218358      14.89591852       8.83741291      -0.00019979      -0.00707288      -0.02022825
Cl       2.16099276      14.66612174       8.96163175       0.00099272      -0.00508716       0.00492066
Cl       3.38217665      16.93606812       7.61384755      -0.00815871       0.00922036       0.01918018
C        3.54605420      15.22793561       7.99601084      -0.00759908       0.00482438      -0.00142466
H        3.54994390      14.66217161       7.07179748      -0.01730547       0.01624748      -0.00812745
Cl      14.73164390      10.06903561       8.20444171      -0.00074008      -0.00312391       0.01416352
Cl      12.84074529      11.36791794       6.40048564       0.00805650       0.00562814       0.01120320
Cl      11.85973266       9.76696391       8.63032191      -0.00232850       0.00386478       0.00545282
C       13.15507519      10.85164322       8.05143764       0.00190774       0.00127993       0.01089000
H       13.15402519      11.72498192       8.69241202       0.00212423      -0.00006664       0.01254931
Cl      11.81907438      10.72368934      12.87513202      -0.02265081      -0.02146363      -0.00615367
Cl      14.51947271      10.13035351      11.94656044      -0.00716302       0.02032226       0.01357463
Cl      13.23250394       8.36627754      13.88394634      -0.00089273      -0.00770366      -0.00851694
C       12.98849649       9.44258856      12.49956587      -0.00307922      -0.00340553      -0.00447809
H       12.57550061       8.84989389      11.69284621       0.01166994      -0.00239302      -0.01263767
Cl       5.65083132       6.29089756      -1.15436727       0.00003107      -0.00912045       0.00715388
Cl       4.25208303       8.75854096      -0.47694348       0.00534996      -0.00204055      -0.00921494
Cl       3.87609500       6.39036925       1.17562412      -0.00867754       0.00568204      -0.00055280
C        5.00741602       7.30288918       0.15794082      -0.00206006      -0.00167652       0.00016190
H        5.84691197       7.59085243       0.77907746      -0.00379167      -0.00194591       0.00247589
Cl       9.38219549       4.35376881       7.93521217       0.00681895      -0.00078213       0.00164037
Cl       6.83875288       4.73845256       9.31046642       0.01265240      -0.00588329       0.01236132
Cl       7.17091714       5.70418040       6.57630450       0.00070119       0.00036198       0.01339814
C        7.62392198       4.45987626       7.74531849       0.00611416      -0.00222709       0.00854562
H        7.27818626       3.50732637       7.36316787       0.00545201      -0.00185764       0.00806526
Cl      15.83489336       8.41296180       5.00713363       0.00842935      -0.00191000       0.00046578
Cl      13.28608313       7.04412128       4.60798312       0.01029794      -0.00158627      -0.00840914
Cl      15.37687284       5.80110258       6.22343787       0.00396952       0.00066525       0.00310720
C       14.63740575       7.33688715       5.71935497       0.00537538      -0.00051687      -0.00320982
H       14.23516006       7.80736455       6.60855290       0.00152411       0.00037597      -0.00555629
Cl       2.97117548      11.14082894      11.06887688      -0.01061282      -0.00049670       0.00425056
Cl       3.14597430      13.21775584      13.12493280      -0.00244302       0.00547747      -0.00246322
Cl       4.95140664      10.92481235      13.19182558       0.01184459       0.01661247      -0.01498082
C        4.04400449      12.03622506      12.16016259      -0.00531811       0.00832679      -0.00851269
H        4.75224886      12.58101875      11.54828534      -0.01472841       0.01093678      -0.01683061
Cl       8.16341191       0.55709227       3.16260233      -0.01241852      -0.00698322      -0.00005007
Cl       9.36366060       1.10211240       5.77284069      -0.00422496       0.00820294      -0.00686686
Cl       6.47373257       1.33896708       5.41370235      -0.00874811      -0.02537790       0.01055186
C        7.94874803       0.48050695       4.91075009      -0.00199339      -0.00758534       0.00093127
H        7.82567030      -0.55910751       5.18714444       0.01108902      -0.00851369       0.00210743
Cl      10.37864558      15.77688667      15.97275602      -0.01771805      -0.00873081      -0.00262016
Cl      12.90649397      14.88302393      14.84074707      -0.00005990       0.01083529       0.01738775
Cl      10.38931064      14.27963678      13.46096960       0.01625106      -0.01029602      -0.00030631
C       11.26676362      15.44016018      14.48605135      -0.00182445      -0.00234613       0.00555017
H       11.34289373      16.36235585      13.92351851      -0.00816309      -0.00182474       0.00599308
Cl      10.87948319       9.77717247       2.39458040       0.02180171       0.00443658       0.00167155
Cl      12.20769953      11.21488701       0.22468121       0.02529472       0.00831908       0.00836632
Cl      13.47692941      11.03438442       2.83882646       0.01606399       0.01284310       0.01549622
C       12.44782282      10.22314445       1.67326486       0.02395660       0.01028004       0.00997753
H       12.93429214       9.30610406       1.36375372       0.02616657       0.01112410       0.01127624
Cl       6.60859198       2.22925565      -0.12593363       0.00299418       0.01687130      -0.00347954
Cl       4.11450638       2.11361095       1.38923635       0.00677711       0.00151637       0.00114466
Cl       6.32281697       3.76963721       2.33871767      -0.00042364       0.01085915      -0.00029600
C        5.50343508       3.12302497       0.91927320      -0.00008813       0.00914056      -0.00008742
H        5.11596186       3.96052832       0.35311248      -0.00521107       0.00783932       0.00161171
Cl      15.61210405       3.33124410       1.94867029       0.00669829      -0.00866769       0.00407669
Cl      12.70506320       3.54038615       1.86535075       0.00870645      -0.00418683       0.01813852
Cl      14.07826832       2.01019370      -0.17892786       0.00285217       0.01563244      -0.00466916
C       14.08614789       2.53132487       1.58356606       0.00536613      -0.00290811       0.00006372
H       14.04496096       1.59921165       2.14437792       0.00672473      -0.00986975      -0.01187055
Cl       2.58521569       9.68111705       3.38121232       0.00105661      -0.00254308       0.00179797
Cl       3.56350479       7.27403821       4.73896637       0.00537853      -0.00109810       0.00059393
Cl       5.44943598       9.11483622       3.47257520       0.00241689       0.00424483       0.00358088
C        3.89886380       8.96167997       4.32490679       0.00190349      -0.00022061       0.00185042
H        3.98431552       9.52038998       5.24917701       0.00047753      -0.00080116       0.00219995
Cl      10.22879951       2.16968078      12.44084255      -0.00824674       0.00331056      -0.01040467
Cl       8.17655970       4.06294010      13.28277680      -0.00768241       0.00224260      -0.00713128
Cl      10.98323878       4.61253295      13.86629700      -0.00802812      -0.00609355       0.00329953
C        9.83959721       3.87624640      12.72396959      -0.00632947       0.00296701      -0.00373112
H        9.94285880       4.39112625      11.77645006      -0.00378514       0.00957410      -0.00001401
Cl       5.49067242      15.02276671      -0.24495770      -0.00327414      -0.00388694      -0.00069660
Cl       5.09385953      12.25172480       0.58877583      -0.01247305      -0.00294304      -0.00236244
Cl       7.64391225      13.58581034       1.10821057      -0.01203823      -0.00869206       0.00749956
C        5.88928018      13.78962067       0.96108420      -0.01083627      -0.00454864       0.00088799
H        5.51403090      14.13351214       1.91671255      -0.01379499      -0.00391328      -0.00055376
Cl       2.84461985       4.07563559      14.78449302      -0.00876585       0.01387613      -0.00072918
Cl      -0.00742952       4.02808581      14.27414702      -0.00800931       0.00920153       0.00855332
Cl       1.37146809       1.59174074      15.24647419      -0.00362468       0.00307027      -0.01752681
C        1.29062186       3.46903918      15.27426828      -0.00413462       0.00397909      -0.00056390
H        1.10477031       3.70470476      16.31711456      -0.00096212      -0.00857730       0.00280036
Cl       8.91763418       8.02273776       9.06386657       0.00210762       0.00245513       0.00171056
Cl       7.34295756       8.29380724      11.49904853       0.00313249      -0.01796178       0.00417912
Cl      10.08923162       7.29697975      11.63336595       0.00987518       0.00156534      -0.00245440
C        8.95624043       8.37958683      10.79603239       0.00154365      -0.00327697       0.00272489
H        9.32975754       9.38826742      10.92783489      -0.00547544      -0.00109467       0.00587572
Cl       1.79783062       2.39581559      11.38590906       0.00488488       0.01030480       0.00121057
Cl       3.63121540       0.20558282      11.98993557      -0.00927464      -0.00185534       0.00016689
Cl       4.59357053       2.58006219      10.56015132       0.01079480      -0.00013499       0.01747808
C        3.48280131       1.94899357      11.77248379       0.00053220      -0.00016519       0.00770154
H        3.72450505       2.42131885      12.71653198      -0.00259496      -0.00587007       0.01124811
Cl       1.92055640       9.65467147       8.06043345       0.00023379      -0.00971636      -0.00500942
Cl       3.79512997      11.67961039       7.11749115      -0.01202096       0.00306705      -0.00286683
Cl       0.99229462      11.83805239       6.35329259      -0.01084349      -0.01986368      -0.01188126
C        2.11849263      11.35540268       7.61345145      -0.01086167      -0.00891624      -0.00768991
H        1.93422887      11.95823398       8.49454211      -0.01862659      -0.00882860      -0.00952324
Cl       7.70375243       9.62294559      16.98467358       0.00603527       0.00416587       0.01312657
Cl       9.40900767       8.14444012      15.12639376      -0.01104023       0.01127180      -0.00759016
Cl       8.33779765      10.75440369      14.37755591      -0.01959129       0.01343468       0.01030824
C        8.92294645       9.73921916      15.70189288      -0.00750536       0.00900905       0.00083983
H        9.79357339      10.21990909      16.13039928      -0.00301525       0.00724222      -0.00773408
Cl       3.18765795       7.38255228      12.07666993      -0.01290601      -0.00309855       0.00867176
Cl       0.28406628       7.04363653      12.04744692      -0.01277152       0.00041443      -0.02505505
Cl       1.82177039       6.54887596       9.62477980       0.01931606      -0.03810473       0.00383058
C        1.83245829       6.47868019      11.39424294      -0.00502415      -0.01127325       0.00432888
H        1.95210557       5.43731409      11.66940350      -0.01107957      -0.00691596       0.02280240
Cl      11.99711693      16.65211826       3.04508483       0.00409128      -0.00878677      -0.00222908
Cl      12.88107858      15.10462673       5.35705355       0.00843588      -0.00109065       0.00206816
Cl      11.09919701      13.90386569       3.37845884      -0.00475538      -0.00343663       0.01521922
C       12.44373256      15.03025219       3.64484060      -0.00046319      -0.00700332       0.00512932
H       13.31378282      14.69429224       3.07595281      -0.00316232      -0.01284544       0.00202855
Cl       3.67030216      15.77635957       3.96131666      -0.02045524       0.03216035       0.00453757
Cl       2.02794034      13.91785263       2.42359999       0.01713007      -0.00828788       0.01760213
Cl       1.01240791      15.05326145       4.91953876      -0.00669315      -0.00887847       0.00761366
C        2.01065129      15.32407548       3.49096273      -0.01105969       0.00011516       0.00614919
H        1.57058137      16.15126679       2.94632081      -0.02889794      -0.01412043      -0.00118439
Cl      12.99851000       6.35312270       9.06117199      -0.00852263       0.00418997      -0.00423328
Cl      13.07700972       4.16284817      10.98326658       0.01587281       0.00680153      -0.00271189
Cl      12.85863950       3.58412812       8.13158254       0.00768693       0.00279133      -0.00132717
C       13.52225381       4.68139279       9.34912216       0.00500113       0.00849303      -0.00504266
H       14.60255482       4.65558972       9.27003762       0.00475252       0.01663475      -0.01010794
Cl      -0.30560929       9.57187116       1.04520666       0.00656223      -0.01362157       0.00946629
Cl      -0.17052192       6.70434174       1.57333173       0.02139993      -0.01692557      -0.01344173
Cl       0.68673376       7.74164324      -1.00413972      -0.00097756       0.00619275      -0.01200074
C        0.57686072       8.07801026       0.72695804       0.00990053      -0.00744471      -0.00886662
H        1.58046961       8.19044244       1.11987920       0.01236486      -0.00701009      -0.01561221
Cl       3.35386416       3.45988307       4.84582509       0.01376548       0.01564838      -0.00540610
Cl       0.67169211       2.42458144       5.35799677       0.01994655      -0.01133785      -0.01601551
Cl       2.07710290       3.91688707       7.43411875      -0.00021544       0.00021403      -0.01202753
C        1.82257392       3.72517703       5.69237825       0.00715648      -0.00090633      -0.01291652
H        1.39755387       4.65155286       5.32509437      -0.00015971      -0.00480562      -0.01418701
