146
Lattice="12.709430520039318 0.0 0.0 0.0 12.709430520039318 0.0 0.0 0.0 12.709430520039318" Properties=species:S:1:pos:R:3:forces:R:3 energy=-552581.6875 stress="-0.0004926463006995618 -0.0006749332824256271 -1.0810249477799516e-05 -0.0006749332824256271 -0.0011108863400295377 -6.168346226331778e-05 -1.0810249477799516e-05 -6.168346226331778e-05 9.441631846129894e-06" pbc="T T T"
Zn      12.66243078      13.06337775       0.55826099      -0.01551433       0.02860408       0.01981235
I        1.96215047      10.97591426       0.96474934      -0.02020605       0.02276637      -0.01453356
O        0.34966532      11.08959720       0.09443856      -0.02312720       0.04032199      -0.00664946
O        1.86156533       9.92418890       2.38921499      -0.03214955       0.01405114      -0.02517489
O        3.28467571      10.52610565      -0.14277474      -0.03120683       0.00703817      -0.01984678
O        1.89456871      12.76743613       1.34765900      -0.00710280       0.01465964       0.01900662
I        1.01297892       9.40950705       6.07840124      -0.01652119      -0.00068729      -0.01180309
O        0.68533269       8.92745945       7.78253352      -0.01088309      -0.03163743      -0.01974511
O        0.87555371       7.96976701       5.03345426       0.00363782       0.01418483      -0.03542960
O       -0.16993667      10.67892431       5.62105362      -0.03695965      -0.01182592       0.01201105
O        2.68683507      10.04294120       5.99540395      -0.02717447       0.02626967      -0.00383565
O        8.36362600       9.70086144       9.72874579       0.00938264       0.00927452       0.01239504
O        6.49376469       8.69109132      10.04486673       0.00984335       0.00854006       0.02115488
O        6.72073342      10.80242933      10.84179967       0.00917441       0.00768769      -0.01448900
C        9.21869898      10.85681812       9.87291250       0.00628722       0.01355785       0.00501943
C       10.52583456      10.54613553       9.19307296       0.00635773       0.00976910       0.00651309
C        7.14401754       9.82974251      10.26449224       0.00039905       0.03088844       0.01729774
C        5.13396691       8.63710366      10.50802680       0.00949069       0.01495166       0.02120970
H        8.70893722      11.71188204       9.42227409       0.00498578       0.00862375      -0.00096744
H        9.33882802      11.06095313      10.94015478       0.00488395       0.01960717       0.00336832
H       11.21058863      11.38897093       9.28701031       0.00616661       0.01098573       0.00154974
H       11.01393249       9.68319830       9.64398866       0.00693028       0.01255856       0.01059881
H       10.37872904      10.34819663       8.13305003       0.00507461       0.00452342       0.00791621
H        5.09327229       8.79273827      11.58486193       0.00840408       0.02951747       0.01837245
H        4.79800691       7.63953427      10.24521791       0.01058943       0.01074484       0.03419213
H        4.53464011       9.39198933      10.00265979       0.01142511       0.00917315       0.01247707
O        3.13640871       3.28208085      10.98348612      -0.00198309      -0.00054604      -0.00119083
O        1.97659022       5.09516762      11.17005417      -0.00426948      -0.00095497       0.00082902
O        4.23216546       5.23480637      11.33464730      -0.01617110      -0.00761110       0.00729920
C        4.41281762       2.59514090      10.91234126      -0.00026686       0.00004071       0.00007868
C        4.13534906       1.12065784      10.80382357      -0.00244664       0.00043523      -0.00254817
C        3.21958568       4.59577177      11.17613903       0.01222306       0.00878626       0.00580680
C        1.90520723       6.51818464      11.35224879      -0.00285769      -0.00118230       0.00606010
H        4.96155372       2.98343293      10.05272000       0.00037679       0.00031441       0.00150549
H        4.98267324       2.84008474      11.80795736      -0.00229257      -0.00172703       0.00101560
H        5.07566451       0.56919372      10.75638381      -0.00283203      -0.00081577      -0.00283225
H        3.58398629       0.76418198      11.67396708      -0.00320436      -0.00034937      -0.00363338
H        3.56061625       0.89700363       9.90600690      -0.00205567       0.00229034      -0.00295258
H        2.35743530       6.80797696      12.29980347      -0.00759827      -0.00508168       0.00881019
H        0.84646617       6.75557915      11.34155149      -0.00330606      -0.00115454       0.00254025
H        2.40937995       7.03615037      10.53889610       0.00116155       0.00079215       0.01039571
O       10.67873838       7.53215538       6.17838409      -0.00296313       0.00279742       0.01087002
O       10.20543255       8.67321857       4.43083365      -0.01087454       0.00088971       0.00941533
O        9.11429116       9.16480106       6.35791839       0.00689316      -0.00376844       0.01236606
C       10.46078044       7.12485426       7.54120731      -0.00505090       0.00634909       0.01383467
C       11.58370382       6.17765209       7.86792581      -0.01246810      -0.00268877       0.01587076
C        9.92288598       8.52980161       5.72645904      -0.01460958       0.01061434       0.01905841
C        9.32036142       9.53171351       3.71802905      -0.00457435       0.00945424       0.01279441
H       10.47266368       8.00494508       8.17896435       0.00501291       0.00683594       0.01250130
H        9.47255406       6.65972203       7.60741537      -0.00885814       0.01565903       0.01522891
H       11.49605736       5.82229948       8.89552665      -0.01771621      -0.00144788       0.01672752
H       11.58011721       5.31915919       7.19469403      -0.01754896      -0.00304902       0.01678568
H       12.52391746       6.71171460       7.75165405      -0.00933746      -0.00812599       0.01821971
H        8.32410419       9.09269036       3.68167548      -0.01228988       0.02389209       0.03909349
H        9.72408977       9.59756032       2.71434937      -0.00881787       0.00733839       0.01269260
H        9.27718434      10.51585960       4.18193788       0.00994541       0.00662652       0.01658767
O        6.12412993       9.10668403       2.11045249      -0.01264058      -0.00811797      -0.01122155
O        7.50892835      10.70338324       1.70603845      -0.01025888      -0.01029788      -0.01827100
O        5.44876789      11.24102622       2.47508194       0.00580406      -0.01679635      -0.01053506
C        4.80096150       8.63824787       2.48639186      -0.01120143      -0.00423640       0.00162943
C        4.86821384       7.14348468       2.60497545      -0.00636867      -0.00350964       0.00977178
C        6.26995856      10.42635410       2.12549629      -0.02304041       0.00642675      -0.00528637
C        7.86194670      12.08934314       1.77902527      -0.01114644      -0.00917852      -0.02253134
H        4.49983726       9.11889594       3.41623555      -0.00164723       0.00102001       0.00076604
H        4.11455143       8.95108883       1.70314068      -0.01843932      -0.00907336       0.00612897
H        3.87541800       6.77254004       2.85897513      -0.00221872      -0.00436907       0.02621675
H        5.18331938       6.69591549       1.66020130      -0.01801315      -0.00950044       0.00920625
H        5.55299347       6.84200868       3.39743957       0.00468028       0.00423294       0.00279009
H        7.28082600      12.67407363       1.06985745      -0.01987624      -0.01045449      -0.01527974
H        8.91871653      12.13411790       1.53570989      -0.01376480      -0.00987224      -0.03663141
H        7.69870175      12.47891055       2.78092339       0.00227134      -0.00955380      -0.02089500
O        9.26101401       1.82647262       2.48545101       0.00819232      -0.01706964      -0.01289383
O        7.58956458       2.71849138       1.45113769       0.00736284      -0.01362410      -0.00672927
O        9.59823589       3.75586082       1.34389860       0.00440288      -0.01968038      -0.00931668
C       10.59981065       1.86888622       3.01247278       0.00692365      -0.01792490      -0.01172502
C       10.66912927       0.83955188       4.10923515       0.00488552      -0.01297772      -0.00776133
C        8.89017393       2.85912360       1.72076012       0.01220047      -0.00887227      -0.01334912
C        6.97937893       3.88625700       0.88203145       0.00579266      -0.01240800      -0.00460601
H       11.30567588       1.64452254       2.18463609       0.00735801      -0.02377535      -0.01098129
H       10.80943612       2.88077068       3.36289251       0.01364000      -0.01657498      -0.02161533
H       11.64678695       0.83522810       4.58653731       0.00384338      -0.00914060      -0.00471953
H        9.91974335       1.05078702       4.87403490       0.00153981      -0.01068693      -0.01216322
H       10.49668069      -0.16318337       3.72133230       0.00705368      -0.01485281      -0.00349660
H        7.23332510       4.76390338       1.47483547       0.00919406      -0.01300937      -0.00573149
H        5.91146974       3.70506264       0.92668375       0.00600520      -0.01224387       0.00076566
H        7.28527020       4.03124528      -0.15135235       0.00133266      -0.01342083      -0.00581571
O        7.77319892       3.79679122       4.29194750       0.00680289       0.00330916      -0.00665043
O        6.68206350       1.93852625       4.32763319       0.00315928       0.00420517      -0.00263226
O        7.58898731       2.69182509       6.26291059       0.01369357       0.00141758      -0.01485538
C        8.54238679       4.85499268       4.93773902       0.01382615      -0.00123467      -0.00630695
C        9.22942302       5.62985086       3.85263111       0.00347026       0.00515482      -0.00830960
C        7.37089236       2.80334238       5.08082521       0.01083295       0.00145950       0.00538969
C        6.12176688       0.82561721       5.04253736       0.00710243       0.00458264       0.00210202
H        7.84485745       5.48179728       5.49140839       0.01961398      -0.00501022       0.00485867
H        9.24097869       4.39130380       5.63551801       0.02043754      -0.00632173      -0.01734456
H        9.81276348       6.43139030       4.29410315       0.01725078      -0.00476503      -0.00798067
H        9.90127039       5.00517188       3.27051148      -0.01157324       0.00534520      -0.02556050
H        8.49989375       6.06987292       3.17138047      -0.00299755       0.02028871       0.00868478
H        6.88737394       0.33687883       5.64248856       0.01261002      -0.00209354      -0.01108325
H        5.74083582       0.15391342       4.27870759      -0.00715092       0.00943324       0.00475967
H        5.31801544       1.16685688       5.69509412       0.01877195       0.00699097       0.01440376
O        3.26980399       4.75244841       4.80414022      -0.00187800      -0.00379074      -0.00163549
O        2.78360973       5.92035602       6.55106793       0.00000105       0.00092310      -0.00235346
O        3.08975662       3.69027494       6.79840549       0.00767814       0.01025939      -0.00334883
C        3.67900408       3.50558953       4.21038949      -0.00678106      -0.00765023       0.00096780
C        3.66072020       3.68191191       2.71504586      -0.01199001      -0.01044139       0.00045967
C        3.04715787       4.69383116       6.12534311       0.00343787      -0.01187909       0.00653309
C        2.46458438       6.02661884       7.94699763       0.00155403      -0.00004944      -0.00147971
H        4.68235431       3.26902213       4.56442155      -0.00616765      -0.00825790      -0.00224510
H        3.01146059       2.71297274       4.54394072      -0.00782239      -0.00410357       0.00549217
H        3.97118520       2.75297943       2.23560215      -0.01835288      -0.01347499       0.00180347
H        2.66188851       3.93885754       2.36260681      -0.01228476      -0.00741008       0.00390474
H        4.34341760       4.47535732       2.41676496      -0.01009062      -0.01440440      -0.00490176
H        1.70764415       5.29338061       8.21929464       0.00000393       0.00189745      -0.00216448
H        2.08926082       7.04056931       8.07056556       0.00328380       0.00083277      -0.00180131
H        3.36301308       5.86883225       8.54102140       0.00125667      -0.00226370      -0.00236708
O        9.99537867       3.91122459      10.93155328       0.02130979      -0.00351569      -0.01070244
O        9.50496977       5.91994709      11.56316856       0.02177304      -0.00121373      -0.01168770
O        7.95964877       4.74102412      10.40472388       0.03300059      -0.00754276       0.01424795
C        9.56845086       2.64578608      10.39427767       0.01631594      -0.00680509      -0.00286528
C       10.71510374       1.68544111      10.55227827       0.01919666      -0.00406325      -0.00282374
C        9.04966210       4.85322398      10.91505918      -0.00615466      -0.00860288      -0.01635355
C        8.54732737       6.99050611      11.64644239       0.01728645      -0.00493920      -0.00644138
H        8.67985782       2.31623551      10.93849632       0.02033558      -0.00325005       0.00383300
H        9.28125744       2.78039741       9.34930629       0.01209445      -0.01209565      -0.00138706
H       10.44927158       0.72108864      10.12286359       0.01896551      -0.00833559       0.00607020
H       11.60491890       2.05765770      10.04626501       0.01546812      -0.00670626      -0.01059727
H       10.96534360       1.53181046      11.61302398       0.02454046       0.00342886      -0.00278878
H        8.29038922       7.34184271      10.65419513       0.01235239      -0.00336619      -0.00399232
H        9.03215695       7.77300616      12.22201267       0.01961607      -0.00475283      -0.00757791
H        7.64243726       6.65238467      12.15073951       0.02185249      -0.00792469      -0.00237137
O        5.34147974       8.55904586       7.39999925       0.00054899       0.00318760       0.00467026
O        5.55204584       6.46414447       7.81762737       0.00643834       0.00412330       0.00885823
O        6.41307177       7.26514378       5.87752509      -0.00591254       0.00234595       0.01324642
C        5.67820072       9.76146050       6.66349383      -0.01301709      -0.00009865      -0.00796747
C        5.17982442      10.91301710       7.49665929      -0.01022804       0.00170261      -0.00928968
C        5.82633994       7.42699783       6.92331422       0.00923896      -0.00075840      -0.00660419
C        5.99471160       5.15083951       7.45991597       0.00728095       0.00297634       0.00901927
H        6.75924286       9.77232352       6.51511503      -0.01519924       0.00409170      -0.02003692
H        5.16673947       9.72394781       5.70193972      -0.02395022      -0.00892992      -0.00112367
H        5.39754688      11.85236305       6.99107570      -0.01675496      -0.00017586      -0.01627728
H        4.10005595      10.84040095       7.61525519      -0.00910190       0.00046917      -0.00120358
H        5.66168753      10.94186725       8.47338499      -0.00249419       0.00782679      -0.01340988
H        5.76202739       4.94474779       6.41628063       0.01164278       0.00455803       0.00852939
H        5.45587658       4.46640796       8.10696341       0.00275153       0.00389720       0.00649512
H        7.06418819       5.04909765       7.62820513       0.00583160       0.00229975       0.01482418
