148
Lattice="11.373791035286635 0.0 0.0 0.0 11.373791035286635 0.0 0.0 0.0 11.373791035286635" Properties=species:S:1:pos:R:3:forces:R:3 energy=-156164.140625 stress="0.0025021699257194996 -0.0006641773506999016 6.962453699088655e-05 -0.0006641773506999016 0.001595375593751669 6.370964183588512e-05 6.962453699088655e-05 6.370964183588512e-05 0.0058197397738695145" pbc="T T T"
Zn      10.25402849       9.40230540      -0.90753777      -0.00272032      -0.00524919       0.00357271
O       10.52577731      11.24605649       9.76228864      -0.00816841      -0.00196047       0.02210259
N       10.99892980      11.42391740       7.41372913      -0.02349011       0.00821203       0.04204398
C       10.74748899      11.33810212       8.56186382      -0.00106585       0.00873342      -0.03783700
O        4.82582950      10.46790362       9.62823661      -0.00453234      -0.01444671      -0.01384348
N        6.89779074      11.02938721       8.56226112       0.00067985      -0.02017653      -0.00770438
C        5.85143225      10.75660479       9.08613189      -0.00347435      -0.01791603      -0.01016836
O       -0.35551246       8.41156302       8.89031942      -0.00269230       0.00026682       0.00030532
H       -0.88024678       8.49940366       8.06103085      -0.00559039      -0.00139166       0.00088421
H        0.55731031       8.77418029       8.77470092      -0.00453451       0.00588037      -0.00091843
O        3.60737319       5.20648290       2.77900132       0.00493205      -0.00855067      -0.00359195
H        3.84221383       5.28185672       1.84124959       0.00162315      -0.00733431      -0.00431971
H        4.29496068       5.65352510       3.32852052       0.00291228      -0.00121889      -0.00590877
O        1.35002526       1.26514136       3.50080564       0.01131498       0.00844831       0.01583523
H        0.66483085       1.79784326       3.06961794       0.01545883       0.00805175       0.00883136
H        2.18952976       1.77179090       3.46754616       0.01397554       0.00444389       0.01463761
O        9.73699178       3.12062270       7.41406892      -0.00516993       0.00705615      -0.00415369
H       10.44801457       3.17363814       8.07961601      -0.00755043       0.00186502      -0.00041939
H       10.24943347       2.82537892       6.63031130      -0.00212088       0.00529050      -0.00234295
O        7.22723834       9.88513795       1.16155449      -0.00241193       0.00595175       0.00228459
H        6.86328675       9.29670866       1.83896732       0.00112148       0.01147225       0.00979850
H        7.96413271      10.36864947       1.60738823       0.00065157       0.00776575      -0.00481943
O        4.45100112       5.10067212       7.00395531       0.01612926       0.00754697      -0.02347358
H        4.95661534       5.13514080       7.83614730       0.01326405       0.01298427      -0.02195209
H        4.51409160       4.15599153       6.75356401       0.01599827       0.00510144      -0.01548782
O        8.29627137       9.39809705      10.30408740      -0.00287551      -0.00863254       0.00342796
H        7.81437306       9.53647640      11.20681018      -0.00313546      -0.00408133       0.00305535
H        7.90044288      10.05933113       9.66188054      -0.00397820      -0.01172702      -0.00028813
O        9.72909048       5.74162945       6.65369601       0.03299418      -0.00009353      -0.00605887
H        9.08657218       6.43370510       6.86889615       0.01895322      -0.01395313      -0.00527045
H        9.44165281       4.87442702       6.99914894       0.04275919      -0.00593698      -0.00833796
O       10.25213925       5.78462263       1.39779632      -0.00339985       0.00452262       0.00307615
H       10.51512589       5.49580453       2.29593392      -0.00187424       0.00526924       0.00380357
H       10.47328699       5.07514565       0.78400279      -0.00156493       0.00572699       0.00201934
O        8.94031230       3.08053339      10.53051009       0.00704393       0.00364144      -0.00160017
H        8.30332229       2.70791257       9.90421448       0.00538297       0.00551929      -0.00173360
H        9.26385018       3.90988993      10.12664849       0.00696987       0.00536210       0.00097687
O       10.00760539       5.50050694       9.79826483       0.00226662       0.00942430       0.01218238
H        9.20129227       6.01201306      10.02390481      -0.00295690       0.00399593       0.00712320
H       10.19956937       5.71761078       8.87567359       0.01245226       0.01777741       0.01645587
O        9.77216835       0.17977843       4.91677032      -0.00580597       0.00041837      -0.00002627
H       10.27979838       0.19206753       5.75488602      -0.01036794       0.00815758       0.00396791
H       10.02384478       0.97449258       4.42824171      -0.00292600      -0.00433142      -0.00591588
O       10.12318416       2.23120350       2.76769035       0.00642121      -0.00394911       0.00508949
H        9.44350056       2.86983207       3.05565423       0.00236250      -0.00642978       0.00234681
H       10.38703486       2.41575077       1.83795697       0.00745857      -0.00359451       0.00524438
O        1.94187232       5.85331933       9.20586333       0.01043691       0.00271685       0.00159720
H        1.15540549       6.21280252       9.63262580       0.01946323       0.01754214       0.00528693
H        2.58817832       5.69704917       9.92003544       0.01353069      -0.00215779      -0.00127868
O        2.80534749       7.36729671       6.42321934      -0.01445121       0.00157513       0.00668687
H        2.16208057       8.09393804       6.57025072      -0.01679432       0.00018062       0.00412437
H        2.74446882       6.71135697       7.13174642      -0.01515674       0.00403740       0.00924297
O        2.24531311       0.78630289       8.16768359      -0.01056704       0.00440583      -0.00595862
H        1.36875275       0.64671385       7.76081633      -0.01386758       0.00666505      -0.00330014
H        2.18288776       1.70184906       8.49516620      -0.00867986       0.00343746      -0.00202692
O        4.06135565       0.26312581       6.28745905      -0.00790806      -0.00195187      -0.00488503
H        3.34965154       0.43309068       6.95034861      -0.01021786      -0.00130948      -0.00717473
H        3.64522116      -0.01176891       5.45133356      -0.00588255      -0.00035592      -0.00660586
O        9.48865760      10.99620420       2.00998342       0.01024514       0.00100642      -0.01459371
H        9.86554832      10.63461549       2.82302975       0.01902337      -0.01046712      -0.02377389
H        9.48567226      11.95451815       2.19345201       0.01336755      -0.00088551      -0.00228305
O        0.18441706       8.90613174       2.92397447      -0.00562379       0.00131785       0.00588340
H        0.85996468       8.27514873       3.24241595       0.00147629       0.00761339       0.00333047
H       -0.61363903       8.68640851       3.45279467      -0.00313245      -0.00741395       0.00680142
O       -0.20768058       2.25905211      11.66074336       0.00257260      -0.00178760       0.00450988
H        0.10511266       1.34207507      11.59170247       0.00000454      -0.00273535       0.00596428
H       -1.00703950       2.34977666      11.08968309       0.00339918       0.00060226       0.00354062
O        9.27225773       8.08507638       4.19918356      -0.00304949      -0.00585833       0.00423955
H        8.35566278       8.41705964       3.98925198      -0.00015678      -0.00018209       0.00063427
H        9.21487095       7.15850610       3.92644210      -0.00763554      -0.00508748       0.00200920
O        1.65732103       6.76032767       3.96802860       0.01014605       0.00340674      -0.00279936
H        2.30192052       6.22085435       3.46422927       0.00907116       0.00056784      -0.00105068
H        2.06350597       6.91848098       4.84672903       0.00566619      -0.00138053       0.00064440
O        3.92122176       5.05546963      -0.15613609       0.00042836      -0.00264714      -0.00913452
H        3.44124349       4.19305829      -0.06911265       0.00136785      -0.00335346      -0.00600794
H        4.64785113       4.85740928      -0.78473535      -0.00033586      -0.00232396      -0.01082356
O        9.09708556       8.42513004       6.94137289      -0.00419322      -0.00402859       0.00725697
H        8.36483289       9.04521249       7.04944573      -0.00197396      -0.00180988       0.00976716
H        9.26561683       8.38923322       5.97227050      -0.00562738      -0.00372519       0.00693311
O        3.42955824      10.04147798       4.07749141      -0.00771073      -0.00712523      -0.00339223
H        3.64502184      10.01276906       3.12901852      -0.00091758      -0.01329648      -0.00189773
H        4.14074435       9.56143003       4.53752291      -0.01050300      -0.00411294       0.00494944
O        3.79508368       2.59875821       3.65790585       0.01515489      -0.00089319       0.00622100
H        4.17491052       2.74569834       4.53873935       0.01343462       0.00216672       0.00676879
H        3.71454803       3.49819221       3.27518178       0.01440936      -0.00217717       0.00219651
O        7.24370127       2.41934745       8.21326993       0.00248553      -0.01417626       0.01270578
H        8.14969379       2.53128472       7.85323078      -0.00195621      -0.00964522       0.00278175
H        7.12471079       1.44503129       8.35660966       0.00519910      -0.01522347       0.00781987
O        7.70896832       5.99417466       2.62168924      -0.00434716      -0.00281458      -0.00314375
H        7.64145687       5.12577747       3.06998545      -0.00272419      -0.00499296      -0.00646175
H        8.45750968       5.88520152       2.01015159      -0.00257706       0.00125637      -0.00203104
O        1.08885202       3.35216893       8.21522658      -0.01298160       0.00717346       0.00859262
H        1.45198897       4.20662272       8.51963248      -0.01159453       0.00569365       0.01142493
H        1.08396204       3.38397194       7.24399682      -0.00971105       0.00987855       0.00838958
O        7.19108583      11.02215418       5.52610489      -0.00706144      -0.00446076      -0.00704178
H        7.02892675      11.07295880       6.48604641      -0.00498530      -0.00930979      -0.00620012
H        8.13490507      11.26186354       5.37688379      -0.00656373      -0.00385376      -0.00718188
O        1.25866302       9.43092997       5.92171060      -0.00742076       0.01031506       0.00646844
H        0.71943806      10.14940113       6.28224416      -0.01435428       0.00932555       0.00034573
H        1.72304572       9.77380275       5.14093595      -0.01184180       0.00669165       0.00231249
O        5.06614930       9.05855335       6.21841096      -0.01277761      -0.00573038      -0.00800180
H        4.37079740       8.49385664       6.59017697      -0.01235583      -0.00468218      -0.00439586
H        4.83663715       9.96290395       6.50126505      -0.00936951      -0.00535867      -0.00550160
O       10.82544668       5.25628678       4.13265748       0.00958598       0.00535014      -0.01011731
H       10.34175103       5.48562376       4.95305333       0.01313622       0.00682683      -0.00779274
H       11.64114761       5.81561596       4.15898192       0.01096749       0.00437682      -0.01198718
O        1.63841295       0.14643588       0.83027221       0.01227477       0.00346696       0.01357005
H        1.57359488       0.20358459       1.79903566       0.01369308       0.00058685       0.01400454
H        2.06451983      -0.70138025       0.65113818       0.00630224       0.00107891       0.00962880
O        5.81898343       7.03055318       0.98758698      -0.00745715      -0.00514486      -0.00192977
H        6.37789656       6.61722039       1.69106036      -0.00616697      -0.00425267      -0.00200225
H        5.17584455       6.35872941       0.71548159      -0.00467893      -0.00722827      -0.00462446
O        3.99853239       9.56866317       1.20881512       0.00409313      -0.01458506       0.00517114
H        4.47467978      10.13199434       0.58366947       0.00819421      -0.00803128       0.01428944
H        4.51390033       8.74818295       1.20612826       0.00463544      -0.01482106       0.00029754
O        6.47122883       1.41987093       3.45952859      -0.00514179       0.00005987      -0.00345610
H        5.53614889       1.66688811       3.37955812      -0.00447886       0.00681745       0.00058156
H        6.53204439       0.82579012       4.23194364      -0.00650330       0.00017891      -0.00300653
O        6.75055225       8.81087952       3.84091968       0.00040561       0.00119719      -0.00937240
H        6.28254352       8.04796171       4.22058608       0.00017079      -0.00120290      -0.01344565
H        6.68754072       9.51811904       4.51547963      -0.00257247       0.00011635      -0.00778116
O        5.20355402       2.63465646       6.19868055       0.00490527      -0.00663542       0.01080203
H        4.81970193       1.72410894       6.26038916      -0.00113867      -0.00468355       0.00580927
H        5.98330648       2.61244853       6.78183642       0.00120649      -0.01212461       0.01588704
O        5.96224777       4.74723900       9.34523766      -0.00326753       0.00078119      -0.01029776
H        6.42607092       3.93101364       9.08634186      -0.00392744      -0.00209943      -0.00226612
H        6.63955530       5.42254371       9.54600993      -0.00244892      -0.00118523      -0.00422755
O       -0.41334616       8.37804920       0.54545716      -0.00060520      -0.00438191       0.00273088
H       -0.16058247       8.68895989       1.50009031      -0.00287112      -0.00207529       0.00170314
H       -0.70476318       7.45213340       0.66554407      -0.00111984      -0.00472441       0.00552732
O        7.60543591       6.75164773      10.28685621      -0.00672108      -0.00599864       0.00051965
H        7.75030933       7.67958636      10.02308344      -0.00544210      -0.00571604       0.00133713
H        7.03195060       6.83777511      11.08496957      -0.00713128      -0.00553986       0.00050448
O        1.99664092       9.59365025       9.29103553      -0.01130247       0.01184180       0.01126831
H        2.20322453      10.51001652       9.02255776      -0.01498698       0.01055804       0.00191297
H        2.85906925       9.21508217       9.49287554      -0.00797118       0.01583908       0.00585336
O        2.50570929       2.78552134      -0.16495050       0.00182807      -0.00209153       0.00498438
H        2.64629518       1.89548657       0.19027565       0.00181340      -0.00134276       0.00764484
H        1.53520039       2.85434672      -0.16688955       0.00165671      -0.00199617       0.00520302
O       11.65458228       2.92653072       5.51783721       0.00002813       0.01188767       0.00430053
H       12.06301498       2.22627632       4.97364085       0.00184802       0.00988147       0.00796144
H       11.44005593       3.65327069       4.89854271       0.00251129       0.00968901       0.00065180
O        7.92444605       3.54575969       3.88657228       0.00105437      -0.00459716      -0.00816867
H        7.31979154       2.75040942       3.75768543      -0.00018687      -0.00476249      -0.00685810
H        7.94768530       3.70035983       4.83506883      -0.00025037      -0.00243604      -0.00819433
O        5.03577343       6.46102539       4.70709021      -0.00198022       0.00970809      -0.01548301
H        5.04975636       5.89201345       5.51503582      -0.01180606       0.01734658      -0.00795802
H        4.37007633       7.10685239       4.98154454       0.00525085       0.02189341      -0.02855286
