146
Lattice="12.763415318135246 0.0 0.0 0.0 12.763415318135246 0.0 0.0 0.0 12.763415318135246" Properties=species:S:1:pos:R:3:forces:R:3 energy=-265588.875 stress="-0.00038938046782277524 0.0001883778750197962 0.0001541039819130674 0.0001883778750197962 0.00030584612977690995 -0.0003163385117659345 0.0001541039819130674 -0.0003163385117659345 -0.000640557671431452" pbc="T T T"
Zn      11.83937201      11.89978912      -1.52134171      -0.01420304       0.00742231      -0.02999827
Br      12.17233667      12.01746610       7.72600684       0.02031333       0.02793405      -0.01956695
O       12.87463530      13.23568763       6.93282599      -0.00329095      -0.00393939      -0.01700687
O       12.97044166      10.62661092       7.51431395       0.00384480       0.01024508       0.00630500
O       12.21301180      12.38679626       9.37462491       0.03528555       0.03373443      -0.00147164
O       10.62437247      11.85209181       7.28667793       0.00688004       0.01436168       0.02665979
Br       5.64984108      12.59336364       8.54715542       0.00162785       0.00632779       0.00388097
O        6.92427913      13.31909929       7.84564096       0.00523567       0.00059444       0.00486499
O        6.11769401      11.15772996       9.15698278      -0.00146806       0.00258958       0.00498301
O        5.09849121      13.52898531       9.75954137       0.00496209       0.00640607       0.00382245
O        4.48568727      12.33999141       7.44400757       0.00330579       0.00822169       0.00421178
O        4.38673528       7.65940411       7.36584983      -0.00076467       0.00528789      -0.00082217
C        4.61418414       9.06334959       7.20161612      -0.00033450       0.00524783       0.00018588
C        3.12867523       7.40199170       7.95947027       0.00016031       0.00527990       0.00131798
C        6.00038929       9.28817400       6.65178682      -0.00070357       0.00448227      -0.00059675
C        2.90797109       5.90996340       8.02907565      -0.00050207       0.00544095       0.00004722
H        3.84941916       9.47365099       6.52705738      -0.00047058       0.00630525       0.00107470
H        4.50767650       9.57650831       8.16149250       0.00073158       0.00455335       0.00059861
H        3.09234767       7.84863897       8.96381561       0.00244007       0.00420448       0.00177354
H        2.33325294       7.88623532       7.37275971      -0.00057727       0.00634602       0.00331193
H        6.13385626      10.35214323       6.46055377       0.00089229       0.00474411       0.00134289
H        6.76127681       8.98367318       7.37009967      -0.00055738       0.00190420      -0.00175776
H        6.15009710       8.74029684       5.71999021      -0.00230503       0.00603454      -0.00175020
H        1.93202525       5.69344504       8.46414878       0.00082551       0.00523903       0.00234224
H        2.94566005       5.46996169       7.03166115      -0.00314099       0.00656841      -0.00058110
H        3.66281817       5.42700198       8.64943122       0.00118609       0.00443214      -0.00256141
O        0.52336801       9.10534229       4.10400257      -0.00690174      -0.00151150      -0.00010761
C        1.30033522      10.28818416       4.21531916      -0.00913276       0.00095618       0.00104655
C        1.33309977       7.94610720       4.10569103      -0.00652531       0.00049168       0.00286654
C        0.39735260      11.48578690       4.07178728      -0.00952402      -0.00143182      -0.00814689
C        0.44406402       6.72742753       4.08275936      -0.00565213      -0.00065911       0.00184901
H        1.80712011      10.30556682       5.18904566      -0.01532987       0.00405954       0.00420970
H        2.07517374      10.28964465       3.43301439      -0.00457194      -0.00047782       0.00607216
H        1.99960529       7.95085632       3.23306163      -0.00403261      -0.00027012       0.00452280
H        1.97771364       7.93941399       4.99900780      -0.00823662       0.00106816       0.00473356
H        0.96565221      12.40259912       4.22626191      -0.01287849      -0.00011177      -0.00605837
H       -0.06534175      11.51014233       3.08442232      -0.00221105      -0.00454807      -0.01168655
H       -0.38867214      11.45548212       4.82376621      -0.01547307      -0.00068989      -0.01417114
H        1.05128810       5.82526240       4.00982811      -0.00579807      -0.00047199       0.00342159
H       -0.15843156       6.66338368       4.98918797      -0.00719561      -0.00016508       0.00057597
H       -0.22827982       6.75965710       3.22505536      -0.00396226      -0.00064962       0.00066388
O        8.91798694      10.00218718      11.21354037       0.00512943       0.00897229       0.00221214
C       10.00574507       9.43321274      10.52732353      -0.00112468       0.00692391      -0.00447963
C        8.71569685      11.37029196      10.91367493      -0.00039528       0.00618535      -0.00317469
C       10.05437090       7.95248456      10.81010629       0.00427713       0.00924098       0.00203158
C        7.56685246      11.89430598      11.73512533       0.00479090       0.00825202       0.00136128
H        9.93845933       9.64399279       9.45337177      -0.01080877       0.00158957      -0.00505775
H       10.95083530       9.91608528      10.89381715       0.00166476       0.01089780      -0.01530509
H        9.65123220      11.93307544      11.17707256       0.00062528       0.00971930      -0.01186833
H        8.54368008      11.50497848       9.84049774      -0.00670980       0.00111618      -0.00296152
H       10.91697296       7.50366092      10.31793945       0.00213376       0.00822107      -0.00050995
H       10.12696047       7.76620103      11.88213400       0.01007435       0.01447193       0.00297594
H        9.16041229       7.46937466      10.41984841       0.00304264       0.00566229       0.00976329
H        7.33547183      12.91624302      11.43602865       0.00090355       0.00611001      -0.00076678
H        6.67588847      11.29987195      11.54212348       0.00462723       0.00554720       0.00927901
H        7.80174070      11.87259068      12.80094867       0.01147249       0.01142881       0.00029501
O        8.80077278       7.12215753       7.80171572       0.00264844      -0.00133836       0.00476742
C        7.76657573       6.17868428       7.59291606       0.00320882      -0.00120774       0.00449947
C        9.61746193       7.27705860       6.65323537       0.00285757      -0.00147948       0.00386508
C        6.99842684       5.99972675       8.87649886       0.00287795      -0.00138184       0.00487506
C       10.68954208       8.29659937       6.93729585       0.00234911      -0.00068861       0.00395215
H        7.09448382       6.53317653       6.79809969       0.00310180      -0.00169972       0.00456762
H        8.20028421       5.22198864       7.26182386       0.00318286      -0.00142008       0.00502241
H       10.05799391       6.30246848       6.39485806       0.00335410      -0.00112849       0.00470450
H        8.99873254       7.58703948       5.79778611       0.00260904      -0.00226040       0.00440985
H        6.18503082       5.28930876       8.72779279       0.00428794      -0.00295658       0.00519662
H        7.64887734       5.61999880       9.66464849       0.00315048       0.00050687       0.00510208
H        6.56651191       6.94814675       9.19535204       0.00111602      -0.00189760       0.00371050
H       11.34875767       8.41908824       6.07756818       0.00202818      -0.00060937       0.00334407
H       10.25827381       9.27276875       7.15562277       0.00180961      -0.00095072       0.00382952
H       11.29837243       7.99163926       7.78886094       0.00285642      -0.00015888       0.00352965
O        4.47244169       7.27466868       2.87789416      -0.00279158       0.00131357      -0.00328895
C        4.85883345       6.71029573       4.11928864      -0.00233550      -0.00077713      -0.00452505
C        4.75447207       8.66359889       2.82371221      -0.00303596       0.00132275      -0.00170177
C        4.41156152       5.27117007       4.16426551      -0.00173686      -0.00090969      -0.00737576
C        4.30621600       9.18937628       1.48203340      -0.00265107       0.00267696      -0.00113702
H        5.95078456       6.78638050       4.23041028      -0.00224930      -0.00058259      -0.00464745
H        4.41583325       7.27274739       4.94992469      -0.00231647      -0.00233573      -0.00327665
H        4.22832130       9.17703720       3.64189771      -0.00341094       0.00042030      -0.00128251
H        5.82980783       8.83158713       2.97788441      -0.00316060       0.00128644      -0.00107044
H        4.74181687       4.80705256       5.09415390      -0.00237089      -0.00270829      -0.00826854
H        3.32477367       5.20639730       4.11244554      -0.00173986      -0.00124158      -0.00835359
H        4.82647094       4.70717119       3.32898866      -0.00104329       0.00092312      -0.00832950
H        4.51277467      10.25732936       1.40381209      -0.00329993       0.00281085       0.00010933
H        4.83008980       8.67800936       0.67429086      -0.00187619       0.00388514      -0.00154422
H        3.23560297       9.03233232       1.34655646      -0.00248456       0.00214711      -0.00193294
O       10.73413849       2.81395716       2.27339791       0.00381777      -0.00934237      -0.00484741
C        9.99201206       2.03123242       1.36493749       0.00325722      -0.00760448      -0.00449747
C       11.52164690       2.03844543       3.16046182       0.00083402      -0.01117344      -0.00283122
C        8.98692681       2.91974731       0.67056358       0.00858992      -0.00524876      -0.00875311
C       11.98993005       2.91875027       4.29277138       0.00300661      -0.01332214      -0.00362581
H       10.66344896       1.54767170       0.63500144       0.00250179      -0.01120523      -0.00273541
H        9.47449652       1.22672882       1.90753925      -0.00080398      -0.00554559      -0.00504741
H       10.91951263       1.20810442       3.55510276      -0.00255877      -0.00844920      -0.00226665
H       12.37257027       1.60188141       2.61694422      -0.00023741      -0.01632306       0.00114706
H        8.42238512       2.35129247      -0.06888857       0.00721543      -0.00413474      -0.00825363
H        8.28937620       3.33231544       1.40018477       0.00924508      -0.00021069      -0.01082352
H        9.48816251       3.74591230       0.16482278       0.01399092      -0.00888783      -0.00935634
H       12.62072378       2.35252369       4.97870004      -0.00053546      -0.01442662      -0.00228399
H       12.55061675       3.77103194       3.90757176       0.00980044      -0.01908481      -0.00077503
H       11.12866608       3.29176603       4.84624090       0.00458416      -0.00676584      -0.00576033
O        8.39605893       3.41946278       4.26061383       0.00409383      -0.00492007       0.00122373
C        7.31279259       2.65152833       4.76397798       0.00485859      -0.00523204       0.00210997
C        8.04120114       4.76181707       4.00037053       0.00375485      -0.00543839       0.00093469
C        7.74953677       1.21558068       4.88868048       0.00565699      -0.00497925       0.00209655
C        9.26308190       5.52689963       3.55441738       0.00399071      -0.00534874       0.00147086
H        6.99655567       3.04148202       5.74260314       0.00522754      -0.00520742       0.00202453
H        6.45302562       2.73994955       4.08204877       0.00433674      -0.00580850       0.00252473
H        7.26027966       4.79768023       3.22336460       0.00403222      -0.00562745       0.00063077
H        7.60803888       5.21318752       4.90455180       0.00319940      -0.00510539       0.00068974
H        6.94863918       0.61976950       5.32382681       0.00692792      -0.00531891       0.00349186
H        8.01800960       0.81607480       3.90912194       0.00484560      -0.00507032       0.00202465
H        8.60837766       1.13150626       5.55380031       0.00684257      -0.00355645       0.00102437
H        9.01653761       6.57745207       3.39545802       0.00394498      -0.00569014      -0.00004250
H       10.04335006       5.46571831       4.31148138       0.00298233      -0.00444120       0.00236899
H        9.66645330       5.10115463       2.63719921       0.00499432      -0.00653458       0.00248240
O        8.43135766       9.00474445       2.63737951      -0.00131655      -0.00260073       0.00217575
C        8.82565801      10.33319449       2.94665642      -0.00569028      -0.00128242       0.00602430
C        7.99093450       8.91913249       1.28971583       0.00052381       0.00067097       0.00139874
C        9.43230497      10.37384639       4.32354367      -0.00549740      -0.00292879       0.00587291
C        7.60969617       7.49972336       0.95364556       0.00133392       0.00025773       0.00050859
H        9.54748398      10.67994630       2.19153101      -0.00576949       0.00210139       0.00763619
H        7.94903705      10.99619204       2.87919006      -0.00503349      -0.00147152       0.00523411
H        7.13409106       9.59249541       1.14071928      -0.00033355       0.00038466       0.00009141
H        8.77886776       9.27335006       0.61959015       0.00188583       0.00173129       0.00302717
H        9.72303854      11.39091127       4.58784098      -0.00987252      -0.00160688       0.00954330
H        8.72085773      10.02906525       5.07437395      -0.00665717      -0.00621873       0.00299647
H       10.32208954       9.74602314       4.36505352      -0.00438368      -0.00196187       0.00652316
H        7.25822766       7.46017714      -0.07804244       0.00265869       0.00012409       0.00030597
H        8.46585233       6.83156143       1.04839981       0.00134888       0.00127644       0.00140811
H        6.81095963       7.13417878       1.60160408       0.00075957      -0.00021307      -0.00074087
O        3.47488477       3.72061725      11.65541658      -0.00455219      -0.00329870       0.00026888
C        2.89256079       2.43603165      11.47508217      -0.00634998      -0.00186980      -0.00162829
C        4.88692062       3.66399687      11.68406897      -0.00438076      -0.00566185       0.00048360
C        1.39104403       2.59107487      11.47133238      -0.00664496      -0.00098227       0.00155860
C        5.41006846       5.05591406      11.94708755      -0.00221580      -0.00729531       0.00590998
H        3.25524196       1.98240709      10.54609606      -0.00817254      -0.00146741      -0.00259167
H        3.21172204       1.77607950      12.29677192      -0.00589691      -0.00314525      -0.00334251
H        5.21461629       2.97530209      12.47940670      -0.00350922      -0.00910240      -0.00262237
H        5.27078527       3.25355608      10.73980669      -0.00590186      -0.00240377      -0.00082117
H        0.91494458       1.61105924      11.37877366      -0.00817240      -0.00045624      -0.00253832
H        1.04786780       3.05729317      12.39591045      -0.00402439      -0.00008109       0.00306234
H        1.06870911       3.20608840      10.63121173      -0.00585530       0.00115949       0.00295763
H        6.50032455       5.05223405      11.98138186      -0.00177497      -0.00849836       0.00551470
H        5.09532262       5.74075387      11.15863046      -0.00188822      -0.00442013       0.00772682
H        5.03462241       5.43742309      12.89771530      -0.00360025      -0.01019204       0.00676428
