139
Lattice="11.918906435452369 0.0 0.0 0.0 11.918906435452369 0.0 0.0 0.0 11.918906435452369" Properties=species:S:1:pos:R:3:forces:R:3 energy=-141109.953125 stress="-0.0005123431328684092 -0.0009879223071038723 0.0002027211812674068 -0.0009879223071038723 -0.0012409017654135823 0.00032717302383389324 0.0002027211812674068 0.00032717302383389324 -0.0014056359650567174" pbc="T T T"
Zn      11.88418553      11.13174032       2.91267689       0.01695758       0.00992849      -0.00760058
P       10.25492032      10.00553966       1.45608616       0.00833486       0.01201168      -0.00213741
O        9.27668968      11.10438526       0.81362939      -0.01236886      -0.00230694       0.00999376
O       10.19760541      10.33620935       3.00451914       0.01733338       0.00557968      -0.00100958
O       11.73273033      10.45068684       1.11162683      -0.00054848       0.03204376      -0.01199302
O        9.89068704       8.64380559       1.00021610       0.02286744       0.00760782      -0.00327432
H        8.85228546      10.78857849      -0.00976235      -0.00204699       0.00164616       0.00267458
O        7.84816871       8.18930248       6.95609970       0.00055313      -0.00273344       0.01035064
N        9.95543517       7.41619953       6.52275466      -0.00200051       0.00396872      -0.00636563
C        9.74470988       6.10639694       7.09414687       0.00882168       0.00528064       0.00196775
C       11.24756145       7.66156139       5.92300512      -0.00987381       0.00508374      -0.02321844
C        8.95393330       8.31853790       6.44819587      -0.00659537      -0.00089669       0.00171733
H       10.35682201       5.96269247       7.98908381       0.01306719       0.01375887       0.00026050
H       10.02384219       5.34825727       6.36018344       0.01016155       0.00321612       0.00495610
H        8.69258438       6.00932631       7.34968534       0.01059866       0.00031361       0.00690799
H       12.04500956       7.57348781       6.66785615      -0.00190189       0.02187598      -0.03059462
H       11.25036463       8.66785670       5.50968107      -0.02380603      -0.00196943      -0.03962370
H       11.43446451       6.94999527       5.11601492      -0.01401193      -0.00554323      -0.01419735
H        9.24681130       9.21608086       5.88139211      -0.01384513      -0.00070608      -0.00451383
O        2.13623842       4.88815112       9.69386586      -0.00513875       0.00094855       0.01517749
N        3.46867755       4.71787931       7.83522881      -0.00963740       0.00303981       0.00839421
C        3.41004616       3.28047542       7.76198573      -0.00702785       0.00309232       0.00877136
C        4.30748500       5.40405805       6.87739950      -0.01742993       0.00394874       0.00147008
C        2.87016661       5.37854674       8.84774914      -0.00502211       0.00550064       0.00466335
H        4.41027882       2.86235554       7.91528942      -0.00606599       0.00470459       0.00400493
H        3.03575242       2.95615113       6.78736978      -0.01184292       0.00219293       0.01096010
H        2.74526253       2.92458250       8.54558589      -0.00296710       0.00243108       0.01235491
H        5.30682673       4.96679806       6.87686705      -0.01692057       0.00523822      -0.00561816
H        4.39663020       6.45166458       7.15406807      -0.01667140       0.00410089       0.00071429
H        3.87667926       5.35544886       5.87400252      -0.02461345       0.00305621       0.00478685
H        3.10643249       6.45152957       8.81521066      -0.01317307       0.00378591       0.00416911
O        6.15776218       5.07412668       9.16053090       0.01730621      -0.00750881      -0.01578274
N        7.35178091       6.91316715       9.82196369       0.00213868      -0.00670764       0.00437311
C        6.26123611       7.85621568       9.66961349      -0.00336482      -0.01264660       0.00537280
C        8.66453657       7.46363506      10.08146208      -0.00161603       0.00030525       0.00702066
C        7.19328074       5.61550978       9.51932306       0.00933570      -0.00586206      -0.00765795
H        6.38900987       8.41575335       8.74043044      -0.00761364      -0.01187220       0.00530511
H        6.27677657       8.55483891      10.50705064      -0.00632548      -0.01298761       0.00541252
H        5.32463040       7.30391691       9.64518723      -0.00044352      -0.01741141       0.00629812
H        8.95782042       8.10561549       9.24926461      -0.00348506       0.00203764       0.00763825
H        9.38274851       6.64959690      10.17506057       0.00276463       0.00442547       0.00840150
H        8.67575948       8.03939771      11.00710314      -0.00598052       0.00052071       0.00666663
H        8.13462296       5.04980548       9.65057150       0.01390576      -0.00075957      -0.00750403
O        2.64875167       6.97977578       3.25994525       0.00092936      -0.00529969      -0.00993234
N        1.33460346       6.56349406       1.43479223      -0.01044106       0.00594368      -0.00336644
C        2.04559737       7.45340276       0.54257044      -0.01111929       0.00441125      -0.00542958
C        0.22653076       5.82318377       0.86010744      -0.01605912       0.01176586       0.00129344
C        1.69932646       6.41035266       2.71482865      -0.00130063       0.00190949      -0.00499642
H        1.35533588       8.21661872       0.17277526      -0.00989771       0.00803095      -0.00038872
H        2.44970707       6.87869373      -0.29573513      -0.01932386       0.00382856      -0.00880104
H        2.85184408       7.93088243       1.09359308      -0.00552987      -0.00078988      -0.00977035
H       -0.54554836       6.52107406       0.52701348      -0.01361260       0.01602358       0.00492015
H       -0.19559920       5.17303349       1.62413688      -0.01602282       0.01331410       0.00261211
H        0.58487734       5.23369428       0.01169997      -0.02213368       0.01017660      -0.00015137
H        1.04443475       5.71008313       3.25659942      -0.00235984       0.00130379      -0.00434342
O        5.45967105       1.14176233       2.56829088      -0.01469016      -0.00108439      -0.00676531
N        3.68793406       2.58465878       2.52657828      -0.00683576       0.00609465      -0.01084186
C        3.73772262       2.88481072       3.94087429      -0.00144423       0.01556689      -0.01281211
C        2.62386929       3.19600713       1.75736537      -0.00349091       0.00866120      -0.01252487
C        4.58061390       1.75010895       1.96185777      -0.01010245      -0.00122255      -0.00662859
H        2.83211050       2.51955453       4.43399544      -0.00102940       0.02196486      -0.00766487
H        3.79749531       3.96426447       4.09262213       0.00228610       0.01641417      -0.02087825
H        4.61015042       2.40044116       4.37418777      -0.00182784       0.01623775      -0.01202719
H        1.65875644       2.95318832       2.20896482      -0.00457847       0.01506147      -0.01176351
H        2.65974454       2.83559220       0.73392627      -0.00549326       0.00508218      -0.01139218
H        2.74937515       4.27822685       1.72968896       0.00184948       0.00774631      -0.01622121
H        4.41336777       1.64280153       0.88278523      -0.01219108      -0.00385948      -0.00755793
O        1.40012100      12.17846041       3.47487138       0.01785780      -0.00291425       0.01111588
N        2.78380420      10.43011539       3.97637793       0.00793374      -0.01054725       0.01202874
C        1.74087528       9.65090627       4.62710725      -0.00256562      -0.01332268      -0.00959338
C        4.09570086       9.81708500       3.81290132       0.00865865      -0.01209986       0.02088155
C        2.54586811      11.62302512       3.49374238       0.01723428      -0.00457746       0.02228293
H        2.18512454       9.06492808       5.42927378      -0.01081300      -0.03726979      -0.02388489
H        1.27287728       8.96347990       3.91825725      -0.00978026       0.00882998      -0.02564272
H        1.00791298      10.33111519       5.06232336       0.00410600      -0.01584676       0.00478347
H        4.58073536       9.69653575       4.78123960      -0.00345345      -0.02524668       0.02496633
H        4.70796196      10.44841130       3.17318283       0.01724298      -0.00657803       0.03489955
H        3.94239285       8.83399886       3.37098084       0.01150996      -0.00613332       0.00766777
H        3.40843569      12.15319481       3.10566163       0.02461993      -0.00143201       0.04311639
O        2.53946511       8.46688293       7.48685416      -0.00250182       0.01024497       0.00552917
N        3.21219687      10.16631089       8.85631331       0.00047554       0.00414781       0.01154983
C        3.96528486      10.85131875       7.82829878       0.00685412       0.00275768       0.01530685
C        3.16801734      10.76585105      10.17091917      -0.00275898       0.00327320       0.01159042
C        2.56715854       9.01710699       8.57981469      -0.00335491       0.00739038       0.00597632
H        4.96270669      11.09240444       8.19832877       0.00921133      -0.00943774       0.01599056
H        3.46367854      11.77733287       7.53051837       0.01570393       0.00923356       0.02139910
H        4.05294920      10.19099800       6.97105274      -0.00037561       0.00661780       0.01190963
H        4.17248514      10.82532681      10.59571874      -0.00434911      -0.00130855       0.01563349
H        2.53821808      10.16739116      10.82599603      -0.00790708       0.00571939       0.00859049
H        2.75038937      11.77475129      10.11586216       0.00149791       0.00476202       0.01099864
H        2.05857837       8.59890920       9.46402280      -0.00777631       0.00818071       0.00430268
O        8.14709709      10.66311948      10.28821687       0.00682557       0.00870118      -0.00760382
N       10.09488431      10.86860452       9.09374446       0.00353265       0.00270849      -0.01250015
C       10.91169033      10.01218353       9.93378869       0.00370070       0.00924148      -0.00694060
C       10.77472100      11.52655314       8.00152942       0.00155188      -0.00296468      -0.01653416
C        8.79640316      11.09593043       9.33919285       0.00232190       0.00290097      -0.01016396
H       11.66513729      10.59468517      10.46711365       0.00021797       0.01366833      -0.00708106
H       11.40178270       9.26541652       9.30282710       0.00806074       0.00874610      -0.00306877
H       10.29933907       9.50523116      10.67227410       0.00359017       0.00981773      -0.00709406
H       11.57181599      12.16867377       8.38765921      -0.00047234       0.00205797      -0.02080221
H       10.06899338      12.13699556       7.44257491       0.00042899      -0.00919746      -0.02158486
H       11.21510542      10.78629530       7.32936066       0.00456494      -0.00647488      -0.01038717
H        8.33479264      11.73710129       8.57092439       0.00098284      -0.00231811      -0.01422969
O       10.72855473       4.82831429       3.91713817       0.00462174      -0.01752758       0.00194840
N        8.89055332       3.46880480       4.06110360       0.00037524      -0.01433681       0.00215171
C        7.98183913       4.50664334       4.50686066       0.00359391      -0.01241186       0.00504847
C        8.35199344       2.12917108       3.94504737      -0.00599805      -0.01260740      -0.00018839
C       10.18429740       3.73785138       3.81196674      -0.00248951      -0.02270979       0.00075719
H        7.68655793       4.33234269       5.54515742       0.00593213      -0.01155858       0.00572905
H        7.08192303       4.49333662       3.88749705       0.00247687      -0.00868629       0.00726670
H        8.46196946       5.47911830       4.42186174       0.00697501      -0.01424176       0.00451877
H        7.94491219       1.80728025       4.90803381      -0.00827694      -0.01245208      -0.00135720
H        9.13250606       1.43455338       3.64039617      -0.00801857      -0.01532304      -0.00012850
H        7.54421946       2.08888500       3.21317694      -0.00484514      -0.00845788      -0.00135353
H       10.73600034       2.83872221       3.48285942      -0.00350577      -0.01977563      -0.00058162
O        8.15787098       7.74774525       3.79836095       0.03385174      -0.00150734       0.02237004
N        6.94726955       6.76456876       2.12723243       0.00922704      -0.00335297       0.00678298
C        8.08584555       6.08993529       1.54663274       0.00426389      -0.00126662       0.00311617
C        5.64197510       6.50357517       1.56467927       0.00743525      -0.00379258       0.00379861
C        7.11177005       7.56425142       3.20629619      -0.03359962      -0.01178363      -0.01134419
H        8.08381718       6.24445653       0.46718095       0.00545783      -0.00232941       0.00356281
H        8.04527444       5.01399151       1.74978901       0.01180606      -0.00123927       0.00505321
H        8.99491399       6.51731783       1.95979973       0.00681719       0.00293854       0.00284426
H        5.60306977       6.79331078       0.51063688       0.00755933      -0.00245558       0.00210637
H        4.88273956       7.05284297       2.11902218       0.00465286      -0.00566611       0.00211617
H        5.38870097       5.44055402       1.62100810       0.00645145      -0.00545445      -0.00005151
H        6.16270179       8.03545035       3.51599457       0.00629640      -0.01236847       0.00777999
O        4.75549658       3.67044243      11.57382322       0.00218928       0.00276111      -0.00466357
N        6.60462678       2.40582091      11.10924080       0.00715379      -0.00020838      -0.00072649
C        5.87682490       1.31138103      10.51376991       0.00880682       0.00059362      -0.00194699
C        8.04369001       2.29335446      11.16011141       0.00776929      -0.00126074       0.00175288
C        5.96422192       3.51063727      11.54090585       0.01659095       0.00017691      -0.00203261
H        6.06114904       0.38738109      11.06568552       0.00688396       0.00034940      -0.00221774
H        6.20595776       1.16269564       9.48085868       0.00950608       0.00082256      -0.00151935
H        4.81873596       1.56331714      10.51541189       0.00837445       0.00128403      -0.00330295
H        8.34185567       1.39824686      11.71009258       0.00624168      -0.00165841       0.00220120
H        8.45415980       3.16928394      11.66088504       0.00776950      -0.00178336       0.00203536
H        8.46157196       2.24409494      10.14924886       0.00947031      -0.00224999       0.00239933
H        6.67268664       4.27089844      11.90469230       0.00821969      -0.00080657      -0.00159350
