150
Lattice="12.166103496676913 0.0 0.0 0.0 12.166103496676913 0.0 0.0 0.0 12.166103496676913" Properties=species:S:1:pos:R:3:forces:R:3 energy=-232081.96875 stress="-0.0017331494018435478 0.00021700983779737726 0.0003873059758916497 0.00021700983779737726 -5.670018799719401e-05 -0.00048638541193213314 0.0003873059758916497 -0.00048638541193213314 -0.0015387734165415168" pbc="T T T"
Zn      13.31923048      11.20392085       0.69597469       0.00964066      -0.02039781       0.00809534
O       11.95702255       9.79560963       0.84046999      -0.00891370      -0.00000298      -0.01541391
O       10.05406593      10.64556626       2.95537768      -0.00944009       0.00283492      -0.00285757
O        9.38006437      11.12717389       0.21550009       0.02262735       0.04039349      -0.00284153
O       11.84633928      12.40455257       1.29741136       0.02409863      -0.00632572       0.00993093
Mo      10.66023934      10.98284989       1.35999756       0.00060332       0.01704912      -0.03955179
O        3.93636888       7.23498698       6.76429482      -0.00124228       0.00274432      -0.00175768
C        4.88037672       8.27436942       7.02367154      -0.00333452       0.00212431      -0.00050709
C        6.02204817       8.09248984       6.04518299      -0.00396585       0.00183068      -0.00156432
C        4.26926104       9.66184568       6.92508574      -0.00270447       0.00208986       0.00123049
H        5.26041425       8.14467969       8.04654480      -0.00156966       0.00083259      -0.00110561
H        6.82690113       8.80430583       6.22204852      -0.00261603       0.00086477      -0.00096621
H        6.42788548       7.08103773       6.11523149      -0.00544281       0.00159308      -0.00401869
H        5.66529836       8.23797299       5.02509101      -0.00599377       0.00286684      -0.00036159
H        5.00847428      10.42329698       7.18024210      -0.00299568       0.00231932      -0.00039532
H        3.42135371       9.76684593       7.60359653      -0.00145325       0.00142590       0.00302127
H        3.91596270       9.85175472       5.90923492      -0.00542094       0.00174275       0.00199433
H        3.04034446       7.57623468       6.90329882      -0.00483634       0.00350565       0.00117030
O        1.42333098       8.27998283       6.32867729      -0.01586962      -0.00377966       0.00053340
C        1.50948076       8.12110315       4.89806597      -0.00688356      -0.00302196      -0.00231570
C        1.07552173       6.72125612       4.50462203      -0.00656441      -0.00349373      -0.00204460
C        0.72978108       9.21525147       4.20061508      -0.01205528      -0.00442958      -0.00153640
H        2.57555512       8.23591049       4.69358261      -0.01010418      -0.00049586      -0.00209065
H        1.16535594       6.57195250       3.42891676      -0.00595156      -0.00293385      -0.00213762
H        1.68494667       5.97523586       5.01587048      -0.00473344      -0.00254649      -0.00251099
H        0.02767931       6.56322587       4.76698709      -0.00569993      -0.00553456      -0.00235078
H        0.83311766       9.13712861       3.11665532      -0.00964036      -0.00330831      -0.00138272
H        1.08793275      10.19749558       4.51442328      -0.01560204      -0.00396532       0.00018683
H       -0.33751087       9.14972956       4.42664354      -0.01155774      -0.00884825      -0.00308689
H        0.50381876       8.16272946       6.58730370      -0.00072062      -0.00921445      -0.00238049
O        3.25242477       2.11853951       4.06241011      -0.00376850      -0.00436211       0.00056890
C        2.72357844       1.58163680       2.84628442      -0.00383428      -0.00138768      -0.00268620
C        2.65145752       2.64578240       1.76816078       0.00976168       0.00081813      -0.00131422
C        3.51971092       0.37313790       2.38856894      -0.00754267      -0.00486839       0.00092313
H        1.71025522       1.26192781       3.10340699      -0.00595301       0.00549680      -0.00927861
H        2.18428147       2.25167381       0.86288952       0.00732831       0.00608011      -0.00231107
H        2.04790907       3.49323525       2.08945185       0.01649088       0.00517738      -0.00085121
H        3.66264157       2.99603699       1.52773846       0.01312503      -0.00815699       0.00155165
H        2.98142551      -0.14109986       1.55092694      -0.00254077       0.00087714      -0.00575151
H        3.64846470      -0.35668756       3.18616533      -0.01961130      -0.00756181       0.00025085
H        4.49791877       0.65472886       1.99217788      -0.00251126      -0.01134267       0.00998034
H        4.04505356       2.61872750       3.84490874       0.00015029      -0.01997491       0.00802831
O        8.64444770       7.95967022      10.88122997      -0.00036633       0.01325333       0.01617462
C        7.74974878       8.99623785      10.44585515       0.00315237      -0.00203970       0.00312266
C        7.73641643       9.09409952       8.93547342       0.00919637       0.00334624       0.00514472
C        6.35396738       8.76437514      11.00579525       0.00051540       0.00778140      -0.00099659
H        8.16068413       9.90564724      10.88637357       0.00579062       0.00202894       0.00681892
H        7.06827555       9.88964596       8.60215398       0.01556244       0.00608674       0.00206537
H        8.72506898       9.31793930       8.54084614       0.01251763      -0.00361867       0.00881763
H        7.38601910       8.14991961       8.50748531       0.00557730       0.00446583       0.00352813
H        5.69416102       9.58980512      10.72782771       0.00386706       0.00961082      -0.00314963
H        6.38593123       8.68514347      12.09264408      -0.00465751       0.00598745      -0.00139925
H        5.92851074       7.84081522      10.59982961      -0.00113713       0.00941862      -0.00428042
H        8.44050945       7.17249280      10.36714603      -0.00518200      -0.01078863      -0.00299503
O        4.14806326       2.29038607      10.61771383      -0.01143432      -0.00268722       0.00771898
C        4.42910219       3.63610646      10.22818345      -0.00857334      -0.00527018       0.00463034
C        3.21087750       4.52410226      10.40760531      -0.00624800      -0.00141126      -0.00113499
C        5.65678164       4.16118181      10.96015981      -0.00910962      -0.00432649       0.00425783
H        4.65705920       3.56606302       9.16377642      -0.00645395      -0.01066514       0.00500143
H        3.40557270       5.52968654      10.02943876      -0.00361753      -0.00385243      -0.00575906
H        2.35931590       4.11016405       9.86807011      -0.00731027      -0.00168717       0.00105710
H        2.93906777       4.60253780      11.46275787      -0.00611463       0.00437864      -0.00150935
H        5.91537672       5.16842255      10.62362158      -0.00525706      -0.00728901      -0.00099634
H        6.51135255       3.50701688      10.79245220      -0.01050203      -0.00760017       0.01082018
H        5.47319116       4.21055426      12.03532022      -0.01231921       0.00307737       0.00347285
H        3.79648851       2.31127887      11.51336176      -0.01368928       0.00175117       0.00944374
O       10.18449830      11.24668046       8.36842828       0.00467134      -0.01426777       0.02299774
C       11.03992372      10.66120538       9.35307520       0.01956075       0.01024437      -0.00177179
C       11.79791638       9.49048720       8.75692408       0.01853585       0.00003862       0.02305233
C       11.96564085      11.71090290       9.94266554       0.01504193       0.01259005      -0.00235531
H       10.36290757      10.30361610      10.13133137       0.01300970       0.01514925       0.00892276
H       12.38343710       8.96693920       9.51384054       0.01664244       0.01008182       0.02971484
H       11.08971314       8.78513312       8.31860222       0.02055506      -0.00544198       0.02884887
H       12.48094346       9.84094454       7.97825872       0.02110383      -0.00905780       0.01945260
H       12.66567402      11.24211543      10.65930070       0.01696542       0.02046898       0.00025890
H       11.39943935      12.48254549      10.46408359       0.01492961       0.01591463      -0.00984439
H       12.57182131      12.17527931       9.16014820       0.01454509       0.00679355      -0.00802012
H       10.73198707      11.51372684       7.62434055       0.03778760      -0.00428314      -0.02265405
O        9.02376848       4.62780943       5.80823086       0.00774741      -0.00309306       0.00490662
C       10.00726109       5.39519063       6.51230018       0.00438691       0.00078163       0.00635707
C        9.87280698       6.87051681       6.18856663      -0.00383708       0.00012022       0.00681718
C        9.93002354       5.13547947       8.00713726       0.00365849      -0.00055024       0.00593424
H       10.95854917       5.01561528       6.12897159       0.00623769       0.00624242       0.00745693
H       10.68499781       7.43563256       6.65075659      -0.01077063       0.00598102       0.01221092
H        9.87477734       7.06218709       5.11747791       0.00065036       0.00108944       0.00721163
H        8.93828379       7.27270568       6.58469145      -0.00850777      -0.00680932       0.00189207
H       10.72246547       5.66896091       8.53519345       0.00027974       0.00297952       0.00718667
H       10.01097273       4.07209835       8.22696841       0.00954941      -0.00019443       0.00524400
H        8.97144847       5.49299691       8.39531364       0.00147577      -0.00642752       0.00526163
H        8.15706535       4.91880378       6.11232727       0.00793660      -0.00620028       0.00192522
O        3.66586745       8.84371286       1.37558480      -0.02779198       0.01933277      -0.02071780
C        3.30894652       7.47208410       1.59669708      -0.02093102       0.01400167      -0.00419256
C        1.99842699       7.12923568       0.90874082      -0.01323205       0.00204448      -0.01247936
C        4.42323993       6.53832354       1.16562739      -0.00974882       0.02282301       0.00282457
H        3.18926557       7.40174821       2.68055781      -0.02468718       0.01803271      -0.00866288
H        1.69821244       6.10277309       1.13353416      -0.00535278       0.00022803      -0.01066048
H        1.19928695       7.80806734       1.20438713      -0.02018192      -0.00423650      -0.01624933
H        2.11834134       7.20470225      -0.17510648      -0.00943918       0.00108633      -0.01124100
H        4.19976333       5.51458440       1.47525654      -0.00580740       0.02160250       0.00385763
H        5.37675181       6.83205068       1.59854573      -0.01589723       0.02927359       0.01118335
H        4.52012679       6.53811881       0.07833092      -0.00082589       0.02117774       0.00455646
H        3.98252573       8.91779062       0.46845037      -0.02228759       0.01487496       0.00129576
O        6.86483539       0.40665704       7.96233591      -0.00851985      -0.00688624      -0.00349802
C        7.05281901       1.60510407       8.70823400      -0.00709340      -0.00856030      -0.00235733
C        8.42549557       1.64258795       9.36922792      -0.00826705      -0.01106802      -0.00044754
C        6.83593674       2.82588226       7.82405614      -0.00511029      -0.00648499       0.00042236
H        6.28667150       1.57632317       9.48691862      -0.00904864      -0.00960655      -0.00315356
H        8.53985988       2.54640429       9.97448296      -0.00750527      -0.01185250       0.00063993
H        8.57673269       0.77388638      10.00864707      -0.00905986      -0.01017183       0.00066461
H        9.21187632       1.63570886       8.61275689      -0.00782083      -0.01162292      -0.00003971
H        6.89983617       3.74851618       8.40495584      -0.00469272      -0.00797705       0.00246257
H        5.85900936       2.78090977       7.34119535      -0.00414486      -0.00408267      -0.00150845
H        7.60084950       2.86141252       7.04729497      -0.00338550      -0.00594067       0.00181195
H        7.23722360       0.53849369       7.07812447       0.00028652      -0.00758176      -0.00246939
O        8.42421775       8.50797690       3.62885448       0.02130330       0.00488114       0.00403714
C        8.29914578       7.61394903       2.53306993       0.00938197       0.00255555       0.00017375
C        9.65159570       7.23532790       1.94796485       0.00701833       0.00228745      -0.00355798
C        7.56429046       6.39019545       3.04970244       0.00670782       0.00432914      -0.00427580
H        7.69987348       8.08258358       1.73754615       0.01048124       0.01141420       0.00580579
H        9.53091187       6.50905004       1.14348650       0.00150119       0.01214541      -0.01198231
H       10.17100532       8.09650279       1.52520079       0.01206004       0.00329682       0.00532011
H       10.28394302       6.80092538       2.72616474       0.00459721      -0.01053419      -0.00958507
H        7.35999362       5.69387521       2.23525956       0.00088665       0.01038123      -0.00657453
H        6.61963992       6.67178044       3.51429295       0.00950809       0.00572077       0.00174370
H        8.17272744       5.87622345       3.79586211       0.00702183      -0.00249122      -0.00866622
H        8.95943744       9.28113818       3.35990832       0.00747950      -0.00406824       0.00426040
O       11.79000711       2.97476317       0.88768128       0.00856948       0.00033125       0.00235605
C       10.82440879       3.53826692       1.75980709       0.00305098      -0.00147702      -0.00453907
C        9.43124359       3.42755144       1.15174945       0.00610489      -0.00369013      -0.01007923
C       10.90175455       2.91844427       3.15041293      -0.00244935       0.00507477      -0.00205797
H       11.08461223       4.59899216       1.83736774       0.00128447       0.00044036      -0.00675123
H        8.67387042       3.84290335       1.81871373       0.00330689      -0.00010973      -0.01562840
H        9.39133564       3.96405664       0.20279114       0.01049337      -0.00854664      -0.01266673
H        9.18668019       2.38101861       0.95746893       0.00628636      -0.00465520      -0.00612630
H       10.19310130       3.39263695       3.83349919      -0.00521807       0.00620248      -0.00658614
H       11.90652532       3.03135727       3.56143711      -0.00432508       0.00675721       0.00144578
H       10.68768447       1.84717580       3.09980313      -0.00163598       0.00424846       0.00071327
H       11.74545193       2.00185479       0.98285059       0.01306085      -0.00185737       0.00680119
O        7.66740063       0.97783180       5.23618495      -0.00132746      -0.01053204       0.00007683
C        6.84445057       1.30336112       4.10611233       0.00706641      -0.01010916       0.00009221
C        6.67659648       2.81242832       3.99113640       0.00310761      -0.01118577      -0.00125349
C        7.42572798       0.68438797       2.85000575       0.00177753      -0.00995862      -0.00126094
H        5.87760251       0.85085888       4.33677423       0.00506228      -0.01183516       0.00258470
H        6.10784701       3.07548482       3.09387669       0.00080222      -0.01280194       0.00004867
H        6.16636526       3.21674813       4.86658001       0.00611747      -0.01016655      -0.00051425
H        7.64846303       3.30307777       3.91521760       0.00329936      -0.01114625      -0.00513575
H        6.83337994       0.93336446       1.96852716      -0.00311059      -0.01530793       0.00113903
H        7.49677380      -0.39804668       2.93900304       0.00915780      -0.00938743      -0.00056026
H        8.43305666       1.07047304       2.68123835      -0.00037774      -0.00574704      -0.00714100
H        8.57095381       1.23216472       5.02237476       0.01337972      -0.01167902      -0.00665432
