149
Lattice="12.437059177352749 0.0 0.0 0.0 12.437059177352749 0.0 0.0 0.0 12.437059177352749" Properties=species:S:1:pos:R:3:forces:R:3 energy=-135390.03125 stress="-0.00024920995929278433 0.0003821002464974299 -0.00033571620588190854 0.0003821002464974299 -0.0010445782681927085 -0.0002135381510015577 -0.00033571620588190854 -0.0002135381510015577 -0.0006849740748293698" pbc="T T T"
Zn      11.03346434      11.44053368       1.47191080      -0.02303034      -0.00070427      -0.02561911
N        3.28714489      11.45975660       5.44472973       0.02316684      -0.00631422       0.01971984
C        4.08318539      12.15863356       4.95037480       0.01914954      -0.01370049       0.00301641
N        1.59541801      11.71528541       1.72376252      -0.01790828      -0.00774648       0.03880139
C        0.46214765      11.48363613       1.74913629      -0.03749627      -0.00717627       0.00634784
O        3.27492456      11.70574664      10.31371645      -0.01770675      -0.00211430      -0.01067677
N        4.73189350       9.93973282      10.39725310      -0.01076172       0.00409415      -0.00541659
C        3.70932954       8.94163487      10.64932748      -0.00662713       0.00137319       0.00002027
C        6.10037371       9.48648818      10.25980197      -0.00925133       0.00827494      -0.00546647
C        4.40163146      11.23309845      10.25316129      -0.01605761       0.00204754      -0.01124690
H        3.96355564       8.38024206      11.54796522      -0.00348099       0.00585136       0.00179484
H        3.63151226       8.26040266       9.79812297      -0.00489463      -0.00258054       0.00310943
H        2.76376831       9.46045881      10.77534822      -0.00838861      -0.00161985      -0.00145533
H        6.36198982       8.84102333      11.09834340      -0.00766501       0.00994417      -0.00493145
H        6.77543925      10.34078386      10.24671621      -0.01215498       0.01062238      -0.00714786
H        6.22805766       8.92111710       9.33143710      -0.00747403       0.00770098      -0.00479251
H        5.29604010      11.86133565      10.07585353      -0.01867133       0.00407770      -0.01647130
O        6.75796211       3.95949629       8.64957457      -0.00069666      -0.00404555       0.00186142
N        5.22399442       3.16541361      10.14830719      -0.00367291       0.00111207       0.00181322
C        5.51888744       4.14509011      11.16898013      -0.00298338       0.00171350       0.00097564
C        4.19692089       2.19067511      10.44763517      -0.00582382       0.00335132       0.00146478
C        5.88856173       3.16064005       8.98015156      -0.00262558      -0.00159097       0.00234383
H        5.78082385       3.63859708      12.10072425      -0.00079124       0.00292459       0.00100914
H        4.64998526       4.77885751      11.36117418      -0.00350219       0.00059956       0.00190232
H        6.34859494       4.76450322      10.83987933      -0.00434306       0.00243230      -0.00087115
H        4.46994558       1.59784112      11.32286196      -0.00667332       0.00180304       0.00069830
H        4.05988628       1.51173873       9.61177355      -0.00798183       0.00470233       0.00064930
H        3.24546651       2.68625481      10.65523100      -0.00436458       0.00554000       0.00240441
H        5.55769514       2.34125278       8.32115742      -0.00414234      -0.00159681       0.00318366
O        9.32180280      10.58409273      11.35752197       0.03655714       0.02265755       0.01102257
N       11.25444095      10.27153307      10.18408514       0.02033728       0.00312466      -0.00839800
C       12.02351488       9.88855158      11.34615503       0.02585737      -0.00155642      -0.01359288
C       11.96638701      10.35362639       8.92427428       0.01321244       0.00262566      -0.01248270
C        9.95092205      10.56406182      10.30268325       0.02481306       0.01498701       0.00359231
H       12.78576889      10.63537433      11.57473427       0.01629144       0.00490934      -0.00338585
H       12.51056198       8.92780016      11.17536090       0.03869399       0.00825265      -0.02835073
H       11.32952347       9.75589704      12.17671866       0.02916592      -0.02170265      -0.01500891
H       12.78100148      11.07740765       8.99865597       0.01739085      -0.00188071      -0.01485319
H       11.28142522      10.66266709       8.13680974       0.01058990       0.00811581      -0.00779152
H       12.40297781       9.38695231       8.66359618       0.00742531       0.00125733      -0.01649229
H        9.47778888      10.79794723       9.33394582       0.01637107       0.01642208       0.00807396
O       10.20004811       7.31432518      10.75272047       0.00872403      -0.00197494      -0.00407159
N       10.80500754       6.96332903       8.57771380       0.00798428       0.00261282      -0.00604223
C        9.53900387       7.40344719       8.03365671       0.00437829      -0.00563056      -0.00437886
C       11.80675408       6.47925197       7.65301078       0.01006827       0.00879209      -0.00820492
C       11.01654839       6.97393089       9.90977272       0.00841972       0.00124732      -0.00594103
H        9.01355360       6.56921883       7.56093976       0.00729740      -0.00612155      -0.00739418
H        9.70423889       8.18362434       7.28698532       0.00034253      -0.00276372      -0.00152892
H        8.93320099       7.79385817       8.84758704       0.00317925      -0.01204138      -0.00234488
H       11.41926822       5.62583514       7.08948862       0.01086542       0.01007858      -0.01139124
H       12.68879643       6.16530880       8.20657269       0.01159227       0.01150494      -0.00921611
H       12.10713031       7.26262332       6.95448321       0.00702329       0.01507279      -0.00194123
H       12.02834900       6.62213132      10.17349607       0.01016176       0.00172950      -0.01016411
O        3.93298118       8.85832216       2.23683385       0.00679076      -0.01220340       0.01316118
N        1.96285863       8.43531712       3.30126451       0.00460830      -0.00158003       0.01203111
C        1.82734023       7.11202648       2.74715742      -0.00446580       0.00268313       0.00453446
C        0.94862038       8.88918919       4.22522776       0.00430690       0.00369880       0.00905639
C        3.03296813       9.20972250       2.99070549       0.00928771      -0.00786498       0.01432735
H        0.92755050       7.03611147       2.12649515      -0.00404647       0.01278834       0.00307825
H        1.74965189       6.37174633       3.55024832      -0.01088280      -0.00134224      -0.00010407
H        2.70567365       6.89968595       2.14021169      -0.00536698       0.00039660       0.00424261
H       -0.03651916       8.89005442       3.74391564       0.00703308       0.01381792       0.00416753
H        1.19175361       9.89462446       4.56670170       0.01039872       0.00092784       0.01222529
H        0.91625226       8.23835045       5.10265069      -0.00501752       0.00097010       0.00652033
H        3.01825805      10.17973833       3.50207951       0.01598580      -0.00917196       0.01705128
O       10.56992639       0.62920496       0.48928006      -0.01275950       0.01277050      -0.00254616
N       10.77418628       2.47718670       1.80009589       0.00448084       0.00750406       0.00330150
C        9.70523864       2.06504133       2.69563112       0.01162925       0.00762354       0.01205206
C       11.46115886       3.72388781       2.09530400       0.01275420       0.00439298       0.00128585
C       11.12081152       1.72996380       0.76808293      -0.00516662       0.00801745      -0.00029093
H        9.08249544       2.92749892       2.92884481       0.01756446       0.00903875       0.02135494
H       10.09365492       1.64994598       3.62905027       0.01680614       0.00205773       0.00755155
H        9.10158479       1.31427331       2.19845489       0.00461112       0.01204354       0.01431245
H       10.74743957       4.54666398       2.08050963       0.01403046       0.00554663       0.00218430
H       12.22280135       3.90292597       1.34209862       0.00976267       0.00096427      -0.00279754
H       11.90860128       3.66499956       3.08753780       0.01571398       0.00095443       0.00030598
H       11.91062134       2.14577154       0.13959473      -0.00393723       0.00625254      -0.00025431
O        9.17244284       0.64423723       5.82284216       0.01203585       0.02589011       0.00015265
N        7.25110478       1.73643680       5.20711538       0.00039893       0.00331331      -0.00164095
C        6.94851438       0.90108683       4.06672222       0.01185201       0.00177220      -0.00361428
C        6.29810082       2.78328683       5.51451402      -0.01216257      -0.00831694      -0.00183546
C        8.30282992       1.49320451       6.00433448       0.00204533       0.01556402      -0.00035948
H        6.93000019       1.50308884       3.15315482       0.00782517       0.00302246      -0.00264236
H        5.95105764       0.45126237       4.22355436       0.01630998      -0.00801852      -0.00666408
H        7.71443738       0.13303651       3.99973284       0.01935977       0.00933196      -0.00346161
H        6.23329219       3.48712491       4.68150045      -0.01814253      -0.00792783      -0.00089535
H        6.62274625       3.31311568       6.40920116      -0.01930644      -0.00563870      -0.00092819
H        5.30713420       2.34493328       5.67089733      -0.00708985      -0.02000095      -0.00390024
H        8.30990840       2.16779064       6.87400315      -0.00731004       0.01521915       0.00007749
O        9.41161364      10.77828078       2.14477136      -0.02156970       0.00241885      -0.01461670
N        7.14542630      10.76550326       1.92829298      -0.02187902      -0.00656428      -0.00055142
C        6.87376125       9.98663952       3.13013949      -0.00758484      -0.00790635       0.00154477
C        5.97928338      11.13423072       1.13181631      -0.02986670      -0.01039851       0.00966275
C        8.34064701      11.10356170       1.53115385      -0.02583712      -0.00196746      -0.00850272
H        6.38669843       9.05729322       2.83637581      -0.00395170      -0.01107538       0.00583725
H        6.17561856      10.54649377       3.75463163      -0.00508979      -0.01179177       0.00791083
H        7.80533853       9.80946171       3.65783274      -0.00186756      -0.00210676      -0.00702620
H        5.41844594      10.23199954       0.89162677      -0.02712621      -0.01235598       0.01106025
H        6.31567944      11.63410098       0.22631215      -0.04048605      -0.00534087       0.00856812
H        5.33347900      11.78953590       1.71653587      -0.02865870      -0.01563399       0.01681310
H        8.38994284      11.68254359       0.61202172      -0.03313500      -0.00215930      -0.00874215
O        4.95804060       4.39862192       2.86827620       0.00155485      -0.00691170      -0.01974386
N        3.30348333       2.84121582       3.11730617       0.00347866      -0.00591582      -0.00434378
C        3.90153681       1.86345854       2.23140638      -0.00239738      -0.00851528      -0.00530694
C        2.07756166       2.43570210       3.77428413       0.01105869      -0.00634941       0.00936770
C        3.89880623       4.01490803       3.36022277       0.00479871      -0.00537914      -0.01172632
H        3.24095302       1.67211221       1.38348365      -0.01092952      -0.01547737       0.00316328
H        4.03709824       0.93357734       2.78877423       0.00685051      -0.00500453      -0.00201041
H        4.85445724       2.25609043       1.88793636      -0.00764233      -0.00736974      -0.01801348
H        1.33887461       2.15541564       3.01920385       0.00412957      -0.01084160       0.01818916
H        1.69623341       3.26564065       4.36816041       0.01589976      -0.00533560       0.01083043
H        2.25824374       1.56722919       4.41178407       0.01953603      -0.00405300       0.00987020
H        3.33699688       4.63122522       4.08248580       0.00990352      -0.00311318      -0.00983939
O        5.70456850       7.48494173       0.26539886       0.01420701       0.00958598      -0.01132560
N        7.50702779       6.43853871       1.19084363       0.00204039       0.00233428       0.00387279
C        8.39395002       7.57575599       1.06410500       0.01353212      -0.00827017      -0.00778703
C        8.07343522       5.19004264       1.62694191      -0.01125949       0.00252223       0.02192822
C        6.21712662       6.51221466       0.79739638       0.00403029       0.00979161      -0.00073051
H        9.18865826       7.38239653       0.34306709       0.01516113      -0.02654308      -0.00072715
H        8.83011332       7.81245559       2.03830384       0.01087371       0.00228614      -0.00939369
H        7.80852710       8.42197546       0.71748507       0.02447531      -0.00762072      -0.02387832
H        8.82153702       4.83954841       0.90533730      -0.01891613      -0.01875833       0.02494895
H        7.28364823       4.44636409       1.72410029      -0.01970011       0.01420151       0.03823846
H        8.55641572       5.30577726       2.60201162      -0.00513403       0.01336743       0.01730487
H        5.66179630       5.59111196       1.01792033      -0.00467402       0.01673353       0.00559354
O       12.23859032       3.88954992      11.31511809       0.01763940      -0.00197409      -0.00193638
N       10.95868677       3.04826494       9.61412007       0.00907674      -0.00743383       0.00756277
C       11.78889718       1.88977798       9.35820642       0.01159872      -0.00467430       0.00341577
C        9.77500888       3.19743228       8.79869029       0.00548187      -0.01065313       0.01216167
C       11.24576022       3.92237447      10.59190315       0.01360917      -0.00450808       0.00356162
H       12.07396958       1.86136322       8.30502078       0.00703073      -0.00329022       0.00225285
H       11.23045253       0.97826090       9.58917645       0.01552507      -0.00645036       0.00539602
H       12.67736088       1.94023327       9.98061274       0.01409453      -0.00232487      -0.00045812
H       10.05351539       3.24328851       7.74272771       0.00142908      -0.00582145       0.01140317
H        9.23818160       4.10340110       9.06815435       0.00157548      -0.01446295       0.01695546
H        9.09903853       2.35101775       8.93717130       0.01090854      -0.01495996       0.01129300
H       10.47215165       4.69929558      10.69325692       0.01332912      -0.00509661       0.00638117
O        2.58458560       8.11907244       7.16885802      -0.02843738      -0.01369336       0.00539166
N        4.58804362       7.04991723       7.32537514      -0.01945254       0.00189999      -0.00691569
C        4.00133432       5.82972112       7.82845215      -0.00656876      -0.00259981      -0.00302408
C        6.02417788       7.05578310       7.17937559      -0.02058795       0.01254573      -0.01691250
C        3.79699738       8.11375809       7.02590483      -0.02904129      -0.00436679      -0.00290743
H        4.35612361       5.62498574       8.84123910       0.00072451       0.00081091      -0.00495762
H        4.28529601       4.98600142       7.19495348      -0.00301290      -0.00057578      -0.00397538
H        2.92190753       5.94850085       7.82962541      -0.00744787      -0.01205266       0.00296924
H        6.49893750       6.80272334       8.13136894      -0.01241237       0.01258917      -0.02106825
H        6.36029824       8.03983837       6.85505174      -0.02987287       0.01604483      -0.01521766
H        6.34435763       6.30774932       6.44722387      -0.02016857       0.01778680      -0.02197963
H        4.35326767       8.98462813       6.63993027      -0.03867120      -0.00041264      -0.00760365
