147
Lattice="12.492062799735185 0.0 0.0 0.0 12.492062799735185 0.0 0.0 0.0 12.492062799735185" Properties=species:S:1:pos:R:3:forces:R:3 energy=-314407.5 stress="-0.0007488705450668931 0.00033092338708229363 -4.6809798732283525e-05 0.00033092338708229363 -0.0009172873105853796 0.0003031763626495376 -4.6809798732283525e-05 0.0003031763626495376 -0.0010889049153774977" pbc="T T T"
Zn      13.29198159      11.60057387       1.72098556       0.00061105      -0.01278254      -0.00543625
Br       6.46715973       9.95065137       1.22179290      -0.00662971       0.00299006      -0.00279683
O        7.05232336      10.38732651       2.66083368      -0.00853410       0.00685889      -0.00331092
O        5.52818463      11.18760906       0.64595642      -0.00068635       0.00385094      -0.01021811
O        7.68659474       9.76951391       0.15406206      -0.00472283      -0.00629799       0.00135267
O        5.57967514       8.60829810       1.31507908      -0.01230639       0.00707781       0.00102231
Br      11.99058123      11.18772719       4.66560753       0.00413948       0.00226828      -0.00103106
O       13.24525321      11.00020161       3.54133515      -0.00048243      -0.00249603      -0.00325233
O       12.06548455       9.87798607       5.60177939       0.00467257       0.00834632       0.00603485
O       12.28433781      12.53151476       5.49491265       0.01297607       0.00236598      -0.00745699
O       10.60999924      11.24187225       3.83742663       0.00018379       0.00273470       0.00591676
O       11.63341888       3.49768079       2.83724457       0.00255668       0.00999969      -0.01404226
O        9.56346736       3.59354947       2.00558015       0.00052637      -0.00674790      -0.01044291
C       10.01408896       2.03856939       3.76266381       0.01457724       0.00577056      -0.00288111
C       10.35684727       3.10962218       2.79322464       0.00554457       0.00228459      -0.00922358
H       10.59949485       1.14444632       3.56012879       0.02071446       0.00927004       0.00004395
H       10.27102209       2.39085322       4.75903333       0.01520947       0.01209706      -0.00515485
H        8.95465795       1.81024294       3.70993645       0.01636353      -0.00217380       0.00122956
H       11.65056211       4.42261974       2.51949167      -0.00367582       0.00940189      -0.01657900
O       10.62814659      11.28675329      -0.42621188      -0.00246048       0.00014934      -0.00766018
O       11.66117342      12.50366122       1.14180607       0.00192640      -0.00883844      -0.00407641
C        9.26811742      12.43954127       1.10706611       0.00222903      -0.00014581      -0.00330354
C       10.60995593      12.09570256       0.60709207       0.00080994      -0.00353172      -0.00492775
H        8.51439831      12.22528257       0.35860393       0.00056019       0.00085556      -0.00185853
H        9.07617130      11.82876350       1.99467133       0.00223494       0.00228503      -0.00169691
H        9.24641876      13.48325530       1.41067065       0.00536798       0.00043428      -0.00520563
H       11.54298391      11.10107414      -0.70043566      -0.00378942       0.00006526      -0.01141514
O        4.48762221       0.87067487       1.40256445      -0.00764328      -0.00106204      -0.00453466
O        2.53400037      -0.15370018       1.40038769      -0.00173533      -0.01098448      -0.01293617
C        2.60066023       2.26335935       1.28145960      -0.01461858      -0.01024342      -0.00162075
C        3.19773931       0.90462522       1.37831875      -0.00770202      -0.00751567      -0.00633862
H        2.99960131       2.90755650       2.06561210      -0.00824581      -0.00659819      -0.00835446
H        2.91374345       2.70055730       0.32785516      -0.02641244      -0.01154226      -0.00576457
H        1.51637441       2.23366981       1.34814093      -0.01376346      -0.01345360       0.00864406
H        4.87349663      -0.07261868       1.29612227      -0.00403191       0.00077522      -0.00800589
O        7.48713043       4.88413376       1.08994872      -0.00739712      -0.01230851      -0.00457183
O        7.33853631       5.45025256       3.25816624       0.00304419      -0.01021217      -0.00496435
C        5.36216321       4.79026399       2.06753452      -0.00530863       0.00465706       0.00124072
C        6.81705692       5.09158723       2.21533788      -0.00275314      -0.00679243      -0.00294381
H        4.99909422       5.14128829       1.10226448      -0.00463710       0.00426933       0.00081405
H        5.26078736       3.70191673       2.07326965      -0.01486598       0.00593279       0.00584629
H        4.78665592       5.20850098       2.88557148       0.00007564       0.01246507       0.00057107
H        8.43044509       4.70983231       1.30803168      -0.00722116      -0.01462964      -0.00729951
O        9.39396425       3.68183864      11.52083420      -0.01401061       0.01061472      -0.01042189
O        9.44624132       1.47821144      11.14245653       0.00974435       0.01057088       0.00083086
C        7.31441239       2.57309637      11.39407414      -0.00165206      -0.01492153       0.00289320
C        8.80296306       2.48560567      11.32238101      -0.00071657       0.00284755      -0.00218683
H        7.01522041       2.38198265      12.42721967       0.00427830      -0.02557652       0.00240070
H        6.95903956       3.56846701      11.14298110      -0.01569036      -0.01865292       0.00989232
H        6.86464732       1.81385499      10.76034246       0.00601802      -0.01698329       0.00000048
H       10.34632989       3.51207626      11.56719622      -0.01242644       0.02062988      -0.00928543
O       11.59231174       4.97511577       7.57602233       0.01639313       0.03456897      -0.01408660
O       11.13072502       4.38764754       5.46543540       0.01347226       0.04128206      -0.01622689
C        9.79272389       6.08029426       6.50993363      -0.01257658       0.00102496       0.00405378
C       10.87824051       5.05079402       6.44373401       0.00806242       0.02629542      -0.00742739
H        9.22910351       6.02014140       7.44080444       0.00839070      -0.00166629       0.01504149
H       10.27651073       7.06073254       6.47844596      -0.03598478       0.01004878      -0.01629789
H        9.13007998       5.97118385       5.65685335      -0.02435065      -0.02396255       0.01791610
H       12.43242928       4.52358099       7.34378116       0.02007351       0.03940905      -0.01410162
O        2.41821818       6.36854924       2.46218921       0.00764516       0.01626649      -0.00659651
O        2.19645681       8.59072195       2.34321069      -0.02772050       0.01190037       0.00814193
C        1.53933031       7.46852982       4.36473537      -0.00154585      -0.01050450       0.00271487
C        2.08296817       7.56761091       2.98250735      -0.00920498       0.00676131       0.00185770
H        0.52004527       7.07649578       4.30704512       0.00312153      -0.02251299       0.00427094
H        2.10192001       6.76935800       4.97998350       0.00978032      -0.00901297      -0.00606355
H        1.51418736       8.45309808       4.81886044      -0.01195859      -0.01578709       0.01266259
H        2.71333850       6.53869524       1.55483323       0.00146271       0.02678788      -0.00646144
O        7.09200297       9.11204634       9.03981408       0.01223117      -0.00516206       0.00811377
O        5.49453639       9.10386323      10.59286885       0.00017470      -0.00460845      -0.00477445
C        6.27223263      11.21908070       9.74823278      -0.00125089      -0.00559998      -0.00777778
C        6.22980463       9.72712659       9.86063064       0.00320381      -0.00519836      -0.00163746
H        7.28902271      11.57247305       9.58058691      -0.00193265      -0.00318421      -0.00576376
H        5.66584334      11.52891957       8.89331366       0.00043417      -0.01088878      -0.01063284
H        5.85628518      11.65119221      10.65416377      -0.00560708      -0.00350383      -0.01083185
H        7.14089290       8.16521217       9.31324954       0.01420191      -0.00433153       0.01199839
O        0.61844831      10.04602498       0.37568586      -0.00301310      -0.00942063      -0.01166883
O        1.24961132       8.06412149      -0.49134261       0.00553523       0.00659662       0.00846252
C        2.84391574       9.88935328      -0.51819967      -0.00701797      -0.01072395      -0.01505437
C        1.58693820       9.17932935      -0.26160719      -0.00910202      -0.03035569      -0.00962114
H        2.66335806      10.85339623      -0.99528935      -0.00899793      -0.01057923      -0.01636147
H        3.32694596      10.09089873       0.43929257       0.00144532      -0.00803173      -0.01844600
H        3.52060865       9.28932061      -1.11313915      -0.00931937      -0.01127213      -0.01824807
H       -0.08955338       9.44285183       0.67101958      -0.00289047      -0.00802153      -0.00844669
O        1.83307244      10.04748461       7.41312413       0.00330359       0.00784141       0.01551035
O        1.31971549       7.90496972       7.85336780      -0.01251793       0.00912857      -0.00087671
C        3.62958435       8.58963903       7.82713357      -0.00685161      -0.00787689       0.00321354
C        2.15157830       8.76790935       7.70078817      -0.00504005       0.00444275       0.00570558
H        4.16514306       9.25221706       7.14872011      -0.00274874      -0.00308423       0.01145004
H        3.92563647       8.85019248       8.84560677      -0.00448399      -0.02297065       0.00590216
H        3.91122588       7.55520605       7.65411446      -0.01473725      -0.00733486      -0.00982915
H        0.86673637      10.09151848       7.33241127       0.00388226       0.01465063       0.01366504
O        9.20256727       7.78081838      11.61678476       0.00171429      -0.00453371       0.00317311
O        8.05014493       6.79649112       9.95153292       0.01521742      -0.00395124      -0.00553048
C       10.37026122       6.28010887      10.24252736       0.01545805       0.00584155       0.00444846
C        9.08165835       6.95323779      10.58091454       0.01061785      -0.00167418      -0.00004393
H       10.94655073       6.92678988       9.57589523       0.01522687       0.01101112       0.00918166
H       10.97338216       6.11011254      11.13197009       0.01264379       0.00635122       0.00626162
H       10.18014259       5.35634199       9.70974058       0.02304311       0.00743450      -0.00079396
H        8.37360727       8.26516078      11.83055807      -0.00138026      -0.00885924       0.00006985
O        9.10898412       7.28282152       2.70927670       0.00199199      -0.00990680       0.00322911
O       11.06446476       6.16717311       2.69260926       0.00825453       0.00181818      -0.03031413
C       10.98967656       8.42261142       1.91514983      -0.01114631       0.01025224       0.00130543
C       10.40096319       7.16461042       2.48822579       0.00015460       0.00049561      -0.00997502
H       10.89106256       8.32514508       0.82789871      -0.00976874       0.01701207       0.00064805
H       10.43494115       9.29913327       2.24191473      -0.01828089       0.00327045       0.00679316
H       12.03612885       8.46859721       2.21704367      -0.01213954       0.01679906       0.00326137
H        8.67343976       6.43719130       3.01046355       0.00757901      -0.01524889      -0.00420043
O        5.56185211       2.69078882       6.77868437       0.00891355      -0.00207645       0.01343912
O        7.55930830       3.13187278       5.85638823       0.00148708      -0.00758579      -0.00491512
C        7.09715964       3.91657932       8.09082317       0.02294044      -0.00630170      -0.00102907
C        6.82458225       3.22438364       6.80006852       0.01026434      -0.00561580       0.00178522
H        6.79288169       4.96018897       7.97836088       0.02422873      -0.00578135       0.00110931
H        6.52579716       3.48163594       8.90603445       0.02818179      -0.00435466       0.00349098
H        8.16070583       3.88862424       8.30937466       0.02444157      -0.00924749      -0.00961481
H        5.40455021       2.37868334       5.87656229      -0.00109572      -0.00150186       0.01507944
O        3.92319748       4.27333619       8.42940863       0.03077963       0.02494287       0.00870287
O        3.98138255       3.36338820      10.47952392      -0.00881454       0.00794125       0.00038832
C        3.33595288       5.67396812      10.21630762      -0.00898153       0.00851405       0.00739840
C        3.76546110       4.31705598       9.76228944       0.00375736       0.01376522       0.00488812
H        4.19912340       6.34368563      10.16704560      -0.01462561       0.01583835       0.01574525
H        2.56713524       6.08337236       9.56097740      -0.00766432       0.00447728       0.00363116
H        2.98254909       5.63232563      11.24149743      -0.01689696       0.00112625       0.00424476
H        4.28492151       3.41042849       8.16349417       0.02825132       0.02393648       0.00727296
O        3.41898572       4.27520541       5.33647693       0.00581586      -0.01278228       0.02313402
O        1.59285633       4.54482740       6.59635780       0.01337758      -0.01894259       0.03267360
C        1.67686756       2.68751903       5.07755499      -0.00901145       0.00827807      -0.00033414
C        2.18611418       3.91497241       5.75260195       0.00452039      -0.00978711       0.01923680
H        2.41127079       2.25874297       4.40077375      -0.01266871       0.01106245      -0.00565624
H        1.40965842       1.95434371       5.83670801      -0.02108652      -0.00016500      -0.01363952
H        0.75575738       2.93118834       4.54543054      -0.00435072       0.02827875       0.00177142
H        3.71999620       5.01236935       5.89505741       0.01134509      -0.02257246       0.03316423
O       11.84911820      11.09425236       9.08595947       0.00171328       0.01879114       0.01698434
O       10.04275067      12.23054801       8.38216613       0.00431097       0.00344074      -0.01301365
C       10.03759041       9.82802645       8.22950397       0.01536536       0.00156802       0.01361720
C       10.58364316      11.17402650       8.55669775       0.00690517       0.00655746       0.00386412
H       10.62893693       9.39352598       7.42257932       0.02630056      -0.00635216       0.02630489
H       10.10832126       9.16622143       9.09187304       0.00707573       0.01274142       0.02230518
H        9.00231313       9.93245291       7.92867248       0.01908940      -0.00635895      -0.00010598
H       12.14046749      12.01257546       9.17938925      -0.00364756       0.02109313       0.01027838
O        7.34914224       8.49000112       5.90008745      -0.01971740      -0.01177278       0.02351636
O        6.12052387       6.73852667       6.57466475      -0.02354094      -0.02048194      -0.00741082
C        5.50462127       7.91328002       4.56549172      -0.00169963      -0.00311729      -0.00320083
C        6.32703943       7.62619278       5.77519381      -0.01594301      -0.01273161       0.00357091
H        5.10686038       8.92769996       4.60926609       0.00665098      -0.00006887      -0.00525663
H        6.12574663       7.86730285       3.67303938       0.00713572      -0.00689721       0.00320390
H        4.69622122       7.19163887       4.49436372      -0.00598129       0.00324780      -0.01323242
H        7.80317895       8.28603641       6.73061740      -0.03051508      -0.01600552       0.02811179
