146
Lattice="12.999854169345157 0.0 0.0 0.0 12.999854169345157 0.0 0.0 0.0 12.999854169345157" Properties=species:S:1:pos:R:3:forces:R:3 energy=-525256.4375 stress="-0.004519127309322357 0.0004638621612684801 0.0005193099204916507 0.0004638621612684801 0.0003741005784831941 -0.00026344168873038143 0.0005193099204916507 -0.00026344168873038143 -0.0024581952020525932" pbc="T T T"
Zn      14.08413666      12.75019662      -0.43283006       0.00837629      -0.02977914      -0.00605828
I        5.67750916      10.09337940      11.29594280      -0.00928412       0.00148268      -0.00570899
O        5.98432214       8.33408901      11.47795264      -0.00835367       0.00229621      -0.00005175
O        5.01021412      10.85604811      12.76965668      -0.00200969       0.00916594      -0.00659645
O        7.18459479      10.92990603      10.80838513      -0.00962341      -0.00255936      -0.01453844
O        4.49614122      10.30885714       9.96541718      -0.01417589      -0.00126077       0.00063884
I        6.81920119       9.91829436       2.29335227       0.02185507      -0.00409436       0.00199048
O        7.78023662       9.79835923       0.79181340       0.01064897       0.00129960      -0.00459182
O        5.34434518       8.91024572       2.13658878       0.01110637       0.01249862       0.00373644
O        7.78185813       9.18121855       3.62228282       0.02284229      -0.02656740      -0.01274478
O        6.44247600      11.61660441       2.71833725       0.04261020      -0.00515091       0.02293947
C        1.34134619       7.58931699       5.14675513      -0.00272087       0.00589868       0.00426755
C        0.75481676       7.89749168       3.91826133      -0.00282812       0.00553389       0.00371650
C        1.49047983       8.60681628       6.08644995      -0.00011067       0.00447834       0.00202471
C        1.77297621       6.18420167       5.44020492      -0.00687555       0.00399059       0.00530327
C        0.30121110       9.17972673       3.64600739      -0.00004027       0.00468792       0.00532459
C        1.03390033       9.89152029       5.81823863       0.00367546       0.00642623       0.00319801
C        0.43084214      10.17988682       4.60277471       0.00124440       0.00708851       0.00093634
H        0.65081227       7.11900323       3.16965114      -0.00398470       0.00491392       0.00479004
H        1.97839523       8.39905744       7.03165437      -0.00099014       0.00454131       0.00234017
H        2.24501254       6.10868777       6.41889753       0.01076099       0.00809169      -0.00322244
H        0.91846319       5.50239209       5.42723238      -0.01127192       0.00982821       0.02618470
H        2.48258199       5.82937286       4.69303536      -0.02260332      -0.00621190      -0.00364959
H       -0.15211651       9.39969223       2.68763376      -0.00219583       0.00487156       0.00453119
H        1.17747784      10.67236039       6.55287656       0.00515190       0.00593539       0.00051191
H        0.08305102      11.18320599       4.39055673       0.00334729       0.00529803       0.00212729
C        2.53704001       2.29834750       2.43599361      -0.00038748       0.00219700      -0.00434906
C        2.42642242       3.67809506       2.27758653      -0.00096197       0.00197315      -0.00582527
C        3.16545917       1.56515633       1.43190900      -0.00736579      -0.00021878      -0.00491402
C        2.04940025       1.62241723       3.67881194       0.00836349       0.00665306       0.00182754
C        2.93475456       4.32001124       1.15903416      -0.00643258      -0.00162666      -0.01164253
C        3.66343581       2.19983670       0.30198924      -0.01469994      -0.00381158      -0.01111658
C        3.55418058       3.57726926       0.16293105      -0.01479087      -0.00416431      -0.01245646
H        1.96850511       4.25856254       3.06792606       0.00458299       0.00372669      -0.00561225
H        3.32178794       0.49797117       1.55147774      -0.00914607      -0.00005510      -0.00447098
H        2.84068048       1.03218349       4.13832220       0.01432616       0.01497528       0.00195295
H        1.69409995       2.34788604       4.40835347       0.00693236       0.00853357      -0.00123163
H        1.22459401       0.94004207       3.46259486       0.01232019      -0.00001469       0.00950503
H        2.89484670       5.40091966       1.08818132      -0.00466651      -0.00152582      -0.01221053
H        4.17241273       1.61547115      -0.45039898      -0.02193069      -0.00628012      -0.01332217
H        3.98737780       4.07099240      -0.69448754      -0.02047664      -0.00720032      -0.01753785
C        5.72729581       2.06967971      10.57782058       0.00049041       0.00384007      -0.01090222
C        4.95831351       3.04822022       9.94306655       0.00071800       0.00367580      -0.00956376
C        6.81436055       2.49512886      11.34639552      -0.00088263       0.00248672      -0.00725499
C        5.38074066       0.61567975      10.48008615       0.00428034       0.00284588      -0.01643129
C        5.23852050       4.40175549      10.09776128      -0.00266016       0.00312801      -0.00620551
C        7.09529300       3.84676152      11.49908981      -0.00454661       0.00294453      -0.00514719
C        6.30060874       4.81474355      10.89400214      -0.00489071       0.00328559      -0.00395887
H        4.10267488       2.73915793       9.35186566       0.00255764       0.00301806      -0.01257218
H        7.43329396       1.75431265      11.84370634      -0.00185528       0.00420214      -0.00914730
H        5.71271163       0.07155774      11.36322267      -0.00299342       0.00302319      -0.01390329
H        4.30709617       0.46046723      10.37017190       0.00675565       0.00066612      -0.02746220
H        5.86302225       0.12873472       9.63047940       0.01520836       0.00569366      -0.01116544
H        4.60158132       5.14221338       9.63022828      -0.00253193       0.00253230      -0.00519105
H        7.94168500       4.14777085      12.10409826      -0.00540434       0.00321630      -0.00267795
H        6.48251120       5.87214921      11.05242514      -0.00706020       0.00300586      -0.00102415
C       10.18338731       8.18644081       7.27701808      -0.00138196       0.00152030       0.00596278
C       10.06437535       9.45201984       7.85694519       0.00232837       0.00219664       0.00940306
C        9.54968053       7.11286611       7.89722320       0.00471268       0.00354335       0.01061075
C       10.99113044       7.98774268       6.03541535      -0.01330736       0.00659758      -0.00298795
C        9.34131644       9.63475537       9.02612032       0.01110351      -0.00062893       0.01115786
C        8.81497409       7.29604689       9.06196141       0.01406707      -0.00038289       0.01433535
C        8.71584508       8.55330279       9.63638456       0.01483524       0.00152308       0.01723439
H       10.53392429      10.29831244       7.36469174      -0.00021457       0.00207041       0.00558566
H        9.62138589       6.13254204       7.44211193       0.00184132       0.00191875       0.00865846
H       10.82136660       7.00224722       5.60571701      -0.00276302       0.00008263       0.00784251
H       10.75134200       8.73337121       5.27738013      -0.03668406      -0.00520331      -0.00632422
H       12.05251644       8.08274586       6.25631984      -0.01248676       0.02593724      -0.01817187
H        9.21081199      10.61589787       9.46369945       0.01238453       0.00091225       0.01313514
H        8.29180889       6.46300746       9.51447022       0.01849783      -0.00021647       0.01959902
H        8.13135884       8.70299257      10.53124232       0.02044022       0.00068042       0.01893911
C        5.29774430      10.07357761       6.16153565       0.00858906       0.00194574       0.00503571
C        5.17979996      11.46393553       6.22702365       0.00489199      -0.00016373       0.00856492
C        4.60580405       9.40282483       5.15893744       0.01061238       0.00443751      -0.00045212
C        6.15654774       9.33670098       7.13732593       0.00633821      -0.00181524       0.00405475
C        4.40630728      12.15206923       5.30627930       0.00842960       0.00266398       0.01199987
C        3.82627794      10.08593275       4.23764553       0.01356163       0.00664972       0.00328311
C        3.72853659      11.46514702       4.30593922       0.00982267       0.00514174       0.00559357
H        5.71831093      12.00349893       6.99648216       0.00262992      -0.00195966       0.01434234
H        4.70628306       8.32722753       5.07534098       0.01334500       0.00449349      -0.00317966
H        6.23086469       8.28407134       6.86855095       0.00924988       0.00012977      -0.00011129
H        7.16677529       9.74540982       7.15255580       0.00531431       0.00030866       0.01010916
H        5.74871825       9.42142388       8.14877177       0.00265342      -0.00667037       0.00279391
H        4.35475090      13.23393844       5.35787295       0.00522743       0.00203396       0.01512138
H        3.32617517       9.54572953       3.44908753       0.01460442       0.00857326      -0.00153533
H        3.14447451      11.99186530       3.56458490       0.01172704       0.00768437       0.00833803
C       11.88898588       2.50515475       4.00804143      -0.00197610      -0.00712624      -0.00208853
C       11.47485829       1.24940212       3.56525205      -0.00203086      -0.00667833      -0.00025737
C       12.27434343       3.44206731       3.05039188      -0.00316272      -0.00756967      -0.00203965
C       11.90151461       2.85444193       5.46624048      -0.00092566      -0.00627801      -0.00244969
C       11.41114428       0.95443286       2.20871597      -0.00293082      -0.00781430      -0.00003674
C       12.22973724       3.15070915       1.69481967      -0.00486778      -0.00829799      -0.00174566
C       11.77946813       1.90822916       1.26623907      -0.00418560      -0.00877425      -0.00155856
H       11.17040717       0.50524749       4.29222812      -0.00160210      -0.00628149      -0.00000381
H       12.58042205       4.43007929       3.37554420      -0.00256607      -0.00769508      -0.00348441
H       11.58795652       3.88872356       5.61862767      -0.00823054      -0.00872201      -0.00227592
H       11.23487316       2.21361162       6.04221170       0.00526170      -0.01079826      -0.00066256
H       12.90005231       2.74457113       5.89939371       0.00068086       0.00155763      -0.00472844
H       11.06080444      -0.01754864       1.88472156      -0.00299545      -0.00822109       0.00100382
H       12.53798957       3.89653041       0.97313443      -0.00561376      -0.00882635      -0.00278603
H       11.71042049       1.68736887       0.20783869      -0.00438698      -0.00939614       0.00025323
C        8.48467525       3.29770522       4.37740054      -0.00563105       0.00212128       0.00016376
C        9.21825732       3.86903390       3.34048465      -0.00594777      -0.00213669      -0.00277090
C        7.91626956       4.15762962       5.31497903      -0.00017834       0.00517751      -0.00033891
C        8.25656557       1.81604100       4.46119724      -0.00974803       0.00277883      -0.00020403
C        9.39474043       5.24514543       3.25553534      -0.00440940      -0.00322850      -0.00703701
C        8.07383163       5.53386805       5.22660749       0.00098173       0.00424303      -0.00398926
C        8.81445019       6.09093440       4.19139673      -0.00115384       0.00014552      -0.00875496
H        9.62546609       3.22853425       2.57016800      -0.00807753      -0.00611548       0.00001986
H        7.28598199       3.73897447       6.08991031       0.00275101       0.00761226       0.00387593
H        7.25802447       1.59058532       4.83646197      -0.00915605       0.00581144       0.00369295
H        8.36634846       1.33099049       3.49211097      -0.01241067       0.00396688      -0.00096735
H        8.96439155       1.33691207       5.14315588      -0.00954305      -0.00215461      -0.00437427
H        9.95156194       5.66466388       2.42645508      -0.00506197      -0.00786998      -0.01007444
H        7.58221915       6.18166777       5.94093652       0.00390686       0.00723660      -0.00524333
H        8.86906613       7.16794596       4.08140778      -0.00235615      -0.00080308      -0.01339690
C        6.26663752       5.40722209       2.08348589      -0.01518350       0.00363782       0.00069010
C        5.57702127       5.94527054       3.17315007      -0.01239510       0.00430706       0.00160323
C        6.30595598       4.01814052       1.95527535      -0.01489443       0.00388643       0.00188042
C        6.98550935       6.30851242       1.12803792      -0.01752648       0.00287849      -0.00067252
C        4.99162942       5.11400381       4.11551586      -0.00893264       0.00561211       0.00413637
C        5.69823833       3.18351852       2.88280692      -0.01050331       0.00495386       0.00496435
C        5.04519535       3.73184878       3.97538288      -0.00733213       0.00540368       0.00641701
H        5.54421399       7.02448879       3.27410578      -0.01287091       0.00427881       0.00025734
H        6.84038572       3.57693160       1.12354278      -0.01813278       0.00344705       0.00031827
H        6.31241546       6.79312601       0.41633309      -0.02062851       0.01970926       0.01442334
H        7.48000680       7.11956797       1.66073823       0.00209329      -0.01069152       0.00122643
H        7.74600486       5.76206782       0.57170312      -0.03363707      -0.00138377      -0.01717252
H        4.52816992       5.54820576       4.99224877      -0.00839205       0.00562967       0.00428817
H        5.75654864       2.10928625       2.75978661      -0.01015774       0.00478876       0.00671293
H        4.59371844       3.08552640       4.71920289      -0.00419443       0.00622029       0.00868743
C        9.95107917       2.82791905       8.86234406       0.01132950      -0.00746742       0.00135446
C       11.13799814       3.53749172       9.06033860       0.01084150      -0.01045042       0.00587107
C        9.99402525       1.43545508       8.89464539       0.00884435      -0.00710420      -0.00204465
C        8.67864435       3.56208694       8.59643112       0.01329798      -0.00503665      -0.00240609
C       12.33508797       2.87158618       9.27849909       0.01012182      -0.01257928       0.00883271
C       11.19316632       0.76419260       9.10401559       0.00623070      -0.00977530       0.00200205
C       12.36788055       1.48066007       9.29855661       0.00626022      -0.01344460       0.00821581
H       11.11269333       4.62215519       9.04232685       0.01327708      -0.01066382       0.00804546
H        9.07630500       0.87326456       8.76442180       0.00927854      -0.00556377      -0.00859767
H        7.81555650       2.89797144       8.59996962       0.01228383      -0.00334308      -0.00555821
H        8.50398980       4.33030947       9.34534531       0.01251645      -0.00475454      -0.00328839
H        8.72697754       4.05712037       7.62739786       0.01812814      -0.00579253      -0.00226250
H       13.24577080       3.43696469       9.43533542       0.00975475      -0.01480921       0.00954355
H       11.20189480      -0.31873448       9.11305092       0.00464019      -0.00988930      -0.00113577
H       13.30126407       0.96277769       9.47887465       0.00367565      -0.01530057       0.01360033
