149
Lattice="12.975167514556164 0.0 0.0 0.0 12.975167514556164 0.0 0.0 0.0 12.975167514556164" Properties=species:S:1:pos:R:3:forces:R:3 energy=-104605.265625 stress="-0.0005673549021594226 0.0005398551875259727 0.0002743581426329911 0.0005398551875259727 -0.00039405678398907185 -0.00023481304378947243 0.0002743581426329911 -0.00023481304378947243 -0.0002703193458728492" pbc="T T T"
Zn      13.45633767      11.65431237       2.33107541       0.01139573      -0.02208389       0.01719937
O        4.42461556      12.53498802       4.35979157      -0.00671768       0.00446999      -0.00385016
O        6.06187186      13.83764849       5.20807552      -0.00369382      -0.00140440      -0.00118208
C        5.49491830      13.17876522       4.30704349      -0.00367224      -0.00089806      -0.00150943
H        6.01938768      13.16377643       3.31352466      -0.00012690      -0.00578403       0.00034404
O        0.28820141      11.45618650       4.25243724       0.01485670      -0.04435939       0.01518226
O        1.26159628      11.23574290       6.23129078       0.01304847      -0.03937227       0.00586987
C        1.31880189      11.52345887       5.04624714       0.00581604      -0.03168744       0.03085363
H        2.27097362      11.85936053       4.58995729       0.00345755      -0.00060052       0.02566090
C        5.39275084       4.03790095       4.84958034      -0.00113791       0.00103551      -0.00252515
C        3.99983551       4.01154323       5.46606198      -0.00089025       0.00147128      -0.00202063
C        6.09216981       5.38139843       5.01298102      -0.00004448       0.00030529      -0.00202446
C        3.30995615       2.65662065       5.35665928      -0.00152987       0.00204206      -0.00307041
C        7.52796715       5.37125251       4.50633888      -0.00015950      -0.00098999      -0.00217035
C        1.95958601       2.61046340       6.05739468      -0.00080526       0.00183578      -0.00179318
H        5.99323727       3.23555602       5.28709638      -0.00162685       0.00036439      -0.00321873
H        5.32505396       3.78784827       3.78454297      -0.00176258       0.00177750      -0.00264111
H        3.37740799       4.78597365       4.99906221      -0.00058447       0.00224301      -0.00110130
H        4.07915116       4.29104838       6.52477612      -0.00033054       0.00044289      -0.00185779
H        5.52538050       6.16114447       4.49262616       0.00063431       0.00099716      -0.00169604
H        6.08306100       5.66425538       6.07167056       0.00029330      -0.00004800      -0.00199443
H        3.18500388       2.39575932       4.30188504      -0.00279596       0.00334167      -0.00317350
H        3.96877616       1.88380865       5.75825916      -0.00160864       0.00116643      -0.00468376
H        8.11884289       4.62027754       5.03496387      -0.00092080      -0.00169012      -0.00253096
H        8.01258628       6.34057944       4.63855762       0.00086331      -0.00155255      -0.00189285
H        7.56639294       5.12125715       3.44421564      -0.00061923      -0.00056084      -0.00222215
H        2.06443949       2.82093667       7.12514187       0.00032682       0.00005503      -0.00158916
H        1.26474837       3.34827485       5.64677481      -0.00091307       0.00267860       0.00012980
H        1.50062192       1.62509155       5.96398419      -0.00127147       0.00223422      -0.00300490
C        9.80742360      10.69648343       4.83395852      -0.00186360      -0.00225575      -0.00263989
C       10.03607536      10.33354880       3.37381745       0.00140257       0.00048190      -0.00272232
C        8.74331936      11.77213602       5.01096832      -0.00126481      -0.00158992      -0.00274658
C       10.88193940       9.08378602       3.17443220      -0.00112730      -0.00109985      -0.00310984
C        8.36293810      12.03711156       6.45843942      -0.00214320      -0.00252186      -0.00283545
C       10.95898983       8.66944924       1.71273525       0.00356879       0.00321773      -0.00400230
H        9.48535825       9.79461600       5.37193917      -0.00413299      -0.00291967      -0.00519416
H       10.75635885      11.00699341       5.28356229      -0.00269490      -0.00461401       0.00046183
H       10.51069642      11.17665695       2.85194850       0.00519633       0.00039914       0.00058973
H        9.06352292      10.18444986       2.88845733       0.00262216       0.00426924      -0.00611247
H        9.07246935      12.70460718       4.54309585      -0.00023767      -0.00143373      -0.00166556
H        7.84498611      11.47569837       4.46192619      -0.00085625      -0.00046609      -0.00378279
H       11.88596176       9.26168100       3.57345445      -0.00234574      -0.00472088       0.00139746
H       10.45389833       8.26716679       3.76640164      -0.00548083      -0.00172478      -0.00718510
H        8.08290674      11.10763681       6.96181745      -0.00188281      -0.00304526      -0.00352202
H        7.51261001      12.71635645       6.49287905      -0.00241008      -0.00305164      -0.00284056
H        9.19253081      12.47585632       7.01740794      -0.00274670      -0.00256643      -0.00217760
H        9.95731316       8.54501731       1.29443721       0.00502250       0.00590061      -0.00819302
H       11.47549841       9.43025924       1.12007722       0.00683857       0.00430571       0.00039814
H       11.49047515       7.72773087       1.58372706       0.00281335       0.00300530      -0.00493506
C        1.63739698       7.66015880       9.29266834       0.00164974       0.00509131      -0.00016585
C        1.85311319       9.03996672       9.89874437       0.00279510       0.00460649       0.00035936
C        1.91649121       7.62276914       7.79427571       0.00214009       0.00506154      -0.00007647
C        1.46729989       9.15394367      11.36906386       0.00257279       0.00406641       0.00037411
C        1.62194540       6.26591112       7.17389875       0.00089815       0.00527772       0.00015345
C        1.70410922      10.55373838      11.91378646       0.00540556       0.00274068       0.00237581
H        2.27396777       6.92664611       9.80156213       0.00037734       0.00428781       0.00011130
H        0.60531004       7.34050158       9.47444138       0.00125054       0.00631067      -0.00087171
H        1.28735120       9.77654052       9.31928646       0.00421891       0.00553519       0.00039294
H        2.90482399       9.32303117       9.78500035       0.00318703       0.00338732       0.00106949
H        1.32810346       8.40076607       7.29814958       0.00412926       0.00599563      -0.00038259
H        2.96246988       7.89141941       7.61385200       0.00279933       0.00328790       0.00066773
H        0.41213082       8.88329324      11.48714367       0.00197420       0.00620830      -0.00014108
H        2.03208115       8.42167468      11.95648862       0.00079645       0.00222966      -0.00031711
H        2.23891561       5.48313478       7.61818542      -0.00068898       0.00441270       0.00062120
H        1.81211351       6.26242017       6.10050278       0.00148325       0.00479442       0.00034109
H        0.57917314       5.97992663       7.32638322       0.00044474       0.00692469      -0.00058655
H        2.76784925      10.80643178      11.89309961       0.00601161       0.00017919       0.00363964
H        1.18120125      11.29824762      11.30848125       0.00777793       0.00477351       0.00296669
H        1.35207507      10.68177384      12.94930244       0.00511108       0.00161883       0.00238480
C       11.24417230       9.05161363       8.83588612      -0.00035399       0.00134601       0.00058664
C       10.17379058       7.98505177       8.64195710      -0.00041950       0.00172639      -0.00102387
C       10.72429976      10.46521126       8.62197614       0.00006825       0.00140099       0.00039190
C       10.68240645       6.56923903       8.88243278      -0.00151765       0.00153035      -0.00019810
C       11.80569698      11.53013346       8.72919085      -0.00008017       0.00101060       0.00333858
C        9.63475407       5.49464428       8.63369798      -0.00212681       0.00232396      -0.00045384
H       11.67025080       8.96248467       9.84179173      -0.00185569       0.00108673       0.00111580
H       12.06897813       8.86672377       8.13926015       0.00050071       0.00160829       0.00167674
H        9.77321405       8.05904064       7.62408650       0.00117102       0.00183092      -0.00155941
H        9.33128031       8.18882342       9.31241413      -0.00127879       0.00208119      -0.00230423
H       10.26467151      10.51804538       7.63487700       0.00217174       0.00190457      -0.00071797
H        9.92107807      10.66714730       9.33992161      -0.00144172       0.00103519      -0.00136831
H       11.54639174       6.39039522       8.23574149      -0.00109074       0.00069119       0.00065756
H       11.05533551       6.49147532       9.90926547      -0.00238881       0.00166849       0.00016618
H       12.28065095      11.50786211       9.71244109      -0.00283021       0.00099297       0.00453579
H       11.39001161      12.52963005       8.58783090       0.00058533       0.00123183       0.00203147
H       12.57906577      11.38362659       7.97255303       0.00217170      -0.00003634       0.00565094
H        8.76770582       5.62541221       9.28466863      -0.00263685       0.00357679      -0.00161193
H        9.27559642       5.52455450       7.60265568      -0.00102901       0.00190994      -0.00094751
H       10.03431458       4.49640454       8.81534832      -0.00326972       0.00206737       0.00059237
C        5.32079059       4.39960077      10.15800004      -0.00022203      -0.00199610      -0.00114641
C        6.41254687       3.38952486       9.83157762      -0.00021082      -0.00128952      -0.00305587
C        5.12233596       4.60938033      11.65365840       0.00243554      -0.00149807      -0.00089216
C        6.62281041       3.18474757       8.33733854      -0.00356993      -0.00150946      -0.00350606
C        4.01458849       5.60064633      11.97427696       0.00218681      -0.00237513       0.00065860
C        7.74094977       2.20658948       8.01928413      -0.00383055      -0.00089300      -0.00620345
H        5.56058174       5.36124580       9.68742401      -0.00186815      -0.00203031      -0.00195903
H        4.37695379       4.07188409       9.70651166      -0.00083488      -0.00277479       0.00085722
H        6.16537854       2.42711009      10.29477074       0.00141674      -0.00126225      -0.00229551
H        7.35343294       3.71296557      10.29342441       0.00051716      -0.00056796      -0.00528221
H        4.90017899       3.64671016      12.12542978       0.00413007      -0.00145948      -0.00007328
H        6.06444098       4.95073215      12.09482207       0.00287762      -0.00050373      -0.00279447
H        5.69344985       2.82587987       7.88497171      -0.00440243      -0.00205056      -0.00113800
H        6.83399143       4.15197958       7.86832443      -0.00525526      -0.00152010      -0.00415166
H        4.20179228       6.56960043      11.50567534       0.00063989      -0.00235887       0.00023966
H        3.91734300       5.76544957      13.04793421       0.00371405      -0.00233343       0.00078586
H        3.05126485       5.24519765      11.60267094       0.00190753      -0.00317077       0.00222189
H        8.70279003       2.57298785       8.38444902      -0.00284702       0.00052113      -0.01064756
H        7.55711289       1.24131444       8.49420556      -0.00108028      -0.00028005      -0.00405182
H        7.81478141       2.02695411       6.94742865      -0.00802795      -0.00250202      -0.00625506
C        5.81747119      10.98614223       9.56439776      -0.00131010       0.00228769       0.00019717
C        6.16642856       9.53703513       9.88936907       0.00034465       0.00277412       0.00038376
C        4.98073117      11.13741170       8.29843411       0.00078304       0.00158143      -0.00132608
C        7.07304678       9.37663593      11.10529786      -0.00168946       0.00394011       0.00202993
C        4.51160471      12.55881204       8.02948579      -0.00041212       0.00113314      -0.00118150
C        7.29106249       7.92119011      11.49850701      -0.00075844       0.00420600       0.00250696
H        5.27976254      11.42333368      10.41457785      -0.00343019       0.00115398      -0.00075892
H        6.74133946      11.56766928       9.45928582      -0.00205237       0.00370793       0.00194092
H        6.64517374       9.07329772       9.01819709       0.00278120       0.00381552       0.00117427
H        5.23984014       8.97339601      10.05520403       0.00110087       0.00124167      -0.00155532
H        5.56388077      10.78522201       7.44397364       0.00319359       0.00295824      -0.00017342
H        4.10916595      10.47826803       8.35914193       0.00148967       0.00071080      -0.00370785
H        8.03613498       9.85404996      10.89850459      -0.00187251       0.00495341       0.00388254
H        6.64246880       9.91934260      11.95341358      -0.00389196       0.00339882       0.00113463
H        3.91160211      12.93739859       8.86122287      -0.00287034      -0.00042871      -0.00230470
H        3.91092879      12.59903050       7.12127523       0.00158539       0.00116269      -0.00251293
H        5.35539716      13.23217290       7.87525019      -0.00112449       0.00247896       0.00137459
H        6.35789283       7.46440169      11.83198819      -0.00103781       0.00303236       0.00012216
H        7.65424198       7.33399120      10.65235142       0.00210193       0.00476231       0.00347157
H        8.01736105       7.82198057      12.30673943      -0.00278066       0.00519375       0.00433581
C        2.42530862       7.86177790       2.41009015      -0.00162213      -0.00092152       0.00208402
C        3.03028158       8.23795138       3.75619984      -0.00225270      -0.00015363       0.00195938
C        1.33268334       6.80335035       2.51883331      -0.00151426      -0.00094965       0.00203466
C        4.22293436       9.18175761       3.66072857      -0.00368349       0.00157431       0.00156000
C        0.81223875       6.33743083       1.16593847       0.00095861      -0.00310337       0.00188312
C        4.85320435       9.44904916       5.01815058      -0.00293636       0.00229995       0.00098306
H        2.02013356       8.75889066       1.92360372      -0.00166634      -0.00114483       0.00176915
H        3.22012217       7.49263694       1.75011388      -0.00140098      -0.00095245       0.00240728
H        3.34471935       7.31969941       4.26901048      -0.00043537       0.00027534       0.00166534
H        2.26051419       8.68880609       4.39395541      -0.00281167      -0.00184642       0.00229530
H        1.72416910       5.94319076       3.07322967      -0.00234464      -0.00000980       0.00393948
H        0.50873852       7.20142190       3.11990365      -0.00241905       0.00000332       0.00009151
H        4.96461926       8.75184314       2.97647531      -0.00363007       0.00287867       0.00087605
H        3.92083261      10.13976026       3.22812966      -0.00550464       0.00117901       0.00186023
H        0.44977419       7.17857156       0.57356888       0.00276183      -0.00398079      -0.00048162
H       -0.00714027       5.62373103       1.26991336       0.00030620      -0.00231627       0.00145656
H        1.60180219       5.85306002       0.59036023       0.00183362      -0.00464236       0.00449166
H        4.13402609       9.93497645       5.67802554      -0.00283182       0.00114974       0.00183252
H        5.18457842       8.52007589       5.49187435      -0.00145041       0.00263643       0.00060389
H        5.70378189      10.12394027       4.93339736      -0.00362270       0.00303769       0.00020042
