143
Lattice="12.167245915514902 0.0 0.0 0.0 12.167245915514902 0.0 0.0 0.0 12.167245915514902" Properties=species:S:1:pos:R:3:forces:R:3 energy=-201457.953125 stress="9.582252823747694e-05 0.00028131227008998394 0.0004570843302644789 0.00028131227008998394 -0.00032149700564332306 -0.00047629074833821505 0.0004570843302644789 -0.00047629074833821505 -0.001459207502193749" pbc="T T T"
Zn      14.43858467      11.60852197      -0.84390194       0.01814911       0.00462955       0.02113688
S       13.84022787      11.12179667       1.20906868       0.00708294      -0.00763044       0.01517243
S       11.88534349      10.61355156       1.09113038       0.00637168      -0.00124578       0.00891846
O        6.03074869       8.62736977       8.97932917      -0.00341197       0.00416607       0.00568381
O        6.36602799      10.40923033      10.28478769      -0.00371403       0.01194255      -0.00505018
O        5.17199502       8.65296488      11.06757948      -0.04080731       0.01880199       0.01289880
C        6.86878729       9.49897553       8.21532696       0.00716363      -0.00614396       0.00613090
C        6.78283388      10.81544579       8.97410625       0.01350368      -0.00228393      -0.00316704
C        5.79088510       9.16995704      10.20176775       0.00492626       0.03007826      -0.02707201
H        6.48236854       9.54746875       7.19997234       0.01359306      -0.00841877       0.00145486
H        7.87950512       9.09071685       8.19482680       0.00477353      -0.01456179       0.01191649
H        7.72372815      11.35646806       9.05385012       0.01889026      -0.00963072       0.00368201
H        6.00848626      11.45630077       8.55054811       0.02619448       0.00545852      -0.01540172
O        4.94989799       1.54523821      10.50709311      -0.01556880       0.02642733       0.00284898
O        4.58282058       1.18915359       8.35883927       0.01034588      -0.01660553       0.00709933
O        3.25179497       0.23365761       9.85402555       0.00986782      -0.00945475       0.01055941
C        6.06739138       2.22548696       9.85533322      -0.00610256       0.00823870       0.00184086
C        5.76255032       2.04445907       8.36628267      -0.00771391       0.00654846       0.00347516
C        4.21606915       0.95262530       9.60888208       0.00141006      -0.00021376       0.00686169
H        6.97855483       1.73249623      10.18687319      -0.01421008      -0.00473189       0.00322668
H        6.03477721       3.25831616      10.19077875       0.00810336       0.00906438      -0.00141820
H        5.51597087       2.96434401       7.84239036      -0.02771659       0.00237882       0.00637624
H        6.54728887       1.51202977       7.83074574      -0.00051346       0.02313511      -0.00084693
O       10.80577992      10.48614405       9.96445457       0.01736566       0.00594926       0.00580691
O       12.57073359       9.19371930      10.29371019       0.00800133      -0.00460666       0.01297156
O       12.85160115      11.39478994      10.05665386       0.02241744      -0.00606152       0.01273724
C       10.24240285       9.20016826      10.32822622       0.00840908       0.00993785       0.00477676
C       11.45256086       8.27292903      10.33233382       0.00234021       0.00248736       0.00860625
C       12.11749758      10.41832369      10.13591612       0.01615289      -0.00292876       0.01046129
H        9.49321070       8.93510750       9.58775005       0.00863630       0.01459248       0.00303704
H        9.77985061       9.30436070      11.30721935       0.00675928       0.01315178       0.00381762
H       11.54311249       7.67664172      11.23468351      -0.00516859       0.00133936       0.00863263
H       11.53180547       7.63123687       9.45934774       0.00154928       0.00239669       0.00886098
O        8.06370106       7.18713779       6.34667429      -0.00424796      -0.00976058       0.00410789
O        9.59556856       5.57848005       6.20755235      -0.01041531      -0.01471618      -0.00085857
O        7.46523174       5.03654659       6.66646661      -0.01554942      -0.01275533       0.00992733
C        9.25697780       7.85734567       5.90297157      -0.00352620      -0.01466751      -0.00243092
C       10.34312113       6.79772916       6.09027438      -0.00657219      -0.01627886      -0.00064309
C        8.29394317       5.85847449       6.41263296      -0.00038803      -0.00259715       0.00209536
H        9.40835895       8.73854705       6.52615747       0.00034011      -0.01161805      -0.00715970
H        9.10616682       8.15313542       4.86793532      -0.00563968      -0.01889990      -0.00351480
H       11.02715526       6.69649289       5.25013064      -0.00508535      -0.01881373       0.00034586
H       10.91567031       6.93402933       7.01066134      -0.00683811      -0.01742340      -0.00008684
O        6.77699421      12.78843614       0.52616966      -0.00510547      -0.00263049      -0.01823510
O        6.51402643      10.72192497       1.28847178      -0.00485596       0.00596751       0.00305110
O        4.72144343      11.86391273       0.57093019      -0.00252593      -0.00554537      -0.01761599
C        8.11847496      12.35942726       0.85022608      -0.00661802       0.00682801      -0.00141864
C        7.92408845      10.94857992       1.40996960      -0.00390652       0.00579074      -0.00319594
C        5.90014810      11.79512231       0.77119271      -0.00477892      -0.00080976      -0.01188740
H        8.52644862      13.05627065       1.58256731      -0.02151867       0.00954732       0.00387266
H        8.71774194      12.39489418      -0.05457251       0.00384876       0.01116715       0.00608683
H        8.43967687      10.18086300       0.83618142      -0.00725609       0.00675434      -0.00735441
H        8.19100569      10.85379621       2.46122694       0.00072390       0.00392973      -0.00490531
O        2.97388059       7.40822322       6.24606886      -0.00020643      -0.00140882       0.00562513
O        1.93655823       7.71185181       4.29815072      -0.00194134      -0.00515737       0.00675848
O        3.85427268       6.51718555       4.37423189       0.01685989      -0.01809579      -0.00466698
C        1.71190972       8.01862982       6.56852861      -0.00002678       0.00013566       0.00495696
C        1.29414638       8.59671111       5.22758683       0.00002377      -0.00374228       0.00622112
C        3.00124443       7.13529998       4.92322113      -0.02730179       0.01546776       0.02499723
H        1.87356311       8.75661348       7.35002791       0.00020631       0.00406432       0.00519595
H        1.04872594       7.23595936       6.93336103      -0.00131559       0.00278586       0.00981317
H        0.22432123       8.58775721       5.02849804      -0.00316423      -0.00314850       0.00767151
H        1.67530690       9.60948101       5.07000048      -0.00264570      -0.00223911       0.00330957
O        9.35528408       6.41396195       2.99360832       0.00160129      -0.00387582      -0.01172896
O       11.46291579       5.79493240       2.67672788       0.00508253       0.00227886       0.00164030
O        9.96140927       4.29185638       3.40231060       0.00425482      -0.00314701      -0.01120552
C        9.94630941       7.53726157       2.30876547       0.00373635      -0.00036523      -0.00375567
C       11.41993098       7.14482670       2.17673171       0.00510979       0.00342752       0.00446013
C       10.24139951       5.40155351       3.03518189       0.00439742      -0.00117075      -0.00749791
H        9.79305690       8.43342514       2.90777965      -0.00237989      -0.00286198      -0.00179943
H        9.43292317       7.64105693       1.35727685       0.00969318       0.00220002      -0.00673783
H       11.76147448       7.12415948       1.14691295       0.01134850       0.00679534       0.00659168
H       12.09738324       7.75524127       2.76665619      -0.00007859       0.00347143       0.00968567
O       11.65413548       2.02426102       4.51557031       0.00606990       0.00309455      -0.00731648
O       12.73933420       3.13588711       2.92755935       0.00703820       0.00572988      -0.00484532
O       12.75436044       3.91218730       5.04907428      -0.00072899       0.00699723      -0.00460267
C       11.50594855       1.22208128       3.33135770       0.00860724       0.00349396      -0.00765711
C       11.96019459       2.15484482       2.21970008       0.01340915       0.00255013      -0.00667274
C       12.41094486       3.11768420       4.22767651       0.00295836       0.00410968      -0.00649685
H       10.46313493       0.92577088       3.23531030       0.00823531       0.00606719      -0.01161885
H       12.12995592       0.33355788       3.41782917       0.00664148       0.00240177      -0.00602055
H       12.59817957       1.65253847       1.49637738       0.01867342       0.00238040      -0.00207031
H       11.13346666       2.66997577       1.72991611       0.01537219       0.00000119      -0.01246582
O        6.69167458       0.34271845       4.17460202       0.01312977       0.00233614      -0.00415033
O        6.42458770       2.45886304       4.82262171      -0.00171655      -0.00175235       0.00191320
O        4.71369797       1.37291769       3.82883787       0.00917381      -0.00656679      -0.01308212
C        7.86032711       0.66004419       4.94688288       0.00808027       0.00592738       0.00245024
C        7.83160454       2.18026221       4.99879479      -0.00104153       0.00525939       0.00859034
C        5.82994221       1.39999908       4.23747202       0.00953215      -0.00289385      -0.00479150
H        8.72697120       0.24552549       4.43692222       0.01255178       0.01374676       0.00399324
H        7.76521802       0.20326345       5.93587566       0.00697707       0.00122648      -0.00029910
H        8.14270707       2.61172202       5.94652931      -0.00904731       0.00248388       0.01226199
H        8.39018559       2.65321141       4.18978297       0.00035778       0.01213625       0.01378661
O        4.84942833       8.61228251       2.32255116       0.00339770      -0.00856497      -0.00608122
O        6.64739238       8.76384445       3.62636575       0.00175285       0.00160603      -0.00580752
O        6.74867987       7.55121894       1.73153252       0.01209140       0.00040448      -0.01009047
C        4.51584465       9.59773973       3.31304972      -0.00315037      -0.00997102      -0.00610390
C        5.58054914       9.37511030       4.37640370      -0.00149351      -0.00210223      -0.00679386
C        6.12295174       8.24420810       2.47711528       0.00138026       0.00435770      -0.00061196
H        3.50086975       9.40763894       3.64386435      -0.00174809      -0.01811609      -0.00580004
H        4.56969064      10.58591485       2.85952810      -0.01094976      -0.01032752      -0.00754040
H        5.94738195      10.30501394       4.80362287      -0.00593473       0.00097594      -0.00876851
H        5.27047571       8.67518807       5.15398060       0.00268051      -0.00151184      -0.00442326
O        1.14296607       4.06940255       9.42876077      -0.01105732      -0.00935900       0.00396867
O        1.89080850       5.29192670      11.12701426      -0.02008438       0.01095727      -0.00732699
O        1.24914658       6.30660071       9.22364745      -0.01382537      -0.01728761      -0.01701987
C        1.24512727       3.15911837      10.54509343      -0.01584578       0.00430441       0.01495524
C        2.15199461       3.91708182      11.49722412      -0.02096561       0.01625435       0.01030374
C        1.42249575       5.31480341       9.87453764      -0.01663232       0.00271094      -0.01428497
H        1.65817878       2.22480901      10.17106590      -0.01335742       0.00054121       0.02915981
H        0.24287579       2.99034370      10.93943520      -0.01775074       0.01075526       0.01243831
H        1.91341308       3.79505814      12.55016336      -0.02903113       0.03140310       0.00964051
H        3.21150980       3.73229421      11.32477055      -0.02004206       0.01522536       0.01755898
O        6.82995668       4.36233426       0.55176356      -0.00225708       0.00841234      -0.00598006
O        4.76591694       4.77490417       1.26116930      -0.00314936      -0.00282997      -0.00200677
O        5.23807178       4.90384290      -0.93197961      -0.00651655       0.00308827      -0.00081718
C        6.83486358       3.99039818       1.94934369       0.00219488       0.00854951      -0.00617924
C        5.54467512       4.59769459       2.47274405       0.00042936       0.00257701      -0.00411320
C        5.57788013       4.71490857       0.20832549      -0.00462174       0.00260463      -0.00665003
H        7.73272092       4.39182358       2.40985035       0.00085437       0.01203212      -0.00765257
H        6.82990794       2.89883579       1.99138959       0.00614167       0.00878888      -0.00514529
H        4.99133548       3.94927119       3.14264393       0.00762460      -0.00049192      -0.00154883
H        5.68709850       5.57246437       2.92554405      -0.00405655       0.00372767      -0.00504532
O        9.59738786       0.70841636       8.02967035      -0.00344449      -0.01225065      -0.02362311
O       10.87240622       2.26630590       8.97166265      -0.01801773      -0.01285839      -0.00402787
O        9.26363758       1.25625830      10.18396317      -0.03600350      -0.01414812      -0.02687913
C       10.64780153       0.98227506       7.07641707       0.00882581      -0.01024872      -0.00882488
C       11.19286213       2.31290005       7.55513049       0.00274324      -0.01165473       0.00119378
C        9.87120145       1.40132842       9.16350628      -0.01856011      -0.01273933      -0.02270645
H       10.21451225       1.02514334       6.08673444       0.02197482      -0.00688889      -0.01421541
H       11.38484126       0.17942264       7.13709076       0.00712994      -0.01104796      -0.00151436
H       12.26355428       2.43940673       7.43948762       0.00459448      -0.01378818       0.01866988
H       10.67949611       3.16628880       7.10908433       0.01155207      -0.00997376      -0.00504221
O        8.78256115       6.45113649      10.85974755       0.01670782       0.00126179      -0.00440337
O        9.36605541       4.31930261      10.61872611      -0.00002746      -0.00402039       0.00524613
O       10.06542470       5.45359435      12.42102169       0.02253276       0.00270692      -0.00992239
C        8.00487666       5.95950283       9.73720509       0.00612444       0.00074291       0.00343259
C        8.77242578       4.70353179       9.36654240      -0.00748008      -0.00839886       0.00754163
C        9.44605540       5.40465276      11.39858252       0.01515558       0.00059387      -0.00187343
H        7.99481617       6.72255451       8.96416259       0.00846681      -0.00497001      -0.00164127
H        6.99005398       5.76290319      10.08215217       0.00634295       0.01206321       0.00990257
H        8.14897955       3.89243907       9.00353168      -0.01709905      -0.00583017       0.02018777
H        9.57939443       4.88966878       8.65458763      -0.01228735      -0.02108374      -0.00039059
