141
Lattice="12.158811726236879 0.0 0.0 0.0 12.158811726236879 0.0 0.0 0.0 12.158811726236879" Properties=species:S:1:pos:R:3:forces:R:3 energy=-250051.640625 stress="-0.0006240944494493306 -0.001150110037997365 -0.00015225676906993613 -0.001150110037997365 -0.0013467760290950537 -6.788133396185003e-05 -0.00015225676906993613 -6.788133396185003e-05 -0.0011451093014329672" pbc="T T T"
Zn      12.00803249      11.77007333      -3.29647101      -0.01526895      -0.04109218      -0.00800963
O        4.54426548      11.18084433      11.40992645      -0.00192606      -0.00072134       0.01231095
O        6.37174041      12.97618661      11.91250525      -0.01396370       0.00926208       0.01848495
O        5.86834597      12.25144994       9.46181787      -0.00676155       0.01220536       0.01634574
O        7.06589226      10.58381421      11.07849716       0.00129604       0.01531899       0.01233344
Mn       5.97734370      11.73920183      10.96322688      -0.00493538       0.00902002       0.01489247
O        8.67354835      12.91004647       8.85248940      -0.01206231       0.00273776      -0.01078229
O        8.53946777      10.32818052       8.50150919      -0.03004158       0.00177968      -0.00008613
O       10.42576895      11.36067331      10.05374351      -0.02738887      -0.00553581      -0.00052786
O       10.56785929      11.69300521       7.48597358      -0.01969659      -0.01952276      -0.00165141
Mn       9.48021733      11.55864555       8.71856042      -0.02173555      -0.00414472      -0.00218294
O       11.48994629       9.20175519       8.84380492       0.01108541       0.01426659       0.01755625
O       11.79004846       7.05187724       8.38518796      -0.00250267       0.01831819      -0.00762638
O       12.10626886       8.58883870       6.77260731      -0.00366950       0.03269136       0.01337886
C       11.38759414       8.54088674      10.12490459       0.01255621       0.00107110       0.01146340
C       11.29604367       7.07029813       9.74069991       0.00602067       0.00562352      -0.00441526
C       11.81753217       8.29908755       7.89430414       0.00386479       0.02402693      -0.00228691
H       10.50893487       8.92887672      10.62577004       0.01530284      -0.00073946       0.01709308
H       12.28612016       8.76036611      10.69955689       0.01567024      -0.00867991       0.00982663
H       11.93615565       6.43205133      10.34587789       0.00874934      -0.00170898      -0.01609400
H       10.26823229       6.70639018       9.71742593       0.00525123       0.00796323      -0.00253188
O        2.79552856      10.19831507       6.94963116       0.01147722       0.00051212       0.00244844
O        2.14079718       9.08282860       8.73013565       0.00694722      -0.01148304      -0.00742805
O        1.64573359      11.26176370       8.52409348      -0.00343102      -0.01268928       0.00087269
C        3.24917690       8.82807303       6.68083163       0.01755986       0.00381829      -0.00292617
C        2.74117747       8.04429029       7.88385495       0.00671439      -0.00563323      -0.01432069
C        2.16116221      10.22103587       8.08156079       0.00557074      -0.00816208      -0.00197327
H        4.33292385       8.86150742       6.60650148       0.01802570       0.00598440       0.00757444
H        2.78077347       8.53847563       5.74545052       0.02679646       0.00974774      -0.00916535
H        1.96505221       7.32749666       7.64769949       0.00368395       0.00185755      -0.02640975
H        3.50847277       7.56060125       8.46835504       0.00019693      -0.01652981      -0.01491594
O        9.78825481       8.77084896       0.65677380      -0.00651932       0.00731612       0.00875208
O        9.89755804       6.91472848       1.87173882      -0.00834316       0.00604361       0.00639657
O       11.77331713       8.09926150       1.47144824      -0.01207674       0.00580090       0.01027888
C        8.41824785       8.34999234       0.80413640      -0.00669622       0.00620449       0.00311506
C        8.57173868       6.92587311       1.32100741      -0.00843076       0.00716412       0.00705269
C       10.59714548       7.94017652       1.34889263      -0.00281948       0.00727928       0.00968697
H        7.93807759       8.44082285      -0.16581171      -0.00162147       0.00316902       0.00069168
H        7.92069538       9.01273888       1.51071907      -0.01072282       0.00707972      -0.00109732
H        7.86574099       6.66713111       2.10625050      -0.00813082       0.01111957       0.00818598
H        8.53314321       6.17338602       0.53034403      -0.01006776       0.00476262       0.00985533
O        9.84403658       2.10178881       2.84540691      -0.00378010       0.00453728      -0.00464005
O        9.24820242       4.12165800       2.13154820      -0.01426366       0.00412725       0.00398412
O       11.43233238       3.65397502       2.45510996      -0.01809847       0.01151147      -0.00042034
C        8.42930817       2.00419373       2.58068930      -0.00351694      -0.00166744      -0.00265145
C        8.01298668       3.46141173       2.45722798      -0.01104873      -0.00333285       0.00090614
C       10.29220133       3.31409789       2.48408544      -0.00236779       0.01043810      -0.00039780
H        7.96877834       1.47109350       3.40738120       0.00073431      -0.00454925      -0.00268838
H        8.27824666       1.43529892       1.66497220      -0.00223427      -0.00045577      -0.00337243
H        7.30467634       3.63183589       1.64705147      -0.01055558      -0.00503884       0.00073081
H        7.63360299       3.89143718       3.38494601      -0.01421063      -0.00763412       0.00142273
O        9.34613586      11.47771568       2.40067671       0.00373918       0.00300097       0.01506993
O        9.38525728       9.90922368       3.96670471       0.00117737      -0.01578599      -0.00449347
O        7.41258655      10.76479010       3.28720624      -0.00056410      -0.02263594      -0.01162319
C       10.74996512      11.14700836       2.53485166       0.00409068       0.00357586       0.01863641
C       10.77966582      10.28186964       3.78729461      -0.00098646       0.00213999       0.01629519
C        8.61141691      10.72524707       3.22898727       0.00448579      -0.01253616      -0.00148920
H       11.30947935      12.06965222       2.64211965       0.00328690       0.00382251       0.02100451
H       11.05263090      10.61511601       1.63841151       0.00665362       0.00383717       0.01928329
H       11.36859261       9.37773331       3.68580620       0.01209795       0.01031786       0.02359603
H       11.10302492      10.82510541       4.67288845      -0.02160478       0.00452042       0.02176934
O        1.89273184       1.28444654       1.78322447       0.00499209       0.00708293      -0.00289112
O        3.18871556       0.88772792       3.55248297       0.01671678       0.01023021      -0.01092757
O        0.94768244       0.77895809       3.76974036       0.03165042       0.01378706      -0.00530845
C        3.23679647       1.37495737       1.27973535       0.00110874       0.00673111      -0.01258504
C        4.08321669       1.38351017       2.54328689       0.01241797       0.00044082      -0.01944482
C        1.91041327       0.96329630       3.09875444      -0.00273305       0.00648910       0.00922722
H        3.32309385       2.29391615       0.70123247      -0.00240797       0.00823990      -0.00990020
H        3.45555273       0.52126262       0.63816616      -0.00619461       0.00767469      -0.01602787
H        4.95245536       0.73135479       2.48521291       0.00459728      -0.00826904      -0.02667923
H        4.38333194       2.39292038       2.82809313       0.02487244      -0.00263450      -0.02237156
O        5.13436466       3.85183219       4.83991895       0.00497086      -0.02947798      -0.00914416
O        4.36290403       3.16188531       6.80863991       0.00409751       0.01092848       0.00384773
O        3.78950503       5.20569755       6.04634236       0.01543438      -0.00287557      -0.03372659
C        5.87673514       2.65491672       5.14222543       0.00103658      -0.02684927       0.01334283
C        5.06550389       2.02548243       6.25870324      -0.00583524      -0.00277519       0.02014828
C        4.37506490       4.17489606       5.92085485       0.00655612      -0.00093085      -0.01333439
H        6.87024048       2.94613393       5.47333909       0.00268674      -0.02628307       0.00997525
H        5.92712538       2.04327817       4.24785839      -0.00263549      -0.04085547       0.02323887
H        4.32867866       1.31005996       5.89416558      -0.01253977       0.00096345       0.02819854
H        5.68033839       1.57936923       7.03708176      -0.01174411       0.00231081       0.02662537
O       10.50077826       1.91795998      10.95067127       0.01342133      -0.01418278      -0.00700077
O       10.46343221       3.17936867       9.14027210       0.01481120      -0.02224164      -0.01227406
O       11.99597226       1.56500194       9.31824177       0.00194794      -0.03501233      -0.01220419
C        9.27968108       2.68529820      11.09882592       0.01992190      -0.00553627      -0.00529176
C        9.31103985       3.63174409       9.89894385       0.02000400      -0.01242226      -0.01064377
C       11.03633384       2.17920297       9.77552435       0.00985658      -0.02422620      -0.01083740
H        9.33483573       3.20372421      12.05256527       0.02747902      -0.00092605      -0.00829551
H        8.44528119       1.98512414      11.08129604       0.01540264      -0.00021887       0.00185789
H        8.44688489       3.56053123       9.24452502       0.01709896      -0.01184800      -0.00661719
H        9.48690702       4.66986823      10.17260521       0.02502289      -0.01174644      -0.01688966
O        7.81986976       5.42507771       5.47745969      -0.02722149       0.02560441       0.00713974
O        9.02636333       5.78694572       7.30372417       0.00662154       0.00079355      -0.01107854
O        7.46563071       4.17316645       7.30630799      -0.01533026       0.02026635       0.00622392
C        8.59050299       6.60604070       5.15528230      -0.01010023       0.01103742      -0.00454140
C        9.47939382       6.80298011       6.38072522      -0.00364643       0.00763968      -0.00882974
C        8.05455007       5.06128809       6.75022051      -0.01159412       0.01708746       0.00090241
H        7.89782104       7.43199489       5.01330342       0.00552511       0.02256569      -0.01167249
H        9.15787359       6.40944229       4.24788933      -0.01560634      -0.00703366      -0.00340673
H       10.53412048       6.63617588       6.18497593      -0.00420898       0.01361153      -0.01605710
H        9.32411097       7.77443008       6.84522316      -0.00344677       0.00413090      -0.00182950
O        3.63528551       6.32659224       1.09609614      -0.00689653       0.00251311      -0.00887334
O        1.54041532       5.58520563       1.03116638      -0.00643289       0.00192586      -0.00800557
O        2.17966680       7.24447463      -0.34902648      -0.00647593      -0.00115281      -0.01213539
C        3.58615656       5.29618371       2.09792727      -0.00719178       0.00456066      -0.00660610
C        2.09423806       4.99516592       2.22518787      -0.00713342       0.00653885      -0.00525576
C        2.41817875       6.45382371       0.51583347      -0.00657550       0.00003076      -0.00921541
H        4.02634242       5.67604406       3.01725639      -0.00633220       0.00616561      -0.00772160
H        4.16659439       4.44617302       1.73306512      -0.00830133       0.00341535      -0.00553954
H        1.83870744       3.93949709       2.22749881      -0.00831060       0.00694394      -0.00058191
H        1.63689487       5.47927240       3.08680792      -0.00655457       0.01113287      -0.00765806
O        7.15415120       7.26376736       9.08942548      -0.00196812      -0.01349869       0.00594640
O        5.40219487       8.63007983       9.10863493       0.00471205      -0.00533834      -0.00896215
O        6.69495902       8.51081578       7.26972017       0.00591770      -0.02899873      -0.00298798
C        6.34407138       6.82474375      10.19699988      -0.00439337       0.00123912       0.00976633
C        5.37789048       7.98092542      10.39959610      -0.00068384       0.00660962      -0.00337881
C        6.44654898       8.17972727       8.39036792       0.00403604      -0.01595336      -0.00650162
H        6.99370785       6.64328405      11.04978309      -0.00561301       0.00880576       0.01189300
H        5.84365134       5.90170131       9.91055523      -0.00695348       0.00013644       0.01866946
H        4.35802602       7.65887872      10.60695375      -0.00233990       0.01238558      -0.00376227
H        5.71624116       8.70435708      11.13994017      -0.00023362       0.01227441      -0.00930381
O        3.13116171       8.90249384       2.55392635       0.00097582      -0.00643885       0.01004466
O        1.48835406      10.34125309       2.14535790       0.00670227      -0.00016963       0.00903735
O        1.52605510       9.22024486       4.09858058       0.00492352       0.00290391       0.00568545
C        3.49583857       9.57962186       1.32664606       0.00353396      -0.00877911       0.00988907
C        2.16613482      10.15076580       0.88481148       0.00536805      -0.00476511       0.00934634
C        2.00254353       9.46272544       3.03011562       0.00068375      -0.00250286       0.01575410
H        3.90338919       8.85019465       0.63832695       0.00116467      -0.01056692       0.01093924
H        4.23941760      10.34069299       1.55834016       0.00582662      -0.01100519       0.00977893
H        2.23061209      11.10326154       0.37302274       0.00835621      -0.00652733       0.00725658
H        1.59556436       9.43416478       0.29747381       0.00274715      -0.00420749       0.01141778
O        2.60492586       3.21062836       9.39108979      -0.00026396      -0.00643644      -0.01356551
O        4.52526204       4.09138915      10.07243877      -0.01071697       0.00784528      -0.00389078
O        2.79230825       5.44399706       9.61667728      -0.01532573      -0.00610530      -0.02003637
C        3.46607180       2.07374144       9.60268711       0.00649941      -0.00009257      -0.00843079
C        4.83702272       2.69985337       9.84996620      -0.00009578       0.00926317       0.00420214
C        3.25994156       4.34574465       9.67428558      -0.01022097       0.00014985      -0.01345458
H        3.42871716       1.44205442       8.72018864       0.01824551       0.00133482      -0.00960439
H        3.08936521       1.51195847      10.45763318       0.00328282      -0.00461109      -0.01321194
H        5.34355384       2.31549951      10.73195183      -0.00793350       0.01488817       0.01094395
H        5.50027134       2.63459405       8.99256272       0.00997290       0.01112362       0.01210886
