147
Lattice="12.78154265568174 0.0 0.0 0.0 12.78154265568174 0.0 0.0 0.0 12.78154265568174" Properties=species:S:1:pos:R:3:forces:R:3 energy=-169987.28125 stress="8.38571140775457e-05 -0.00011072967754444107 -2.0117911844863556e-05 -0.00011072967754444107 0.00043680891394615173 -0.00024807892623357475 -2.0117911844863556e-05 -0.00024807892623357475 -0.000783637457061559" pbc="T T T"
Zn      14.72572163      12.16247719       1.07313810       0.04812327      -0.00689148       0.01053688
P        4.83432924      11.61956501      11.80985507       0.00883666      -0.00613981      -0.00671968
F        5.39060712      10.14030646      11.47670154      -0.01832321      -0.01373959      -0.01449828
F        3.29881839      11.03902905      11.79790372      -0.00141299       0.02229860      -0.01374682
F        4.23727119      13.09303696      12.13854357       0.03557429       0.00158101       0.00121427
F        6.33360980      12.21459026      11.81615158       0.01879406      -0.03490546       0.00077247
F        4.70529922      11.93088373      10.22687937       0.01848614       0.00531532      -0.00497735
F        4.92044839      11.31126450      13.38656928      -0.00185178      -0.01763503      -0.00873053
P        4.93448315       9.87597830       5.29394465       0.00287484      -0.00406390      -0.00286197
F        5.02263142       8.96815707       6.63847704       0.00059134      -0.00099349      -0.00079691
F        4.83622191      10.77145650       3.95133907       0.00471564      -0.00642258      -0.00539768
F        4.66755723       8.52448030       4.41979252       0.00605755      -0.00574255      -0.00052619
F        5.17810748      11.21166782       6.17209294      -0.00132333      -0.00186086      -0.00488436
F        6.52461832       9.69905361       5.07204909       0.00335145      -0.00234175       0.00142714
F        3.32926755      10.03239041       5.50781982       0.00229943      -0.00521849      -0.00702737
C        9.46975649       9.50269910       7.00456107       0.01275375       0.00947647       0.00935154
C        9.98133612      10.67230317       6.45413962      -0.00141203      -0.00434013       0.00927662
C        8.26638517       9.53242670       7.69867987      -0.00171620       0.00177760       0.01532201
C        9.28491721      11.86770847       6.59764603       0.00384833       0.00294028      -0.01099228
C        7.57184823      10.72430554       7.84907519       0.00447261       0.01052388      -0.00554065
C        8.08145443      11.89041176       7.29203136      -0.00993478      -0.00395615      -0.00541255
H        9.99887986       8.56492896       6.88407468       0.00967455       0.00483765       0.02444752
H       10.91587967      10.65074464       5.90579499       0.00654532      -0.00013270       0.00731260
H        7.85323760       8.61746748       8.10083543       0.00778067       0.01027244       0.01762098
H        9.67609218      12.77728480       6.15549671      -0.00440724      -0.00451279      -0.01325028
H        6.62032055      10.73809383       8.36160609      -0.00389472       0.00513194      -0.00295408
H        7.51892475      12.81129987       7.37583696      -0.00689007       0.00047882      -0.02050457
C        9.59113504      10.81163736      12.06873553       0.01052462       0.00723585       0.01743525
C        9.49781598      11.57244937      10.90897336      -0.00277320      -0.00382243       0.01236674
C       10.83104943      10.34689004      12.49573675      -0.00306130       0.02242989       0.02556899
C       10.64451880      11.86260637      10.17794520       0.00025865      -0.00408822       0.00688395
C       11.97878429      10.64482282      11.76925031       0.01105188       0.01628016       0.01570602
C       11.88345290      11.40066652      10.60696074      -0.00400312       0.00369087       0.01130622
H        8.68944872      10.58274555      12.62318114       0.00353406       0.00723604       0.01719354
H        8.52849616      11.92407369      10.58294724      -0.00280485      -0.01043100       0.00650223
H       10.90817041       9.73909285      13.38955109       0.00207777       0.02087328       0.02457632
H       10.57138471      12.43597711       9.26217405      -0.00487375      -0.01190730       0.00395098
H       12.94647181      10.28690634      12.10283909       0.00454588       0.01867812       0.02001990
H       12.77563303      11.62534201      10.03645647      -0.00339934       0.00092997       0.00669912
C        9.99354662       7.33876406      10.66299420       0.00337701       0.00801928       0.00080258
C        9.24066963       6.59602292       9.76356036       0.00541797       0.00586737      -0.00118143
C       11.37735082       7.37993500      10.53789729       0.00186058       0.01215278       0.00349128
C        9.86912043       5.88443137       8.74911087       0.01074126       0.00984564      -0.00051180
C       12.00397560       6.69195092       9.50736890       0.00719355       0.01362170       0.00387804
C       11.25042303       5.93661980       8.61683514       0.00787731       0.01273466       0.00145705
H        9.50690526       7.89844291      11.45094565      -0.00018748       0.00633545       0.00036226
H        8.16282880       6.55859683       9.85593552       0.00603952       0.00296310      -0.00224486
H       11.96720198       7.96309509      11.23151076      -0.00024150       0.01331188       0.00419658
H        9.28214087       5.29199447       8.06298731       0.01146995       0.00862290      -0.00332770
H       13.07566486       6.76335407       9.38601829       0.00591704       0.01577367       0.00625666
H       11.73660849       5.38920373       7.81832285       0.01231065       0.01536695       0.00157542
C        2.81280228       9.25066797       2.06770851       0.00250210      -0.01183805      -0.00227591
C        1.73070629       9.00089938       2.90647001       0.01016929      -0.01426093      -0.00266680
C        2.99112286       8.48867815       0.91938499      -0.00317574      -0.00022255      -0.01478496
C        0.81779300       8.00421599       2.58752730      -0.00117187      -0.00752800      -0.00550894
C        2.08336766       7.48285086       0.60390976      -0.01421181       0.00644065      -0.01624925
C        0.99330337       7.24215145       1.43473188      -0.00620936       0.00429481      -0.01725297
H        3.53796437      10.00612259       2.33570215       0.00989836      -0.01819277       0.00036439
H        1.62542234       9.58152493       3.81262486       0.01650319      -0.02504735       0.00583357
H        3.83347610       8.69412982       0.27224491      -0.00809531       0.00178508      -0.01472507
H       -0.02773107       7.81384053       3.23904539       0.00402213      -0.00915734      -0.00482461
H        2.22468368       6.88794391      -0.29110190      -0.01868924       0.01528990      -0.02515519
H        0.28340452       6.46193358       1.18438040      -0.01409812       0.00956220      -0.01916624
C       10.91033221       3.33807972       1.39086711      -0.00361715      -0.00253382      -0.00784495
C       11.93602051       3.40566121       2.32760317       0.00924204      -0.00138249       0.00649661
C       10.15465601       2.17705408       1.26850441       0.00769056       0.00097397       0.00384171
C       12.20428409       2.31441823       3.14628664      -0.00480941      -0.00192457      -0.00535183
C       10.42956945       1.08335192       2.08162479      -0.00827944       0.00075684      -0.00695167
C       11.45439036       1.15081649       3.01777668       0.00688071       0.00180921       0.00612634
H       10.69619914       4.18982887       0.75654691       0.00371766      -0.00060920       0.00065494
H       12.52669491       4.30888902       2.42761174       0.00145957      -0.00209576       0.00037483
H        9.35240639       2.12359013       0.54396821      -0.00012553       0.00057896      -0.00320622
H       12.99890502       2.37309737       3.87890586       0.00102958      -0.00085644       0.00362647
H        9.84828046       0.17652092       1.97561157       0.00163374       0.00105530      -0.00151862
H       11.67074807       0.29562010       3.64510221      -0.00235287       0.00080848      -0.00096601
C        4.36259190       3.28797533       5.70333474      -0.01303329      -0.00404045       0.00176853
C        3.69706209       2.57665465       4.71069105      -0.00660444      -0.00721461       0.00670361
C        4.29042442       4.67581216       5.73191716      -0.01085784      -0.00476097       0.00179181
C        2.94866984       3.26276504       3.76085216      -0.00754958      -0.00997672      -0.00217800
C        3.55655289       5.36425136       4.77331058      -0.01230088      -0.00732550      -0.00608230
C        2.87516459       4.65134993       3.79468870      -0.00590572      -0.01010339      -0.00169134
H        4.95001727       2.75524144       6.44148800      -0.01283022      -0.00195123       0.00765996
H        3.78174074       1.49823000       4.66568257      -0.00838481      -0.00735164       0.00739831
H        4.81347026       5.23763852       6.49374305      -0.01440452      -0.00183412      -0.00083292
H        2.45418367       2.71142535       2.97090860      -0.00273298      -0.01290344       0.00055170
H        3.54548314       6.44769266       4.78114389      -0.01140886      -0.00730103      -0.00652746
H        2.32173071       5.18962388       3.03459652      -0.00596999      -0.01238752      -0.00709008
C        1.70104711       4.07767933      10.05117936      -0.00000157      -0.01151013      -0.00258141
C        1.66998776       3.35136226      11.23632822      -0.00666681      -0.00761713       0.00494438
C        1.93996225       3.42759735       8.84577076       0.00807390      -0.00535223       0.00775397
C        1.89684262       1.98261631      11.21673765      -0.00074108      -0.01269427      -0.00095775
C        2.16675891       2.05535323       8.82896116       0.01335954      -0.00950520       0.00140086
C        2.15575381       1.33302477      10.01666582       0.00603376      -0.00621513       0.00829891
H        1.54848162       5.14742289      10.06589712      -0.00504383      -0.00900619       0.00153092
H        1.47636478       3.85541488      12.17624033      -0.01301609      -0.01160265      -0.00064322
H        1.96294430       3.98944418       7.92012655       0.01366876      -0.00763097       0.00289913
H        1.88517791       1.40991451      12.14080303      -0.00508114      -0.00910380       0.00346792
H        2.36559234       1.55516915       7.88929280       0.01974399      -0.00602315       0.00670823
H        2.37943566       0.27492509      10.01761146       0.00889064      -0.00862595       0.00426904
C        4.58249107       4.33203703       0.92141650      -0.00244689      -0.00045811      -0.00268698
C        4.86956215       2.97369309       0.87174836      -0.00602250       0.00824076      -0.00172952
C        5.40650950       5.19912630       1.62881783      -0.00117102       0.00545689       0.00109554
C        5.98560302       2.47410748       1.53356404      -0.00770012      -0.00320408      -0.00170535
C        6.52276626       4.70022464       2.29029545      -0.00267716      -0.00576688       0.00128122
C        6.81060769       3.33948023       2.24389590      -0.00652088       0.00257435       0.00167365
H        3.70849653       4.71766541       0.40979395      -0.00085010       0.00713807      -0.00277809
H        4.24118338       2.29690955       0.31024052      -0.00707941       0.00529797      -0.00396346
H        5.16892775       6.25453788       1.68607140       0.00140782       0.00098401       0.00076384
H        6.20170610       1.41321330       1.48782568      -0.01020841       0.00126895      -0.00143148
H        7.15935779       5.36828549       2.85556504      -0.00222289      -0.00283101       0.00339547
H        7.68065197       2.96000510       2.76583144      -0.00794324      -0.00496034       0.00190964
C        6.06288470       3.10461458      10.29012037      -0.00503835      -0.00538792      -0.00477347
C        6.75732438       2.08173309       9.65548639      -0.00779822      -0.00916880      -0.00386073
C        6.74915945       4.02666342      11.07203979      -0.00090522      -0.00565325      -0.00879605
C        8.13822154       1.99265711       9.79302776      -0.00845667      -0.01165181      -0.00587011
C        8.12378647       3.91731434      11.23452318      -0.00189260      -0.00723284      -0.01087509
C        8.82170686       2.90533365      10.58730648      -0.00400212      -0.01126247      -0.00941604
H        4.98463899       3.16385286      10.19803225      -0.00470212      -0.00362603      -0.00334689
H        6.21770816       1.33823527       9.08294763      -0.01059119      -0.00906676      -0.00094023
H        6.21027847       4.81228813      11.58342354       0.00096924      -0.00297172      -0.00910161
H        8.67852636       1.19901042       9.29416274      -0.01079549      -0.01424178      -0.00457998
H        8.64863305       4.62667531      11.86163069       0.00155043      -0.00721854      -0.01402450
H        9.89589477       2.82784497      10.70386373      -0.00502630      -0.01349214      -0.01072481
C        9.67915671       5.46069647       4.62256808      -0.00416589       0.00937387      -0.00353263
C        9.63598238       4.15992495       5.11428502      -0.00687528       0.00581291      -0.00306513
C        8.68442344       6.37184819       4.96278467      -0.00626758       0.00703216       0.00193448
C        8.59939221       3.77500346       5.95585972      -0.00313444       0.00726745      -0.00538912
C        7.64352454       5.98512546       5.80008713      -0.00254323       0.00849429      -0.00075751
C        7.60918245       4.68775879       6.29997732      -0.00488013       0.00458667      -0.00018419
H       10.48681110       5.75592837       3.96381915      -0.00651459       0.00881603      -0.00222434
H       10.40335723       3.44956869       4.83528836      -0.00582026       0.00745597      -0.00696136
H        8.70402621       7.38319534       4.57682481      -0.00463158       0.00912860       0.00208093
H        8.56404383       2.76752579       6.35260096      -0.00469168       0.00504071      -0.00582154
H        6.86889929       6.70091184       6.04811495      -0.00378333       0.00656374       0.00261689
H        6.82100369       4.38180855       6.97484349      -0.00344718       0.00517346      -0.00219204
C        3.19139766       6.76679905       8.47821563      -0.00507463       0.00840232       0.00326411
C        3.55571971       7.79788421       9.33467328       0.00392658       0.00878298       0.00999035
C        2.23484347       6.98645226       7.49258805       0.00716671       0.00378003       0.01088274
C        2.97110759       9.05197005       9.20308194      -0.00338975       0.01198637      -0.00428455
C        1.65398528       8.23955798       7.35820772      -0.00054094       0.00828709      -0.00290345
C        2.02333765       9.26996486       8.21200523       0.00923254       0.00800341       0.00503347
H        3.65605973       5.79288810       8.57039923      -0.00104875       0.00649908       0.01248720
H        4.31457576       7.64005913      10.09153777      -0.00282355       0.01149319       0.00654717
H        1.95901970       6.18780464       6.81622996       0.00147739       0.00450590       0.00722535
H        3.27467401       9.85550410       9.85743114       0.00272932       0.01228207      -0.00002381
H        0.92911312       8.41811067       6.57434830       0.00669439       0.00528008       0.00158176
H        1.59394854      10.25447772       8.08308675       0.00491240       0.01005907      -0.00467619
