146
Lattice="12.525013567416842 0.0 0.0 0.0 12.525013567416842 0.0 0.0 0.0 12.525013567416842" Properties=species:S:1:pos:R:3:forces:R:3 energy=-288494.71875 stress="-0.004397956188768148 -0.0004788467340404168 -0.0011102481512352824 -0.0004788467340404168 -0.0039014555513858795 -0.0007714014500379562 -0.0011102481512352824 -0.0007714014500379562 -0.0025002930779010057" pbc="T T T"
Zn      14.07127461      13.99104477      -1.13368303       0.01192053      -0.02642147       0.03889133
S       11.41979423       8.68760073       1.22376627      -0.00771046      -0.02136379       0.03348099
S       10.60551634       6.92266098       0.57221393      -0.00536388       0.00610709      -0.01904100
O       11.38918775       8.69011417       2.68888820       0.00396297      -0.00301602      -0.04179955
O       10.61666739       9.78798883       0.66234619      -0.01381660       0.02186430      -0.02001446
O       12.78404562       8.73538369       0.67452571       0.01509070       0.00242679      -0.02766013
S        8.01642911      11.22450554       8.57872135      -0.00597233       0.01256514      -0.00632286
O        8.32453468      11.00608082      10.01523001      -0.02206117       0.02277030      -0.00143361
C        9.20096100      12.43470153       7.96650005      -0.00066593       0.00919694      -0.00135319
C        6.60322632      12.35067944       8.53970038      -0.00768739       0.00895345      -0.02853185
H       10.15209027      11.93012719       7.80319724       0.00141719       0.00989315       0.01381846
H        9.30929830      13.24827242       8.68339257      -0.01086458       0.01603968      -0.00810783
H        8.81689062      12.83124870       7.03215576       0.00987836      -0.00041817      -0.00890747
H        6.19455899      12.42211389       7.53252651      -0.00443053      -0.00831325      -0.03000139
H        6.92449806      13.33263851       8.87860006      -0.01349708       0.01525877      -0.04214121
H        5.86216346      11.94881059       9.22580027      -0.00748591       0.01576557      -0.02499093
S        5.85946197       2.60042314      10.28961223      -0.00651920      -0.00305289       0.00236678
O        4.84186001       1.69618044      10.89495687       0.00143862      -0.00280619       0.01273555
C        7.33284187       2.48505754      11.32870191       0.00228679       0.00147756      -0.01108414
C        5.43498133       4.29595748      10.72459905      -0.00627902      -0.00261211       0.00330609
H        7.68606861       1.45775141      11.24062770       0.00227303       0.00183898      -0.01119961
H        7.05809467       2.69834894      12.36300200       0.01207919       0.00412032      -0.00926171
H        8.09378535       3.17567985      10.96551482      -0.00202680       0.00041211      -0.01980703
H        6.26407846       4.93985982      10.43627801      -0.01328142      -0.00117145      -0.01106598
H        5.23716691       4.36309253      11.79344567       0.00852660      -0.00092576       0.00528365
H        4.54756996       4.55932156      10.15358484      -0.01410551      -0.00742598       0.01430687
S       11.97030578      11.58534333      11.61528073      -0.00659727       0.01393753      -0.00274575
O       12.68160429      12.63515786      10.72734892      -0.01334077       0.01209426       0.01118773
C       11.71199565      10.19246287      10.52069617       0.00266288       0.01456064      -0.00631887
C       10.30290424      12.21628370      11.76740180      -0.01154989       0.00127164      -0.00439910
H       12.62350635       9.60056073      10.55474059       0.00951140       0.02495529      -0.01348098
H       11.52112660      10.58331947       9.52444830      -0.00420246       0.01906444      -0.00313652
H       10.87994088       9.61362717      10.91406635       0.01051940       0.00292864      -0.00832830
H        9.63712749      11.38550904      11.97061207      -0.00751776      -0.00105986      -0.00179321
H       10.04448328      12.71046174      10.83605357      -0.01367620      -0.00483613      -0.00709955
H       10.31740008      12.92206877      12.59390411      -0.01669817       0.00514990      -0.00745915
S       10.12320764       8.70575456       7.74105790       0.00111783       0.00651395       0.00916052
O        8.95173458       8.02774930       8.36679465      -0.00250101       0.00537717       0.00752413
C        9.96213809       8.56368479       5.94875990       0.00432777       0.00352354       0.01060915
C       11.52797200       7.62065541       7.99405339      -0.00063044       0.00680119       0.01437041
H        9.03569071       9.07129964       5.68525673       0.00710401       0.00556189       0.00675042
H        9.88791687       7.52333587       5.64424958       0.00203767       0.00311087       0.01317533
H       10.80994176       9.03682347       5.45255474       0.00710745      -0.00013732       0.01207867
H       12.42539793       8.01330791       7.51101503      -0.00025086       0.00536419       0.01461039
H       11.27243891       6.62510353       7.63192615      -0.00047171       0.00687128       0.01487207
H       11.68469763       7.58125328       9.07098820      -0.00224340       0.00751671       0.01383188
S        2.40164487       8.32611707       5.78511752       0.00306506       0.00121813      -0.00097466
O        1.89459946       8.49441840       7.19067604       0.00428474      -0.00204673      -0.00043654
C        3.49394040       6.89622927       5.81495194       0.00037849      -0.00024557      -0.00583184
C        3.67361862       9.57674553       5.57816669       0.00680184      -0.00224775       0.00298964
H        2.87151754       6.03434384       6.05119443      -0.00106998      -0.00008838      -0.01041915
H        4.25233171       7.05747859       6.58011652      -0.00100493      -0.00474092      -0.00432160
H        3.92309629       6.77272699       4.82062746       0.00141613       0.00338714      -0.00554492
H        4.18383831       9.42243540       4.63359619       0.00405280       0.00169529       0.00109114
H        4.37106322       9.47795522       6.40645325       0.00755693      -0.00868211       0.00077856
H        3.16307759      10.53565888       5.54989861       0.00999172      -0.00056442       0.00959648
S       11.77388863       3.30730285       1.80897120       0.00958979      -0.01591569      -0.00207734
O       13.09483059       3.66381563       1.21186539       0.00728977      -0.01900712      -0.00668561
C       11.87044349       1.51767730       2.04344226       0.00182315      -0.01700014      -0.01074514
C       10.56308060       3.32054080       0.48040962       0.00402501      -0.00149624       0.00429517
H       12.52107201       1.33997320       2.89771145       0.00326644      -0.02407253      -0.01391879
H       12.33683516       1.10231343       1.14709291      -0.00168049      -0.01393695      -0.01370098
H       10.89009998       1.07731780       2.21517622       0.00114046      -0.01399357      -0.01044793
H        9.60966306       2.99007134       0.89206300       0.00499744      -0.00330689       0.00478932
H       10.91477072       2.68719658      -0.33468277      -0.00079536       0.00553977      -0.00273867
H       10.49491482       4.36138172       0.16121362       0.00417741       0.00136986       0.01435686
S        8.61320243       1.48305892       3.65585619       0.01361071      -0.00150609      -0.00344884
O        8.62611425       2.91767951       3.24111908       0.01016498      -0.00033844       0.00016996
C        7.18302129       1.20006146       4.71754117       0.01435548      -0.00682677      -0.00519615
C        9.89604541       1.27333371       4.91207892       0.01373124       0.00002120      -0.00465614
H        6.29167822       1.49544254       4.15945121       0.01473120      -0.00498276      -0.00434755
H        7.25464113       1.81350068       5.61475742       0.01336931      -0.01141825      -0.00245567
H        7.14093329       0.13602262       4.95933692       0.01487118      -0.00765274      -0.01048050
H       10.00085664       0.21021334       5.12618157       0.01551693       0.00043279      -0.00498859
H        9.65480316       1.83318608       5.81556097       0.01267628      -0.00069198      -0.00482309
H       10.81663709       1.64424849       4.47222881       0.01277536       0.00176706      -0.00453590
S        7.34788060      10.27483308       1.90696838      -0.00639236       0.00185639       0.00307608
O        7.59711791       9.48878016       0.67072803      -0.00938058       0.00169170      -0.00156212
C        6.99464857      11.95040101       1.31021332       0.00194016       0.00305080       0.00545293
C        8.87558508      10.60628808       2.78770200      -0.00407797      -0.01050162       0.00049135
H        6.17504498      11.84170566       0.60068872       0.00427540       0.00787297       0.00283076
H        7.86366524      12.35951654       0.79653606       0.00455308       0.00218784       0.00997704
H        6.68961988      12.59505880       2.13372097       0.00096466       0.00127432       0.00644775
H        8.58157800      11.12500816       3.70201067       0.00141534      -0.00846736      -0.00001664
H        9.58378302      11.17550599       2.19270987       0.00034566      -0.01707552      -0.00008149
H        9.32115975       9.64223794       3.02412208      -0.01151720      -0.01428550       0.00057334
S        3.30161972       2.48627354       2.96988384       0.01003361      -0.00082472       0.00107867
O        4.47371416       2.49117176       3.90432383       0.01512873      -0.00783096      -0.00610268
C        3.01298035       0.76614277       2.54839813      -0.00435977       0.00152278       0.00438164
C        3.93902589       2.94448335       1.35141166       0.00390473      -0.00638646      -0.00188518
H        2.56096981       0.24628382       3.38692331      -0.00605001       0.00591099       0.00559802
H        3.97804062       0.31333763       2.31688236      -0.00892793      -0.00637633       0.00225210
H        2.35529755       0.71381369       1.67865181      -0.00585912       0.00636850       0.00531565
H        3.14709969       2.82268780       0.60045063       0.00088953      -0.00869614       0.00212192
H        4.77810426       2.29223499       1.10731540       0.00147121      -0.00820656      -0.00371210
H        4.25919154       3.98166550       1.42335354       0.00504777      -0.00680870      -0.00669226
S        7.64215298       6.22330621       2.80540265       0.00011194       0.00093651      -0.00079268
O        7.33312367       7.50609886       3.51580390       0.00186217      -0.00469422       0.00268447
C        7.15195842       6.40230329       1.08234293      -0.00556669       0.00505346       0.00126088
C        6.33160942       5.07599949       3.25610438       0.00357825      -0.00350857      -0.00193018
H        7.78850294       7.17320778       0.65132703      -0.00843352       0.00757048       0.00197106
H        6.09427640       6.67047066       1.04191657      -0.00563264       0.00388755       0.00581177
H        7.33738128       5.44234691       0.59721557      -0.00580612       0.00794801      -0.00335799
H        6.47559038       4.14603672       2.71145953       0.00383796      -0.00121988      -0.00437139
H        5.36870903       5.54216626       3.03866497       0.00275019      -0.00468338       0.00129209
H        6.41981223       4.85110013       4.31568622       0.00652786      -0.00611122      -0.00299108
S        8.36884955       4.20379423       6.29724191      -0.01418269      -0.00028296       0.00434065
O        8.79270955       3.54516944       7.57887567      -0.01914519      -0.01165074       0.00002885
C        9.86588842       4.82864023       5.50534742      -0.01052576       0.00161767       0.01441520
C        7.62168990       5.77802737       6.71328363      -0.00870147      -0.00077766       0.01374090
H       10.48415807       3.96494547       5.27850926      -0.01343299       0.00305614       0.00430096
H       10.38901480       5.49288479       6.18977525      -0.00949618      -0.00871723       0.02305792
H        9.60847642       5.32427378       4.56971054      -0.00812905       0.01370707       0.02108926
H        7.48275260       6.37424669       5.80923623      -0.01254542       0.00134560       0.01601359
H        8.23843426       6.32535394       7.42915157      -0.00395578      -0.00356123       0.01102191
H        6.64661219       5.56218959       7.14613825      -0.00635044       0.00055910       0.01841744
S        2.35256945       5.74192178       2.14084640       0.00041115      -0.00450540      -0.00962406
O        3.54922243       6.57109551       2.54514306       0.00118697      -0.00311697      -0.01108962
C        1.97688056       6.20150389       0.44507412      -0.00340772      -0.00277108      -0.00791377
C        0.92093576       6.44269579       2.95833825       0.00149804      -0.00594771      -0.00856981
H        2.76493666       5.76589004      -0.16870949      -0.00086248       0.00537960      -0.00916861
H        1.93966740       7.28456961       0.36883375      -0.01296743      -0.00345472      -0.00585005
H        1.01087276       5.78132579       0.18018473       0.00046337      -0.01090505      -0.00775536
H        0.01789184       6.14295101       2.42744532       0.00142922      -0.01043828      -0.00467710
H        0.98636800       7.52714570       2.95739728      -0.00315790      -0.00564048      -0.01271033
H        0.91430980       6.05786068       3.97726871       0.00571232      -0.00183214      -0.00737374
S        5.72497574       9.00137970       8.99397107       0.00686693      -0.00147474      -0.00075364
O        5.66154883       8.24810465       7.70849204      -0.00574232      -0.01821458       0.01305759
C        5.68413623       7.78010369      10.30758885       0.02556439       0.01884437       0.01813310
C        4.07943704       9.69815065       9.26604038       0.00790459      -0.00211109       0.00694817
H        6.60713694       7.21504095      10.19977183       0.02619305       0.02038722       0.01745559
H        4.80848991       7.14356759      10.17344359       0.02672967       0.01384016       0.03796674
H        5.68751371       8.28152978      11.27462377       0.03502286       0.03278991       0.01019101
H        4.02887608      10.09910095      10.27696831       0.01644321       0.00975834       0.00185286
H        3.31428229       8.94666518       9.06773176       0.00927770      -0.00691888       0.02322892
H        3.95693579      10.51199664       8.55348629      -0.00176640      -0.01327512      -0.00284705
S        2.65431742       9.51220333       1.89231098      -0.00908495       0.00282621       0.01004875
O        2.23443870      10.43596648       2.99076311      -0.00117642       0.00245738       0.00415933
C        4.43875488       9.42643184       2.01632516      -0.00923890      -0.00042714      -0.00207852
C        2.64422363      10.47300151       0.36280651      -0.01548829      -0.00340486       0.00483131
H        4.71617345       8.68593221       2.76147889      -0.00521593       0.00221880      -0.00023960
H        4.78256142      10.41774445       2.30615445      -0.00707491       0.00068058      -0.00715450
H        4.87598800       9.12688247       1.06415810      -0.01393939      -0.00394369      -0.00295676
H        2.89703876       9.79822351      -0.45481414      -0.02251595      -0.00472505       0.00534743
H        3.34309671      11.30923512       0.40541997      -0.01449186      -0.00456609       0.00023437
H        1.62001546      10.80976366       0.23767466      -0.01566719      -0.00266038       0.01159105
