149
Lattice="13.116462130513545 0.0 0.0 0.0 13.116462130513545 0.0 0.0 0.0 13.116462130513545" Properties=species:S:1:pos:R:3:forces:R:3 energy=-264651.21875 stress="-0.0007153748301789165 -9.091145329875872e-05 -9.378764661960304e-05 -9.091145329875872e-05 -0.0016571488231420517 0.00038107967702671885 -9.378764661960304e-05 0.00038107967702671885 -0.0027557273861020803" pbc="T T T"
Zr      12.74703044      12.85394801      -0.71346032       0.00393029      -0.00610519      -0.00011076
P        5.19109653      12.12636268       4.96193722      -0.00261255       0.01313979      -0.00635591
F        6.21977783      11.61704492       6.09961554      -0.02131426      -0.01285207      -0.00287831
F        6.05217206      11.40456681       3.81492071       0.00731015       0.02240360      -0.00559497
F        4.30328832      10.77335087       5.14976859      -0.01580966       0.01873183      -0.03763878
F        4.29014376      12.85602075       6.09479030      -0.01101077       0.00328052      -0.00721121
F        6.05274191      13.48312484       4.78011435       0.01055688       0.00720835       0.02455880
F        4.12728532      12.65837536       3.83673555       0.01727772       0.03788090      -0.01149809
P        2.60692597      11.49116565       1.37303588       0.00282669       0.00037113       0.01015119
F        2.08763357      10.90185541       2.69007905       0.00558813       0.01246804       0.01602173
F        2.93578981      12.97792592       1.22854523       0.00742938      -0.00168866      -0.00266662
F        4.07189512      11.09792914       1.67072865       0.00291971      -0.00125699       0.01003611
F        1.00405329      11.91484546       1.06148439       0.00482589       0.00167969       0.01043364
F        0.28127891      14.40785816       0.20013928      -0.00055666      -0.00606456       0.00007817
F        2.52579461      10.57902157       0.14446067      -0.00162938      -0.00927106       0.01807788
P        6.04503115      11.38908237      11.63636217      -0.00258206       0.00853139       0.00011906
F        6.57683398      10.90803263      13.08054818       0.00151283       0.00930113      -0.00155234
F        7.18717769      10.47018704      10.90990253      -0.00123495       0.01327670      -0.00229228
F        5.02733812      10.13710392      11.59522577       0.00152445       0.00540364       0.00053180
F        7.06034194      12.64255084      11.67314699      -0.00730389       0.01188600      -0.00038100
F        5.51516672      11.86278520      10.18812571      -0.00648060       0.00849339       0.00169337
F        4.89897422      12.29820808      12.34976611      -0.00455338       0.00332105       0.00333518
P        9.93315683      10.34708738      11.00335642      -0.00040794       0.01805580      -0.00484794
F       11.43456934      12.09306968      13.57499185       0.01139440      -0.00712466       0.00667560
F       11.51394641      10.59508448      11.27524030      -0.00021711       0.02732396      -0.01172048
F        9.53055577      10.09966615      12.49457763       0.00898462       0.00088558      -0.00542793
F       11.71346469      13.72922134      11.04896297       0.00657982      -0.00476564      -0.00150761
F       14.00235817      11.76064000      11.46866348       0.01480216      -0.00249159       0.01010175
F        9.58201181      11.86584670      10.87145839      -0.01707114       0.01468232       0.00679563
C       10.91806065       9.50769015       7.00865468       0.00056815      -0.00494061       0.00180498
C       10.37773644      10.78591323       6.95160600      -0.00550221      -0.01385191       0.00034773
C       11.96319247       9.15739694       6.16001316       0.01052323       0.00191256       0.00285634
C       10.89188635      11.71159209       6.05154484      -0.01451037      -0.00455089       0.00680024
C       12.46248354      10.07673576       5.24892290       0.00315526       0.01163640       0.00982842
C       11.92991083      11.35736177       5.19797290      -0.00325184       0.00302686       0.00826138
H       10.53454175       8.78918753       7.72166738       0.00599681      -0.01219112      -0.00339808
H        9.55842308      11.06465619       7.60265145      -0.01322511      -0.02030412      -0.00152548
H       12.40579516       8.17413884       6.23299931       0.01524661       0.00751449       0.00311481
H       10.48925327      12.71296152       6.01804757      -0.02200645      -0.01100667       0.00418605
H       13.28426773       9.81247491       4.59515250       0.01048827       0.01835417       0.01222878
H       12.33546237      12.08407646       4.50866514      -0.00950217       0.00978862       0.01318112
C        3.45823366       7.58925619       5.14395350       0.00252048       0.00677028      -0.00595871
C        2.24874072       7.16379740       4.60520749      -0.00459018       0.00898865      -0.00107262
C        4.50268247       6.67973230       5.26961926      -0.00508554       0.00745706      -0.00326486
C        2.08564912       5.84579842       4.19319908      -0.00521341       0.00482060       0.00935074
C        4.34181368       5.36029148       4.86286887      -0.00521982       0.00301118       0.00678905
C        3.13208682       4.94186416       4.32367365      -0.01299679       0.00543736       0.01126000
H        3.59713423       8.61957202       5.44520089       0.00339449       0.00955325      -0.01375046
H        1.43465059       7.86853346       4.49447377      -0.00012985       0.00923130      -0.00308277
H        5.44894542       7.01080430       5.67937595      -0.00049093       0.00544943      -0.00720627
H        1.15043904       5.52816167       3.74731567      -0.01033592       0.00624338       0.01384026
H        5.15387271       4.65265314       4.96512707      -0.01024067       0.00313431       0.00836828
H        3.01729018       3.91758069       3.99142512      -0.01351243       0.00255939       0.01895567
C       10.25556726       0.83825337       3.76721067      -0.00549646      -0.00069085      -0.00461007
C       11.44186483       0.85741289       3.04509790      -0.00359343       0.00396164       0.00160065
C       10.00577668       1.82086682       4.71467429      -0.01123573      -0.00262443      -0.00196363
C       12.38535097       1.85394799       3.26762412      -0.00564088       0.00350907       0.00696440
C       10.95005871       2.81160246       4.94854660      -0.01356439      -0.00372510       0.00401552
C       12.14072293       2.82905234       4.22866980      -0.01139258       0.00145639       0.01030745
H        9.51710358       0.06865408       3.58650008      -0.00377502      -0.00046913      -0.00931279
H       11.61583279       0.09264044       2.30165250       0.00162496       0.00577076      -0.00002621
H        9.06789524       1.81762752       5.25578360      -0.01352938      -0.00560233      -0.00725214
H       13.29660760       1.87000846       2.68298591      -0.00387771       0.00705577       0.01194618
H       10.75784161       3.57552793       5.68769421      -0.01772052      -0.00549674       0.00632767
H       12.87569026       3.60268665       4.41776434      -0.01333028       0.00097422       0.01461042
C        6.21438225       1.95454949       2.34626558      -0.01603442      -0.04432872      -0.00892936
C        6.86075684       3.15851854       2.59569204      -0.00401367       0.01593085       0.01323687
C        6.86702840       0.94724743       1.64284381      -0.01272966       0.01980400       0.00743038
C        8.16356635       3.35709140       2.15224552      -0.01378740      -0.03484342      -0.01155035
C        8.16640587       1.14867819       1.19447244      -0.02331304      -0.03247517      -0.01757619
C        8.81597454       2.34862385       1.45683648      -0.01480946       0.02714398       0.00658771
H        5.21840023       1.77704526       2.72917122      -0.00627801      -0.01168229       0.00631228
H        6.35379318       3.94556613       3.13954081      -0.00648948      -0.02196971       0.00604248
H        6.37574241       0.00051980       1.46507577      -0.01696421      -0.01378515      -0.00685988
H        8.67629837       4.28822434       2.36288182      -0.01159015      -0.00391600       0.00301320
H        8.67368508       0.35642249       0.65773103      -0.02203800       0.00599027      -0.01031657
H        9.84233733       2.49157322       1.14600074      -0.02053228      -0.00525257      -0.01146284
C        2.86060074       0.99511190      10.83311871      -0.00106097       0.00170419       0.00127765
C        3.59542478       1.97613501      11.48779036      -0.01015928      -0.00696283      -0.00022462
C        1.62967702       1.31459902      10.26852162      -0.00668587       0.00480261      -0.01026106
C        3.09935753       3.27227146      11.57295567       0.00487175      -0.00158678       0.00409889
C        1.11947166       2.60331208      10.38154497       0.00842117       0.01026587      -0.00696211
C        1.85662173       3.58452211      11.03233103      -0.00040400       0.00167581      -0.00898944
H        3.25469464      -0.00905859      10.75303305      -0.01171663      -0.00206599      -0.00097351
H        4.55567279       1.72227676      11.91870860      -0.00827359      -0.00968177       0.00814092
H        1.07525310       0.55122762       9.73762443      -0.00252098       0.01012820      -0.00969793
H        3.67915495       4.04356284      12.06252453      -0.00038332      -0.00730208       0.00489174
H        0.14042714       2.82731155       9.97660465       0.00675504       0.01333391      -0.01634446
H        1.46474746       4.59028571      11.12506623       0.01068583       0.00586607      -0.00791031
C        5.71234105       6.03242996       1.04782566       0.00117137       0.00725804       0.00879866
C        5.77053580       7.40755168       0.86324321       0.00308466      -0.00497115       0.00293871
C        4.48368584       5.38396820       1.06394519       0.00675046      -0.00466692       0.00999479
C        4.60268928       8.13739415       0.69217223      -0.00283121       0.00197923      -0.00702706
C        3.31331941       6.11217570       0.88974225       0.00082023       0.00181007       0.00041931
C        3.37396886       7.48830405       0.70571207       0.00265661      -0.01023354      -0.00599734
H        6.61923824       5.45492696       1.16050449       0.00425108       0.00392433       0.01605506
H        6.72187719       7.92383520       0.83982716      -0.00073038       0.00285982       0.00261584
H        4.44581639       4.31074308       1.20531498       0.00582514       0.00227168       0.01511058
H        4.67279744       9.19873274       0.52420076      -0.00235465      -0.00546521      -0.01173247
H        2.35572018       5.60517858       0.89761355       0.00480676      -0.00591703       0.00134123
H        2.46119608       8.05255224       0.56381066       0.00006962      -0.00715116      -0.01372483
C        8.30636636       2.76361837      11.10287106       0.00105107       0.00473782      -0.00486406
C        9.32774831       3.52590082      11.65511765       0.00078614      -0.00151744      -0.00904506
C        7.07721930       3.35281362      10.82763080      -0.00148648      -0.00064804       0.00259486
C        9.12353010       4.87272665      11.93661378       0.00272515       0.00271915      -0.00555928
C        6.87159297       4.69830762      11.10898959      -0.00045031       0.00379770       0.00542727
C        7.89462275       5.46102999      11.66403724       0.00252315      -0.00321731      -0.00517870
H        8.45334596       1.70980833      10.90276373       0.00068897       0.00282046      -0.01067847
H       10.28211143       3.06230744      11.87496266       0.00235513       0.00373128      -0.01396339
H        6.28601027       2.76058809      10.38739168      -0.00074962       0.00288489       0.00613533
H        9.91986480       5.46274777      12.37425437       0.00302777      -0.00064114      -0.00821252
H        5.91293445       5.15571448      10.89788244      -0.00408232      -0.00315025       0.00988887
H        7.72616227       6.50732538      11.88588605       0.00747319      -0.00052781      -0.00804314
C       10.62378553       4.78073659       8.70231975       0.02034166       0.00480767      -0.00278293
C       11.74067027       4.92668056       7.89014192       0.01718806       0.00950187      -0.00743521
C        9.42446415       5.39512479       8.35988099       0.01619284      -0.00370834      -0.00202827
C       11.65588003       5.67501702       6.72253870       0.00903295       0.00488246      -0.00828546
C        9.33910490       6.13703785       7.18791338       0.00814977      -0.00798137      -0.00228079
C       10.45080395       6.26876699       6.36475849       0.00490321      -0.00250217      -0.00668725
H       10.67377137       4.18262459       9.60088365       0.02770237       0.00942979      -0.00096166
H       12.67203553       4.44392229       8.15846061       0.02075268       0.01658452      -0.00838093
H        8.55949053       5.27750254       8.99940675       0.01857276      -0.00770117       0.00134690
H       12.52635200       5.77931229       6.08613380       0.00623049       0.00881911      -0.01132985
H        8.40686763       6.61650480       6.91444627       0.00453874      -0.01445954      -0.00131304
H       10.38245123       6.85131571       5.45594834      -0.00082606      -0.00539306      -0.00706980
C        0.79895359      11.14513853       8.14896952      -0.00089008      -0.03063364       0.01965511
C        0.74814859       9.99981952       8.93448965       0.00459042       0.00920831      -0.00106095
C        2.02635722      11.70096385       7.80999328       0.00880990      -0.00321269      -0.01135975
C        1.92281586       9.42380254       9.39883052       0.00140272      -0.02416478       0.01848556
C        3.20145600      11.12632264       8.27839905       0.00310820      -0.03873487       0.00834836
C        3.14966752       9.99202448       9.07941674       0.00997868       0.00377738      -0.01159039
H       -0.11888727      11.59101680       7.78917575       0.00402482      -0.00874209       0.00865261
H       -0.21004408       9.56439602       9.18398627       0.00278310      -0.00702027       0.01750342
H        2.07974677      12.57110512       7.16790804       0.00385970      -0.02613108       0.00017869
H        1.88261343       8.53974948      10.02443313       0.00536991      -0.00150055       0.00870807
H        4.15312369      11.55686967       8.00937084       0.00741625      -0.02218144      -0.01431028
H        4.06512630       9.57044367       9.46737882       0.00397292      -0.01858602       0.00309686
C        7.26634946       1.62102974       7.65051724       0.00786264      -0.00263356      -0.00777684
C        6.08015774       1.02275925       8.04624307       0.00445852      -0.00143453      -0.00511152
C        7.29155947       2.96930359       7.31689525       0.00825308      -0.00343388      -0.00446711
C        4.91096748       1.77248713       8.09352616       0.00960097       0.00282209      -0.00127733
C        6.12792810       3.72428312       7.39204555       0.01306137      -0.00007293      -0.00173668
C        4.93264188       3.12296690       7.77251137       0.01020917       0.00166869       0.00120996
H        8.17098669       1.02905029       7.59267245       0.00333558      -0.00665215      -0.01238452
H        6.06044451      -0.02569973       8.29875958       0.00332901      -0.00087810      -0.00851540
H        8.21681820       3.43542826       7.00604732       0.01001033      -0.00472528      -0.00642572
H        3.98129434       1.29515896       8.36759893       0.00795503       0.00439785       0.00132740
H        6.14811483       4.78081609       7.15281710       0.01364775      -0.00043534      -0.00026390
H        4.01915998       3.70408812       7.81210415       0.01351298       0.00467235       0.00460719
