146
Lattice="16.063579897181697 0.0 0.0 0.0 16.063579897181697 0.0 0.0 0.0 16.063579897181697" Properties=species:S:1:pos:R:3:forces:R:3 energy=-1115179.625 stress="7.55031724111177e-05 -0.0002382482707616873 -0.00021660573838744313 -0.0002382482707616873 -0.00039877620292827487 0.0002036744190263562 -0.00021660573838744313 0.0002036744190263562 -0.0002866774157155305" pbc="T T T"
Zr      14.71725278      15.84941342      -0.51493590      -0.01070298      -0.00146414       0.00470196
B        8.59634987      15.57766490       7.29743029      -0.00313465       0.00120609      -0.00720727
F        8.86140743      14.46015057       6.47017587      -0.00193033      -0.00398278       0.00047565
F        7.53357589      16.31989025       6.73942751      -0.01276553      -0.01244903      -0.00548059
F        8.28002057      15.17244919       8.57390287       0.01343656       0.01096910       0.00083351
F        9.75911849      16.38691592       7.29727655      -0.00841784       0.01058042      -0.02081947
B        5.20309115      12.94649336      12.10947498       0.00232528       0.00123872      -0.00799366
F        4.33307986      11.99562148      12.67291071      -0.00010633      -0.00277674      -0.01782250
F        4.94561770      13.02124836      10.72398031       0.00945538       0.00949234      -0.00973439
F        5.00387371      14.19327514      12.70130932       0.00023976      -0.00255990      -0.00176287
F        6.53253049      12.53918109      12.31374906       0.00015521       0.00009143      -0.00568154
B       -0.61509959      15.25032014       4.76962743      -0.00628725       0.01115113      -0.00184684
F       -0.77100096      16.28651578       5.65576840      -0.00245324       0.00510025       0.00521278
F       -1.39215808      15.46593345       3.60873359      -0.02015036       0.01316464       0.00815284
F        0.73805528      15.10450735       4.39867933      -0.01045775       0.02059299      -0.01767094
F       -1.04882856      14.03037517       5.35370318       0.00671932       0.00517976      -0.00427485
B       13.47341452      14.27070649      10.61691919       0.00433268      -0.03231698      -0.00317817
F       11.29699026      14.64129433      11.86774795       0.00830409      -0.00621781      -0.00691932
F       13.17509830      13.00749639      10.39361836       0.01073558       0.01489264       0.00747439
F       13.18933329      15.18990134       9.73130414       0.00813194      -0.01365718      -0.00633027
F       14.11316290      14.59251326      11.72268243       0.00864618      -0.00610393      -0.01230031
Cl       9.06400896       9.74776076       3.90089402       0.00800803       0.00328168      -0.00858513
Cl       7.63217364       9.24458345       6.39509110      -0.01655161      -0.01280397      -0.01796484
Cl       8.10079589      11.98084635       5.52494611      -0.00733650      -0.00509053      -0.00983593
C        7.79526159      10.33835894       5.01298708      -0.00187493      -0.00407729      -0.01745863
H        6.86557989      10.30167176       4.45858669       0.00353557       0.00126967      -0.02972727
Cl       7.63998694       5.21280033       3.07223240       0.00074071       0.00010569       0.00481148
Cl       4.72368152       5.25910049       2.96617449       0.00139160       0.00154386      -0.00182880
Cl       6.06435349       4.34676304       5.37596862      -0.00451414      -0.00017843       0.00042295
C        6.16419282       5.44146728       4.01559711      -0.00136264       0.00032407       0.00132801
H        6.15992643       6.46099715       4.38340747      -0.00099603       0.00004059       0.00188643
Cl       2.22735220      14.91396265      10.98934864      -0.00165528       0.01493841      -0.00221276
Cl       1.62782136      15.14292148       8.14948488       0.01539207      -0.03436178      -0.01371932
Cl       4.30176698      15.80493729       9.11878473      -0.00475895       0.00485265      -0.00733727
C        2.87552760      14.77642486       9.36007088       0.00731055      -0.00749852       0.00328574
H        3.21387138      13.75929557       9.22648827       0.02572259      -0.00558126       0.03239570
Cl      11.85071883       9.66917821       6.81096851      -0.00656749       0.00744727       0.00015929
Cl      13.73466576      11.83981798       7.29399657      -0.00508416       0.00686324      -0.00398976
Cl      10.92800359      12.17365487       7.99304833      -0.00559115       0.01084316      -0.00645828
C       12.26233102      11.03946657       7.87382740      -0.00635476       0.00913446      -0.00265986
H       12.46510264      10.63311940       8.85736309      -0.00756807       0.01177995      -0.00203755
Cl      13.10098013      10.09432881      11.75323680      -0.00417596      -0.00041002       0.00239904
Cl      13.43434061       9.11739089      14.47132392       0.01201054      -0.01885200      -0.00373852
Cl      11.95469773       7.51246621      12.53692978      -0.00238782      -0.00305495       0.00009817
C       13.28231955       8.65641545      12.77489982       0.00091251      -0.00601349      -0.00582712
H       14.19878588       8.15828102      12.48083329      -0.00130773      -0.00071755      -0.01843499
Cl       8.71097220       6.11899694       7.08317517      -0.00018481      -0.00152552      -0.00012532
Cl       7.02548409       4.42186956       8.77408191       0.00028312      -0.00046452       0.00113355
Cl       9.15162499       3.22653588       7.18901535      -0.00032610      -0.00141835       0.00235695
C        8.64981154       4.64317164       8.07067173       0.00007966      -0.00055966       0.00082086
H        9.32612188       4.79570130       8.90347946       0.00028265       0.00004356       0.00078619
Cl       3.39907419      10.61774644      10.01833414      -0.00049734      -0.00433308       0.01093960
Cl       3.98799981       8.40992182       8.20303190       0.00168854       0.01139235      -0.00663971
Cl       1.22582968       8.93224426       9.01790532       0.00095338       0.00564656      -0.00709896
C        2.81201561       9.66690441       8.68676568       0.00168492       0.00753170       0.00158325
H        2.68699523      10.31011667       7.82554892       0.00364359       0.01515427       0.00714889
Cl       7.38726651      -0.96192917       3.40901480       0.01329784       0.00167525      -0.01294586
Cl       8.74101206       1.60607543       3.62157245       0.00817657       0.00180325       0.00839461
Cl       5.90224491       1.51909217       2.95550064       0.01329857       0.00234421      -0.01144704
C        7.22571486       0.72990826       3.87377715       0.00716773      -0.00050932      -0.00689418
H        6.99489832       0.76722287       4.93250219       0.00126198      -0.00597396      -0.00803870
Cl      10.39872929      15.43119536      14.11178002       0.01237196       0.00001019      -0.00412628
Cl      15.66576664      13.95150744      14.60475298      -0.00550655       0.00535953      -0.00199739
Cl       9.61886034      12.95428443      12.77376943      -0.03072912       0.03056282      -0.01975854
C       10.89397846      14.09903925      13.05392805      -0.00837594      -0.00129988      -0.01076266
H       11.74954071      13.60540930      13.51128403      -0.01669306      -0.01816276      -0.00924444
Cl      13.08292830       9.80833198       2.50469309      -0.00869003       0.01665501       0.00168603
Cl      15.10685927      10.96399956       0.74657509       0.00234756      -0.00729477      -0.00084269
Cl      15.01646899      11.73297233       3.55925042       0.00247923       0.00732386      -0.00483981
C       14.74102541      10.43384262       2.40291300      -0.00431600       0.00377699       0.00070752
H       15.41035881       9.61416594       2.63297570      -0.01154061      -0.00035012       0.00580224
Cl      11.78559851       2.82367899       2.33287709       0.00349951      -0.03351457       0.00887764
Cl      14.36283858       4.07062205       1.82228921       0.00443588      -0.01296830       0.00238717
Cl      13.72218463       3.11146209       4.50521005      -0.00530322       0.02046657       0.01014388
C       13.49250391       2.83605925       2.79122858       0.00418495      -0.00498334       0.00868312
H       13.92089012       1.87106681       2.54152018       0.02199762      -0.00378057       0.03976528
Cl       5.90369680       8.70619169       1.94953714      -0.00084323       0.00188445       0.01061232
Cl       4.30532090       8.76757084       4.37736700      -0.00424816      -0.00191148       0.00805388
Cl       3.30569404      10.03216249       1.94425193       0.00214367       0.00754896       0.01066928
C        4.26585952       8.70530847       2.59909355      -0.00202587       0.00387070       0.00873074
H        3.78998250       7.77243525       2.32162393      -0.00333604       0.00569203       0.00559720
Cl       9.17325598       2.83698191      13.47182203      -0.00727601      -0.00102915       0.00243050
Cl      10.27535756       4.57295261      11.40271311       0.00165462      -0.01081067      -0.00054026
Cl       9.22768811       1.94190248      10.68902082      -0.00629015      -0.00916237       0.00513625
C        9.06164929       3.30617120      11.76916079      -0.00272533      -0.00538182       0.00096694
H        8.08907690       3.75743810      11.61364173      -0.00122601      -0.00263701      -0.00181685
Cl       5.31412200      12.34569637      -0.39175460       0.00266504      -0.00460851      -0.00332397
Cl       7.43086361      12.07462365       1.61750651       0.00790808      -0.00038463      -0.00863022
Cl       7.40857559      14.34113964      -0.23319928       0.00414783      -0.00504994      -0.01386249
C        6.41480673      13.20457183       0.66533866       0.00574657      -0.00192921      -0.00840750
H        5.84356866      13.76656034       1.39285144       0.00764868      -0.00017694      -0.00836644
Cl       9.73064570       8.94141600       9.62734253      -0.01538524      -0.00364204      -0.00618047
Cl       7.72542567      10.23719363      11.32525339      -0.00912637      -0.00549066      -0.00140415
Cl       7.39783198       7.44837071      10.53966277       0.00456250      -0.01138014       0.01710686
C        8.54777675       8.75136338      10.94419124      -0.00240687      -0.00284618       0.00476305
H        9.10224225       8.41767270      11.81176309       0.00797656       0.00779761       0.00293535
Cl       3.01032146       3.17481799      16.67296987      -0.00048196       0.00372133      -0.01052679
Cl       0.91331108       4.05275200      14.89675287      -0.01596639       0.00465371       0.00898534
Cl      -1.84946092       1.35448641      13.91596907      -0.02417629      -0.00040155       0.00916650
C        1.45168029       3.63674791      16.40155312      -0.00347176       0.00196135       0.00345554
H        0.76139483       3.69314013      17.23307166       0.00291085      -0.00227137       0.00846022
Cl       4.30508827      14.35956766       5.44079711       0.01022651       0.00764012      -0.01726586
Cl       4.78833080      12.08609730       7.19187178      -0.01354405       0.03403807       0.01902235
Cl       2.47121225      12.09935835       5.40962240       0.00683308       0.00973272      -0.00794494
C        4.16699838      12.61598499       5.63775264       0.00409941       0.01158758       0.00518058
H        4.75006538      12.14188105       4.85714216       0.01265419       0.00028215       0.01972315
Cl       4.23052811       6.47229076      -0.57147168       0.00510851       0.00150695      -0.00160520
Cl       6.01067967       4.18459058      -0.96332524       0.00424092      -0.00000688       0.00450875
Cl       6.90222823       6.86522537      -1.65243335       0.00590385      -0.00199139      -0.00002736
C        5.91958294       5.89828618      -0.56029067       0.00465455       0.00092861       0.00120534
H        6.28721119       6.02956712       0.45090526       0.00402806       0.00245021       0.00114235
Cl       3.41939004       7.56044548      11.79314649      -0.00767648      -0.00062966       0.00509799
Cl       1.35866114       7.79216966      13.84600940       0.00697322      -0.01810566       0.02003308
Cl       0.91558580       6.06628922      11.54468976      -0.00947988       0.00311044       0.00847527
C        2.13700079       6.72885304      12.64248178      -0.00210524      -0.00791607       0.00602163
H        2.57542957       5.89849917      13.18312664       0.00069766      -0.01309687      -0.00467964
Cl      11.38549707      12.83839190       4.06393106      -0.00561586       0.03331217      -0.00525501
Cl      12.84661440      15.33324461       0.73387127       0.00096343      -0.01652779       0.01628193
Cl      11.31457213      15.44820802       5.21796746       0.02027465       0.01202992       0.03143204
C       12.13002220      14.11939654       4.78998125       0.01015741       0.01323573       0.01185038
H       13.19527109      14.02774874       5.02811127       0.00850952      -0.00085494       0.00888449
Cl       0.22414532      16.81550938       0.92508390      -0.00552091      -0.00046235      -0.00207658
Cl       1.89730160      13.15404859       1.08241853       0.01149499       0.00373423      -0.01132989
Cl       3.55179868      15.38621385       1.81492774      -0.00014877       0.00614363       0.00547588
C        2.22606565      14.43471936       2.06265864       0.00075290       0.00246448      -0.00639129
H        1.58449270      14.64387350       2.92494573      -0.00644833       0.00123157      -0.01223227
Cl      12.23400465       5.85014683       7.74056099      -0.00498235       0.00707431       0.00803220
Cl      14.06264608       7.54387784       9.25253640      -0.00993400      -0.00164786      -0.00130093
Cl      14.39158680       4.64284684       9.29846018       0.00153932       0.00276020       0.00376093
C       13.88210381       6.03886903       8.33317048      -0.00100497      -0.00167143      -0.00179938
H       14.54263176       6.10184086       7.47737850       0.00291905       0.00279113      -0.00017661
Cl       4.66549236       1.40930924      12.70966874      -0.00186867       0.00051403       0.00713402
Cl       2.14760577       2.49471854      11.69909351      -0.00209326       0.00361708       0.01145892
Cl       4.59271720       4.06073122      11.46604557       0.00143909      -0.00474101      -0.00394361
C        3.90839298       2.40951215      11.49315064      -0.00285074      -0.00236113       0.00548583
H        4.09105653       1.96182733      10.52502053      -0.00668630      -0.00679645       0.00704777
Cl      -0.82987311       8.36270647       5.34053510      -0.00491756       0.00044750      -0.00367627
Cl       1.48497708       6.70532316       5.94125865      -0.01268088      -0.00695115       0.00563399
Cl       0.80362726       7.28373444       3.16831052       0.00685673       0.00673433       0.00368856
C        0.79710464       7.89496699       4.84629894      -0.00280040      -0.00076104       0.00602527
H        1.42585002       8.77859381       4.86039969      -0.00099063      -0.00227129       0.01413213
Cl       3.32203713       1.92377063       6.26050962       0.00127745      -0.00705999       0.00919400
Cl       1.51344762       2.65640506       4.08536993       0.00554024      -0.02216250      -0.00078222
Cl       0.83397164       3.31570763       6.84784682       0.00588834      -0.02636279       0.00149018
C        2.14873881       3.10096488       5.68607576       0.00252572      -0.01064363      -0.00140442
H        2.65034710       4.05373712       5.56734641       0.00342605      -0.01088518      -0.00879302
