149
Lattice="11.374301108198086 0.0 0.0 0.0 11.374301108198086 0.0 0.0 0.0 11.374301108198086" Properties=species:S:1:pos:R:3:forces:R:3 energy=-265343.375 stress="0.0008219945593737066 0.0002730692795012146 -0.0011553572257980704 0.0002730692795012146 0.0033685609232634306 0.0011388182756491005 -0.0011553572257980704 0.0011388182756491005 -0.0004491753352340311" pbc="T T T"
Zr      12.00964197      10.22035363       1.02147038       0.00907132      -0.00229892       0.00240922
Cl       1.28424752       9.80534275       9.07725137      -0.00367582      -0.00286913       0.00817697
O        2.65479593      10.19312614       8.69884555      -0.01858032       0.02056599      -0.01675293
O        0.92138671       8.58298976       8.35179972       0.00707933      -0.01212513       0.01267076
O        1.40044032       9.36355441      10.55931588       0.03058012       0.00129348       0.00446856
Cl       5.61380219      10.37778648       9.23755642      -0.01090765       0.00866377       0.00107217
O        5.46034638       8.91477125       9.14166636      -0.01179066       0.00933492      -0.00983965
O        5.75410047      10.70961898      10.70265890      -0.01690987      -0.00004944       0.00265837
O        6.94009950      10.72483662       8.61227269      -0.00673079       0.01083124       0.00921267
Cl       3.43633271       9.61147115       1.87637491       0.00175428       0.00324884      -0.00173759
O        2.67218509      10.92943252       1.49688826       0.00963511       0.00641513       0.00681752
O        2.38130558       8.61200599       1.48974934      -0.00690168       0.01201254       0.01233777
O        3.60956415       9.61907171       3.31115814       0.01435781       0.00454874       0.00071955
Cl       8.88442816       8.64639334       5.54618690      -0.00469005      -0.00888252       0.00810480
O        8.16161376       7.80437660       6.52454206       0.00583309      -0.00314182       0.02100563
O       10.35931930       8.42736926       5.79075720      -0.00120282       0.00012261       0.00084347
O        8.61051398      10.08106125       5.89086900      -0.01035637      -0.00890672      -0.00505203
O        6.48749020       8.46856099       0.90423822      -0.00677578      -0.00467315      -0.00311934
H        6.21811252       9.20074769       0.31661646      -0.01094865      -0.00418518      -0.00276015
H        6.50029047       8.83071830       1.82376796      -0.00160566      -0.00473961      -0.00374397
O        3.53518033       5.04809979       8.12516115      -0.01107049       0.00594108      -0.00221321
H        3.54065707       5.43105730       7.22491960      -0.00761882       0.01064438      -0.00215843
H        3.65270747       5.81297788       8.73631685      -0.00442107       0.00017865       0.00172292
O        9.21240751       9.90297999       9.77834142       0.00020270      -0.00079016      -0.00539748
H        9.05249700       8.96838225      10.05993534      -0.00178890       0.00050962      -0.00026488
H        8.35160178      10.19603463       9.39145169      -0.00073957       0.00107905      -0.00093296
O       10.11701676       6.54321734       8.07508103       0.01704560       0.00083655       0.00788697
H        9.40199179       6.98892942       7.57548844       0.01290746       0.00339261       0.00878356
H       10.76054391       7.24607338       8.25205073       0.01294819      -0.00436500       0.01043365
O       10.63975482       4.35866268       1.09785250      -0.01993954       0.00123830      -0.00715034
H       11.56021065       4.62935122       1.00785431      -0.02138193      -0.00090417      -0.01162910
H       10.19531561       4.67805105       0.28493107      -0.02353810       0.00195862      -0.00763999
O        9.99996249       1.75946788      10.02144111       0.01560262      -0.00634166      -0.01069667
H        9.11241646       1.69257393      10.42886540       0.01491158      -0.00450408      -0.01047860
H        9.92113422       1.42397673       9.11134763       0.01615667      -0.01308823      -0.00768835
O        9.16713847       5.27141316      10.33004950      -0.01498572       0.01212433      -0.00167459
H        9.51505987       5.57345745       9.46611601      -0.00139505       0.00426810      -0.00007478
H        8.34683289       4.75515821      10.16768568      -0.01204349       0.00786352      -0.00465029
O        9.70533160       0.70664407       4.38152440       0.00484446      -0.00384945       0.00246124
H       10.55146490       0.40277986       4.02857652      -0.00136951       0.00354967       0.00818815
H        9.29753527      -0.06589548       4.81449088       0.00039443      -0.01103145      -0.00104559
O        9.70139957       1.98377745       1.69221940       0.00978908      -0.00221376      -0.00937520
H        9.04980328       2.03256457       2.40664534      -0.00642167      -0.00554263      -0.00503537
H       10.03737218       2.89884436       1.47503479      -0.00581234      -0.00452504      -0.00866123
O        1.15152710       6.33658639      11.18657233       0.00117452      -0.00753175      -0.00433522
H        0.93686960       5.71190527      10.46673021       0.00235383      -0.00617905      -0.00506987
H        1.98528493       6.74614842      10.87362918       0.00416672      -0.00895897      -0.00106081
O        3.68213781       6.19883321       5.63781301      -0.00851019       0.01321827       0.00399175
H        3.53725024       7.15183601       5.85845377      -0.00599290       0.01159437      -0.00136160
H        2.99387637       5.92867559       4.99061558      -0.00671539       0.00896252       0.00350949
O        1.77029049       1.40236573       7.36793604      -0.00136036       0.00521412      -0.00839865
H        0.91895624       0.94801568       7.27169898       0.00146512       0.00507699      -0.02489133
H        2.17799192       0.99204483       8.13956474      -0.00895800      -0.00818717      -0.01374832
O        3.65980243       1.35474071       5.39761749       0.00461773       0.00662874       0.00536651
H        2.98004086       1.26687080       6.10929131       0.00709792       0.00695734      -0.00149354
H        4.17364369       2.17758282       5.59809331       0.00678962       0.00829950       0.00672667
O        9.90563380      10.73297630       0.69213681       0.01119769      -0.00117093      -0.00750730
H        9.52972249      10.47415393      -0.23394247       0.00969501       0.00225755      -0.00685199
H        9.62403514      11.65129764       0.88275294       0.01487534       0.00034684      -0.00625496
O        5.04922959       2.77422605       8.69715246      -0.00020806       0.02804691       0.00335882
H        4.56519247       3.51666115       8.28806032      -0.00540476       0.02849712       0.00780232
H        5.68674939       2.45813015       8.02185658      -0.01267627       0.02250264      -0.00563109
O        0.28581498       9.49597140       3.01779531      -0.01305528      -0.00114033       0.00056623
H        0.69807354       9.82151576       3.89512152      -0.00999790      -0.00148300      -0.00103593
H        0.17411200       8.50925394       3.10297543      -0.00312703      -0.00217807      -0.00273008
O        0.69853235       0.53959775      10.98095605       0.01366645      -0.00279404       0.00263959
H        1.49176171       1.13269315      10.80256365       0.01653795      -0.00924397      -0.00604645
H       -0.12879837       1.03097908      10.66538706       0.01604699      -0.00450575      -0.00283096
O        7.48185716       1.47134667      11.22951120       0.01038751      -0.01439048      -0.00463492
H        7.43571287       1.30916553      12.19835484       0.00959628      -0.01074650      -0.00383778
H        6.85126298       0.82176985      10.86879275       0.00762003      -0.01262563      -0.00222782
O       11.24268111       6.93879204       3.62508518      -0.00291294      -0.00309980      -0.00357863
H       10.39417852       6.65201892       3.20743825      -0.00570558       0.00135812      -0.00271746
H       10.97146774       7.26646456       4.50590071      -0.00055607      -0.00424020      -0.00210955
O        1.98256320       5.15180192       3.73445259      -0.00721034      -0.00040716       0.00958860
H        1.29651228       5.79576137       3.46875355      -0.00608355      -0.00396843       0.00610001
H        2.70281915       5.14065387       3.06629947      -0.00398292      -0.00284414       0.01085576
O        4.32621914       4.75020258       2.41302132      -0.00078156       0.00747675       0.01310013
H        4.64487385       5.10465660       1.55186792      -0.00007790      -0.01035732       0.01928671
H        4.45857998       3.78800880       2.39935938       0.00102543      -0.01078369       0.02312598
O       10.34776721      11.53396602       7.74438419       0.00012991      -0.01003763      -0.00353663
H        9.83843328      11.25536365       6.96798807      -0.01090152       0.00515693      -0.00820830
H       10.16174894      10.82325187       8.38189404      -0.00556916      -0.01099007      -0.01410648
O        4.46406916      13.10963998       2.65494263       0.00699031       0.02061048      -0.00216806
H        4.08784540      12.89172443       3.52521764       0.00862536       0.02002710       0.01201504
H        3.88336728      12.66187442       2.02446611       0.01897027       0.03207726       0.01230776
O        1.51766885       2.33589198       3.82300517       0.00369343       0.00272909      -0.00152032
H        2.23806180       2.05606661       4.41461791       0.00939993      -0.00167048       0.00654379
H        1.60707428       3.30047313       3.71620934      -0.00034341      -0.00517973       0.00743239
O        7.11680323       1.72587438       7.12757152      -0.03302768      -0.00578436      -0.00917972
H        7.38005701       0.97120422       7.67055867      -0.03993116       0.00164719      -0.00041735
H        7.93357449       2.18301047       6.85534374      -0.02932490      -0.00683840      -0.00557185
O        8.74489283       6.29362900       2.73425541      -0.00289160       0.00397097      -0.00005417
H        8.06641690       6.85337193       3.12998556       0.00157544       0.00369705       0.00142539
H        8.50336714       5.40073825       3.03710394      -0.00435550       0.00289366      -0.00589405
O        1.22165818       4.32344463       9.22259664      -0.00392866      -0.01100834       0.00315808
H        0.60923266       4.04267967       8.53052473      -0.00342641      -0.01433647       0.00800913
H        2.01819374       4.61816690       8.71086603      -0.00648001      -0.00515005      -0.00089401
O        5.42948926      10.57249271       5.61341037       0.01678653       0.00371444      -0.01288693
H        4.88232894      11.38614451       5.56419119       0.00694538       0.00855341      -0.01141684
H        6.18566705      10.77522051       6.18145388       0.00661102       0.00285958      -0.02657124
O        1.15074112      10.13467481       5.32103790      -0.01014894       0.00742659      -0.00468150
H        0.46601377       9.65731322       5.81959145      -0.00243134       0.00719161      -0.00298170
H        1.99612533       9.69962245       5.56215979      -0.00262674       0.01221487      -0.00560872
O        3.43756302       8.80772057       6.27269349      -0.00214982       0.01434509      -0.00469023
H        3.26016007       8.98853950       7.20861849       0.00288126       0.01771251      -0.00992101
H        4.22985792       9.35337939       6.06398407       0.00362333       0.01079461      -0.01139645
O       11.35422166       4.69701762       6.46832494      -0.00968806      -0.02182843       0.01645221
H       11.85128482       5.01553436       5.70851829       0.01235387      -0.03333680       0.03033884
H       10.94724077       5.47524162       6.90521304       0.00290568      -0.01323199       0.01460943
O        0.34719173       0.60574564       2.33733970       0.00348912      -0.00112462       0.00108284
H       -0.44406828       1.20180236       2.11935469       0.00563691      -0.00092970      -0.00010832
H        0.98113582       1.21624351       2.81806269       0.00472257      -0.00135070       0.00147136
O        5.92968129       6.43712684       4.03542533      -0.00409451      -0.00260366       0.00206397
H        5.53337734       5.84024106       3.36930178      -0.00732480      -0.00377179       0.00783969
H        5.21974365       6.47346227       4.70767184      -0.00495911       0.00421827       0.00519055
O        5.40849584       5.96680807       0.26508513       0.00705564      -0.01814727       0.00976343
H        5.90307622       6.77198748       0.51273301       0.00554311      -0.01517701       0.00892596
H        6.01113658       5.31906876      -0.17199074       0.00924431      -0.01779557       0.01371897
O        7.11800341       1.00681402       2.50253726       0.00973722       0.00667453      -0.00064158
H        7.30044572       0.17594227       2.95140883       0.00698685       0.00873371       0.00691523
H        6.16553945       1.19826809       2.63190978       0.01245353       0.01637942       0.00637291
O        6.56498094       9.06517456       3.49851180       0.00688712      -0.01133510      -0.00819269
H        6.10163422       9.66101319       4.11714070       0.00561618      -0.00521445      -0.01343208
H        6.25424616       8.16795135       3.74155219       0.00186416      -0.00780861      -0.00541412
O        5.12554415       3.55330760       5.62433406       0.01362266       0.02642530      -0.00833598
H        4.74941817       4.43824103       5.54609541      -0.00035220      -0.00185661       0.00161923
H        5.96604253       3.57627760       5.12488161      -0.02134795       0.00858787       0.01030669
O        6.77224382       3.99219379      10.38950594       0.00881032      -0.00741041       0.00990246
H        6.14701605       3.65740307       9.69748686       0.00742607      -0.00109613       0.00669125
H        7.01425622       3.15879532      10.84767802       0.01582575      -0.01079943      -0.00000309
O       -0.29784322       8.26926419       0.80987586       0.00544030       0.00171083      -0.01131765
H       -1.25701403       8.08409908       0.53783118       0.00233079       0.00301409      -0.00130624
H        0.24828389       7.53031900       0.39175660       0.00324918      -0.00087963      -0.00897732
O        8.80575207       7.72842957      11.19065386      -0.00125542       0.00697605       0.00484212
H        7.97280677       7.92844874      11.68049945      -0.00372201       0.00802961       0.00008170
H        8.82612253       6.76516640      10.94941128      -0.00436752       0.00696091       0.00232563
O        3.56588496       7.00203127       9.99191747       0.01367014      -0.01027220       0.00845415
H        3.93646568       7.85029666       9.70140855       0.01707063      -0.01083247       0.00957392
H        4.25125091       6.63324803      10.59899372       0.01212016      -0.01526488       0.00718118
O        2.57015248       2.25302794      -0.92456239       0.01455688      -0.00950453      -0.01257662
H        2.07823180       2.98367447      -1.36585558       0.01088350      -0.00976558      -0.00539339
H        3.41401468       2.18108687      -1.39464116       0.01474801      -0.00152180      -0.01812149
O        9.34999192       2.93396313       5.89165693      -0.02006707      -0.00606874       0.00800137
H       10.13418136       3.48591481       6.09473565      -0.02101348      -0.00953199       0.01184973
H        9.64948943       2.16767827       5.35827328      -0.01855362      -0.00601348       0.00679315
O        7.56935899       4.17673272       4.32371021      -0.00577321       0.00054534      -0.00585197
H        8.25025446       3.80281471       4.93606929      -0.00942749      -0.00199912      -0.00291737
H        7.30530906       5.04414804       4.66269395      -0.00550719       0.00039571      -0.00682922
