149
Lattice="11.360704469633692 0.0 0.0 0.0 11.360704469633692 0.0 0.0 0.0 11.360704469633692" Properties=species:S:1:pos:R:3:forces:R:3 energy=-433497.0 stress="2.4762974135228433e-05 -0.0001697229454293847 -0.00014204582839738578 -0.0001697229454293847 0.001852573361247778 0.00016911383136175573 -0.00014204582839738578 0.00016911383136175573 0.0030811044853180647" pbc="T T T"
Zr      12.37080711      10.26232427      -1.44645822       0.00006539       0.00607298       0.00629848
O        1.72989859       7.01956015       7.36226766      -0.01810095      -0.00275898       0.00923195
O        1.57425955      10.10547755       7.94028050       0.00291640       0.00095958       0.00668016
O        0.20737556       8.49049548       9.19866032      -0.00650072       0.00834870       0.00761688
O       -0.72959379       8.33018351       6.58791013      -0.00466841       0.01633120       0.00468254
Mo       0.79967445       8.47387056       7.45426886      -0.00294578       0.00262418       0.00823855
O        7.24404858       8.09424021       6.01504891       0.00146696      -0.00725067       0.00533298
O        7.40137928      10.50970289       4.46862563       0.00899076      -0.00351331       0.00589889
O        6.58201823      10.57630949       7.32892863       0.00568789      -0.00276971       0.00277179
O        4.85610279       9.43572266       5.23764859       0.00774670      -0.00101411       0.00054818
Mo       6.49828801       9.66078735       5.76811953       0.00687200      -0.00495085       0.00428332
O        9.44490710       3.56813276       7.37244000       0.00648627       0.00161445      -0.01589104
H       10.00737893       3.44089539       6.55830447       0.01177207      -0.00560279      -0.01059725
H        9.17572775       4.51036602       7.34847028       0.01407528       0.00398134      -0.01919264
O        2.90264045       6.70515558       2.36574993      -0.01732168      -0.01299597      -0.00741404
H        2.84210653       5.90793254       1.80145063      -0.01739272      -0.00908859      -0.01341707
H        2.89311913       6.38863883       3.28805564      -0.01679244      -0.01838917      -0.00915835
O        1.59998146       2.49433479       1.93949130      -0.01134422       0.01224922      -0.01278515
H        0.68903615       2.60330293       2.24797330      -0.01196611       0.01038933      -0.01185711
H        2.18478089       2.75588205       2.71099736      -0.01090045       0.00421632      -0.01043691
O       10.28387648      -0.46443579       9.92497937       0.00010514       0.00753163       0.00681487
H        9.78559995      -0.64405189       9.06039269       0.00255732       0.01347328       0.00486203
H        9.92032056       0.36945083      10.33558377       0.00028714       0.00866908       0.00751032
O        7.51066000      10.26753040       0.57674785       0.01841938      -0.00065061       0.02512331
H        8.16551277      10.97373106       0.54298987      -0.00373279      -0.02443156       0.03794372
H        8.02395865       9.44851427       0.55237620      -0.00649850      -0.00730410      -0.00610634
O        3.15089040       4.07162690       7.81241475       0.00406783      -0.00080432       0.00062512
H        3.40671959       4.82403958       7.23658397      -0.00164107      -0.00054411      -0.00122636
H        3.99511336       3.95986429       8.32932320       0.00706442       0.00205012      -0.00317640
O        6.34174354       9.00724446       9.65712943       0.00422211       0.00887060       0.00425468
H        6.59075485       9.69354567      10.29673757      -0.00483434       0.01404034       0.00753474
H        6.47642133       9.41505996       8.78200075       0.00683253       0.00782841       0.00823729
O        8.94097476       6.27564976       7.40758831       0.00790641       0.00080380       0.00175982
H        8.11394285       6.71503508       7.14897042       0.00944620       0.00316193      -0.00281461
H        9.61061371       6.88591111       7.04534361       0.00937419       0.00239435       0.01033946
O       10.99196248       5.06890364       0.95085302       0.00085123       0.00240017      -0.01299202
H       10.52066497       5.00078627       0.08320629      -0.00513259       0.00113036      -0.01001558
H       11.93984688       5.04476076       0.76627142      -0.00141184       0.00592619      -0.01945905
O        9.34542306       1.74146840      11.02561975      -0.00032008       0.00616741       0.00084291
H        9.84812702       2.39171284      10.48222159      -0.00364438       0.00858381      -0.00005724
H        8.39191098       1.95066251      10.95535961      -0.00071299       0.00221217       0.00340095
O        9.40799141       5.25318565      10.15847549      -0.02784122      -0.00303377       0.00269061
H        8.74748031       5.91457185      10.45391863      -0.00833072       0.00960938       0.01222569
H        9.55019981       5.51605968       9.23854905      -0.03922658      -0.00391032       0.00040729
O       11.57452749      -0.12237974       2.95991741       0.01282758       0.00538401       0.00759877
H       11.03084094      -0.83911826       3.36037538       0.01256941       0.00407176       0.00400763
H       10.95834982       0.64188628       2.85544298       0.01029462       0.00296944       0.00404463
O       10.02887090       1.98930479       2.34791508       0.00098607      -0.00761889      -0.00262830
H        9.89217339       1.97751910       1.37842069      -0.00281674      -0.00490982      -0.00217339
H        9.12743656       1.80707391       2.67681518       0.00167988      -0.00048152       0.00194452
O        1.48274784       5.03242354       9.60814854      -0.00624661      -0.00221878      -0.00866713
H        1.27414180       5.94259144       9.36133052      -0.00878329      -0.00188287      -0.01754694
H        2.09680690       4.71186841       8.88550004      -0.00311399      -0.00320559      -0.00406434
O        4.70915264       6.01339316       6.80023174      -0.01375169      -0.00403875      -0.02073677
H        4.54498220       6.96145241       6.82504294       0.00758458       0.00221945      -0.04485172
H        5.28024197       5.81455134       7.55427375       0.00323299       0.00618637      -0.03036445
O        1.41813243       0.98614197       9.30097680      -0.00405686       0.00543576       0.00326038
H        1.91796197       1.09800841       8.44353354      -0.00352712       0.00543002       0.00333641
H        0.73474017       1.72066230       9.32513300      -0.00481480       0.00517052       0.00214943
O        2.92839583       1.48737333       7.21413036      -0.00312304       0.00000743       0.00268564
H        2.61728962       1.13406852       6.35748856      -0.00540493       0.00194784       0.00547214
H        2.89358100       2.47156730       7.19214012       0.00045117       0.00302260       0.00486345
O        9.90020690       9.32417039       4.05747613       0.00582729       0.00669549      -0.00240745
H       10.10621635       8.97062686       4.94154792       0.00499283       0.00749925      -0.00107972
H        8.98760292       9.66666637       4.12569511       0.00600386       0.00499158      -0.00336792
O        0.88297312       8.37659168       3.08506720       0.00763124       0.00384364       0.00560298
H        1.37535225       7.58375241       2.79661572       0.00384503       0.00527004      -0.00010461
H       -0.06685146       8.18120291       3.07558787       0.00572082       0.00741271      -0.00049805
O        6.59367051       1.91186878      11.50902682       0.00070584       0.00275907       0.00318676
H        6.67679504       1.51153625      12.40131624      -0.00011922       0.00321884       0.00266688
H        6.06901875       1.32322756      10.95076769       0.00329347       0.00056869       0.00222819
O       10.15900097       7.66458872       0.93908460       0.01162106       0.00203492       0.01322576
H        9.36295613       7.61774448       0.36369293       0.00636288       0.00987925       0.01923697
H       10.46306106       6.73482696       1.01449112       0.01014536       0.00109547       0.00003533
O        1.95500616       5.76242333       4.80953653      -0.00201935      -0.00720016       0.00634488
H        1.96896428       6.15893490       5.69797630      -0.00249134      -0.00413223       0.00252363
H        1.01695454       5.72817349       4.54776798      -0.00467998      -0.00708244       0.00522514
O        5.38362997       4.43858088       0.44388313      -0.00023104       0.00111783      -0.01137345
H        4.41661063       4.37853372       0.58449489       0.00000078       0.00089353      -0.01217188
H        5.74090087       3.53490785       0.52664803      -0.00010151       0.00038621      -0.01178683
O        9.22443336      10.50052369       7.63251748       0.00628682       0.01864153       0.00057222
H        8.23243303      10.49633799       7.61262802       0.00486346       0.01337616       0.00075352
H        9.52927847       9.65205787       7.25185334       0.00941819       0.02296752      -0.00109237
O        2.34308405      11.56079495       4.77912356       0.00364526      -0.00153299       0.01281902
H        1.65123629      11.60095757       4.08196727       0.00478255      -0.00001196       0.01097171
H        3.19728698      11.54167310       4.33282659       0.00498466       0.00261325       0.01476902
O        3.21040778       3.51035507       3.72166504      -0.00946201      -0.00763423      -0.00347544
H        3.84006660       3.01566385       4.28558588      -0.00822274      -0.01197904      -0.00574098
H        2.80081548       4.19423162       4.28117876      -0.00523831      -0.01000497      -0.00059412
O        7.23627007       2.06731262       8.19661752       0.01215570       0.00294836       0.01159522
H        7.05132343       1.24936520       7.71396041       0.00408786       0.00440648       0.01040990
H        8.00416749       2.48951930       7.76468703       0.00735432       0.00165355       0.00433230
O        8.02920083       5.99328641       4.22427310      -0.00389875      -0.01030143       0.00284283
H        7.74788084       6.70440078       4.83322109      -0.00336434      -0.00812210       0.00218491
H        7.54086395       6.15236440       3.38875943      -0.00338847      -0.01116093       0.00419756
O       -0.28595018       2.94941420       9.37476677      -0.00534251       0.00509012      -0.00440191
H       -0.88244537       3.17721815       8.60799259      -0.00097091       0.00092315      -0.00909236
H        0.24055043       3.76283229       9.52832777      -0.00417432       0.00556082      -0.00809411
O        9.08787551      12.45863914       5.41654778      -0.00166440       0.00471014       0.00002816
H        9.41310450      12.01042577       6.21146889      -0.00598799       0.00657107       0.00602477
H        8.50985651      11.77959996       5.00910727       0.00370760       0.00272559      -0.00034953
O        1.65476755       9.09321460       5.54351817       0.00726806      -0.00487391       0.00882515
H        1.34006435       8.76636401       4.66030379       0.00682510      -0.00366165       0.00827766
H        2.02709222       9.99516333       5.39659991       0.00474234      -0.00374509       0.00910367
O        4.74563411      11.59307144       9.11723721      -0.00645202      -0.00440031      -0.01179622
H        5.38583764      11.18788131       8.49207276      -0.00380772      -0.00622734      -0.00999391
H        4.16080808      12.10527384       8.53372559      -0.00606777      -0.00793077      -0.01296767
O       10.69009274       5.46283844       3.71822365      -0.00288500      -0.01193397      -0.00118311
H       10.68028851       5.24319537       2.77022834      -0.00182217      -0.00451047      -0.00150783
H        9.78056731       5.77514913       3.92436296      -0.00316510      -0.01222301       0.00043725
O        0.93560568       0.21314528       0.42083876       0.00771038       0.00732216       0.00456664
H        0.65603189      -0.08625511       1.32950100       0.00974390       0.00404768       0.00590086
H        1.39526927       1.05164866       0.59235224      -0.00159404       0.00836962       0.00380234
O        6.59788886       6.42857209       1.87560353      -0.00464737      -0.00612138       0.00308524
H        6.03294777       5.71268298       1.51131834      -0.00125721      -0.00765103      -0.00530321
H        6.03854430       7.17486266       2.16204325      -0.00749085      -0.01162192       0.00388504
O        3.47570195       9.23414118       1.32538752       0.00298724      -0.01369181      -0.00411743
H        3.23637359       8.32084293       1.57437883      -0.00143246      -0.01286218      -0.00815620
H        4.37371171       9.31939442       1.71665308       0.00072224      -0.01630979       0.00283877
O        7.30746870       1.34212392       2.72155449      -0.00376533      -0.00504031       0.00299168
H        7.18212944       0.55101247       3.28413621      -0.00208164      -0.00404804       0.00304614
H        7.15935790       2.10432024       3.31686908      -0.00384559      -0.00408194       0.00392122
O        5.67789704       8.90398332       2.69561668       0.00048229      -0.00659950      -0.00064933
H        6.43352242       9.50896499       2.72390630       0.00050107      -0.01059291      -0.02376935
H        5.24403625       9.01110237       3.57425407       0.00996919       0.00655293       0.00367295
O        5.05160039       2.05466081       5.16692373      -0.00985321      -0.01384197      -0.00391376
H        4.82091633       1.91126972       6.09110939      -0.01713990      -0.01082418      -0.00506732
H        5.87405557       2.58595405       5.16069340      -0.01078942      -0.01275204       0.00029455
O        5.52734967       4.09904047       8.96852986       0.00854973       0.00874752      -0.00762412
H        6.12461730       3.34975780       8.75917310       0.01075504       0.00462104      -0.00514878
H        5.57423432       4.25153327       9.93073273       0.00563472       0.00820839      -0.01191743
O        0.83397592       8.95154511       0.30296490       0.00289419       0.00793982       0.00654507
H       -0.02892840       8.40192625       0.44167583       0.00440339       0.00624122       0.01204648
H        1.14298257       9.14757285       1.20416363       0.00920201       0.00821950       0.00540391
O        7.84753134       7.30608776      11.04052887       0.00372005       0.02172482       0.02403730
H        7.28981528       6.99369749      11.79397587       0.00216541       0.01256583       0.01882333
H        7.27813269       7.79572107      10.40139743       0.00349781       0.01560812       0.01881874
O        3.06945011       9.97954709      10.33362709       0.00058350       0.00147675       0.00023304
H        3.79114218      10.49900040       9.87072064      -0.00022915      -0.00107836      -0.00444363
H        3.34079500       9.65664364      11.27167271       0.00395280      -0.00354298      -0.00295085
O        2.62725559       4.59421552       0.65217972       0.00092383      -0.00113045      -0.01433542
H        2.29276620       4.73055504      -0.26246448      -0.00052304       0.00163621      -0.01411687
H        2.21529571       3.77532251       1.02692918      -0.00542466       0.00286463      -0.01323268
O       10.93207390       3.17345965       5.22786660       0.01843992      -0.01589778      -0.00603290
H       10.46065629       2.41443838       4.85536614       0.01033536      -0.01347250      -0.00047259
H       10.82051128       3.91463762       4.59712216       0.01196947      -0.01580612      -0.00426009
O        7.43284114       3.30744295       4.66816740      -0.01070297      -0.00982881       0.00689158
H        8.13543129       2.86170186       5.16688613      -0.00878567      -0.01088533       0.00412700
H        7.64294874       4.26516405       4.62077378      -0.01023636      -0.00976726       0.00734865
