150
Lattice="16.769009931855777 0.0 0.0 0.0 16.769009931855777 0.0 0.0 0.0 16.769009931855777" Properties=species:S:1:pos:R:3:forces:R:3 energy=-1235021.125 stress="-0.0006443618331104517 -0.0002716210583457723 -0.0001271853907383047 -0.0002716210583457723 -0.001246691565029323 0.00018350299797020853 -0.0001271853907383047 0.00018350299797020853 -0.0005540174315683544" pbc="T T T"
Zr      15.22896123      15.49348397       0.35141100      -0.02021136       0.01294902       0.00132027
F       15.69038339      16.76395696      15.77680460      -0.00357823      -0.00414607      -0.00639182
F       -0.34947637      14.12271087      -0.20694689      -0.02594313      -0.00638574       0.03739940
F       11.59252648      17.24837907       4.40284860       0.00297289       0.00038278      -0.01000535
F       16.30591908      15.84989736       1.90283284      -0.02921042       0.02531788       0.00348282
Cl       3.25475683      10.33898088      11.61908032       0.01601785      -0.00580525       0.00257310
Cl       4.08807432       9.93284471       8.85500382      -0.00607353      -0.00332415      -0.00309178
Cl       1.32039692      10.64670125       9.46088125       0.00265700       0.01728547       0.02185250
C        3.00366973      10.83252486       9.93777382       0.00798515       0.00124553       0.00609048
H        3.26503430      11.88125842       9.86178518       0.01623240      -0.00103340       0.00692909
Cl       7.99713756       0.78993203       5.98723788       0.02133524      -0.02011448      -0.00361159
Cl       9.00920068       2.93936064       4.28183741      -0.00467202      -0.00212210       0.00655258
Cl       9.83352145       2.77957510       7.07966988       0.00628527      -0.01095131       0.00233179
C        9.38737425       1.85653364       5.63133683       0.01028046      -0.00611641      -0.00168416
H       10.23145856       1.23520187       5.31698074       0.01422238       0.00211367      -0.00833276
Cl      13.37818185      14.33222106      16.00748688      -0.01818645       0.01703823       0.00155708
Cl      10.17149173      13.21310418      14.56434891      -0.00039595       0.02371413      -0.04058659
Cl      10.17840953      16.10459851      14.59069775       0.00207675      -0.00705123      -0.02015410
C       10.90013391      14.65566724      14.23969036      -0.01954293       0.00529583      -0.01184599
H       11.89637088      14.65952432      13.83039673      -0.01386207       0.00855907      -0.00541407
Cl      15.05435532      11.37318767       2.22752063      -0.01090740      -0.00052783      -0.01225877
Cl      12.47493176      10.70226663       3.41707176      -0.00869724      -0.00329184      -0.01174472
Cl      14.42928877       8.60367780       2.89278725      -0.00082096       0.00154814       0.00346065
C       14.18964160      10.30482363       3.33650487      -0.00762676       0.00315815      -0.00715645
H       14.60558194      10.44385980       4.32893529      -0.00963238       0.01006315      -0.00735754
Cl       6.09033559       4.26242246       0.03882246       0.00701624      -0.00195414      -0.04210319
Cl       8.54275630       4.98105730       1.45114157      -0.02548700      -0.00051595       0.00930279
Cl       8.38305984       2.44726574       0.01194965       0.00244633      -0.00136307       0.00864844
C        7.85359352       4.13939055       0.05544577       0.00469558      -0.00207816      -0.00240061
H        8.22472899       4.62684476      -0.83801406       0.02427314      -0.00213464       0.00653440
Cl      14.04535115       1.32330365       0.92399404      -0.02464491       0.00142018      -0.00726346
Cl      14.75552342       1.54951462       3.75405692       0.02645153       0.02367446      -0.02012190
Cl      12.89036825       3.42752065       2.53325446      -0.00815505       0.01609552       0.01250654
C       13.46135734       1.77028653       2.60272281       0.01569230       0.02702199       0.00195730
H       12.62940657       1.12799913       2.89739803       0.02829954       0.01439232      -0.00831878
Cl       6.49897466       8.38471498       1.80050361      -0.00186378      -0.02068906       0.00589944
Cl       4.93595590       7.04807147       3.87436099      -0.00087271      -0.00507841       0.01670241
Cl       4.86449950       9.96279832       3.61891844      -0.00029459      -0.00812930      -0.00757599
C        5.02376607       8.41597672       2.76497536      -0.00134444      -0.01473970       0.00537482
H        4.18498063       8.34250033       2.08524632      -0.00227499      -0.02003728       0.00715283
Cl       8.70651753       5.52171888      10.24826992       0.00827027       0.00399691      -0.01181436
Cl      10.27484188       3.21962541      11.11120825      -0.00191279       0.00347418      -0.00263800
Cl      10.36935346       5.69021216      12.65481611      -0.00633004       0.00206612      -0.00528802
C        9.35953807       4.64633612      11.63349791      -0.00354017       0.00373649      -0.00757324
H        8.52146917       4.31093918      12.23432996      -0.00801283       0.00570402      -0.01248209
Cl       8.08233281      14.04580932       0.72378692      -0.00017297      -0.00824282       0.00466362
Cl       5.61097458      12.50714594       0.88059896       0.00837928      -0.02218214      -0.01474506
Cl       7.77549091      11.99843565       2.78025747      -0.00286302      -0.01062664       0.00007901
C        6.94870655      13.21296966       1.80027420      -0.00179593      -0.01407387      -0.00522227
H        6.53658105      13.95969228       2.46664441      -0.01001465      -0.01791015      -0.00598848
Cl       0.68103391       4.27689778      17.40465004      -0.00883855       0.00440171       0.00790042
Cl       1.69355179       5.95810648      15.25097148      -0.00330201      -0.00942607       0.02135241
Cl      -1.06161455       4.98263654      15.17070385      -0.01956555       0.01418945      -0.01571169
C        0.26686221       5.50925037      16.21018547      -0.02008866       0.00539812      -0.00641705
H       -0.05494599       6.39816512      16.73911929      -0.01046468       0.00129154       0.00863220
Cl       9.86487626      11.34924746      10.35822675       0.00685931       0.01094434      -0.02579567
Cl       8.69093162       9.17350419      11.90844907       0.00691453       0.02180010      -0.01337555
Cl      10.61546260       8.57513914       9.81187686       0.01094047       0.00967565      -0.00690073
C       10.13295589       9.74954347      11.04442305       0.00832495       0.01760811      -0.01410727
H       10.94047403       9.81328247      11.76464151       0.00265381       0.03268657      -0.00811023
Cl       0.98025045       2.19709605      13.26761634      -0.00400800      -0.00654551       0.02443023
Cl       3.77649885       2.76897596      13.90128061      -0.00181943      -0.01801810       0.02178913
Cl       2.92939266       0.03433538      13.30551478      -0.00708904      -0.00757882      -0.01513907
C        2.66561340       1.75333709      12.96858709      -0.00614227      -0.00328221       0.01229146
H        2.87606819       1.91810707      11.91890263      -0.00959091       0.01219065       0.01464924
Cl       2.55148356      12.59260483       6.79084230      -0.01221984       0.01051791      -0.01061565
Cl       0.85649526      12.16510666       4.46396557      -0.00655577       0.00514787      -0.01374359
Cl       3.51536314      13.31743103       4.13731240      -0.00511119       0.00100157      -0.01065961
C        2.51600131      12.19747746       5.08168901      -0.00822064       0.00571007      -0.00975318
H        2.92580129      11.20333952       4.95385981      -0.00924097       0.00487769      -0.00560412
Cl       9.15972922       7.81753370      16.43176788       0.01939082      -0.00161278       0.01108129
Cl       8.21607833      10.54242336      15.95332690       0.00221103      -0.01409195      -0.00701658
Cl      11.06947524       9.92510081      15.78304840       0.00201079       0.00014200      -0.02516165
C        9.41897938       9.31783959      15.52914704       0.00524687      -0.01007941      -0.00641682
H        9.31053569       9.09923476      14.47399226      -0.00130492      -0.02155443      -0.00375125
Cl       0.38306414       9.65163724      -0.48834727       0.00150013      -0.00678741       0.00001632
Cl       3.13383465      10.27569680      -1.26488145      -0.00547102       0.00375913      -0.01248199
Cl       1.84371485      11.78228006       0.87163466      -0.00533820       0.00605243      -0.01506832
C        1.96469206      10.22696454       0.06628147       0.00015099       0.00356141      -0.00820094
H        2.33397999       9.50502156       0.78235850       0.00686971       0.00956030      -0.00602226
Cl       0.55073355       5.30434474      11.71653777      -0.00208202      -0.00270796       0.00962155
Cl       2.03759755       7.23629112      10.12705501      -0.00497998      -0.00326047       0.00625607
Cl      -0.49693950       8.01186963      11.37119762      -0.00433773      -0.00445022       0.00583915
C        0.95927874       7.00872338      11.50730181      -0.00359066      -0.00253657       0.00711212
H        1.49133972       7.33275088      12.39278863      -0.00364812      -0.00106740       0.00661778
Cl      13.59094572      14.97672243       2.61534010      -0.01815987       0.00577711      -0.00780813
Cl      11.14559165      16.11156248       1.29780823      -0.01504785      -0.00869973      -0.00352782
Cl      10.91656237      13.85907761       3.11434037      -0.00956506      -0.00430804       0.00734352
C       11.75615302      15.35417150       2.77695210      -0.01345959      -0.00433052      -0.00452125
H       11.67927845      16.18726966       3.65642621      -0.00997472      -0.00413924      -0.00795484
Cl       0.69368205      15.93672977       4.72037840      -0.00222348       0.00386380       0.02359599
Cl      -0.82599839      15.03255233       7.02660047      -0.02048129       0.01139647       0.01749706
Cl       1.89258648      16.00550607       7.39739218      -0.02225205       0.00958407       0.02674699
C        0.40710084      16.16460176       6.44413347      -0.01689353       0.00866595       0.02091534
H        0.03276366      17.17074684       6.58761578      -0.01678516       0.00962460       0.01394391
Cl       5.53030079       2.41866451       3.23625186       0.00771747       0.00356925      -0.02963006
Cl       3.73719403       0.27140410       2.39030148      -0.00311935       0.00065935       0.00790185
Cl       6.62395667      -0.13199705       2.37964938      -0.00413114      -0.01029147       0.00512475
C        5.27068432       0.68192739       3.18454449       0.00164407       0.00473601      -0.00397534
H        5.21997492       0.31485902       4.20194500       0.00416482       0.01991262       0.00135258
Cl      16.21212718       5.92139153       8.30834704      -0.00592151      -0.01667377       0.00659509
Cl      13.82093659       4.93808644       6.96225402      -0.00926963      -0.00747748       0.00636607
Cl      15.32702977       3.17538440       8.74438987      -0.01469539      -0.01377591       0.00404514
C       14.82592611       4.84486529       8.42600480      -0.00920954      -0.01195596       0.00553384
H       14.21988918       5.17023565       9.26287227      -0.00773889      -0.01080094       0.00604358
Cl       1.84160035       8.81806325       6.04907328      -0.00318718       0.00717482      -0.00012878
Cl       1.46447999       8.60472383       3.15116554      -0.00558011       0.00067405       0.00068378
Cl       0.08259221       6.78488574       4.93793425       0.00159601      -0.00016353       0.00604522
C        0.71375645       8.40861741       4.75155777      -0.00314353       0.00101921       0.00160199
H       -0.10686302       9.11406115       4.79260773      -0.00546575      -0.00190015       0.00020004
Cl       5.39620160       6.79005229       7.80952791       0.01311387      -0.00383624       0.01328518
Cl       2.95952698       5.31332495       7.19258691       0.01560044       0.00046184       0.00616604
Cl       5.56345992       4.18895343       6.50093814       0.01559094       0.00034145       0.00653881
C        4.65947590       5.18528445       7.64400642       0.01473502      -0.00336733       0.00834887
H        4.70794728       4.70684637       8.61334346       0.01332017      -0.00670978       0.00668743
Cl       4.12585601       7.57648153      13.60916254       0.01770538      -0.00216352       0.01336257
Cl       6.90548070       6.76634938      13.52664666       0.01594713      -0.00642063      -0.01068036
Cl       4.99625381       5.57636815      11.67272774      -0.00367723      -0.01431447       0.01717734
C        5.43808088       7.03216625      12.56369685       0.00664107      -0.00976543       0.00430188
H        5.64479090       7.81886256      11.84638823       0.00058906      -0.01489620      -0.00269464
Cl       5.57922604      14.68807077       7.28125449      -0.00339309      -0.00042287      -0.00105906
Cl       3.99085863      14.52103780       9.73741609       0.00802815      -0.00132969       0.00512812
Cl       6.71624390      13.47689917       9.68349615       0.00321430      -0.01131782      -0.01052260
C        5.61554710      14.70737082       9.04802944       0.00523458      -0.00570655      -0.00174439
H        5.98607363      15.67567615       9.35916729       0.01046953      -0.00826496      -0.00071397
Cl      15.38579915       9.75302143       7.70545249       0.01072377      -0.00993435      -0.01085024
Cl      13.85077984      10.65061593      10.02354514       0.01791560      -0.00047667      -0.01328489
Cl      12.58422918      10.48060265       7.39294090       0.02030092       0.01931489      -0.01589935
C       13.78933036       9.78681715       8.47496574       0.01023874       0.00459589      -0.01478138
H       13.50784548       8.76285440       8.68806559      -0.00177728       0.00748926      -0.01818269
Cl       6.42093237      -0.07206679      11.99102001       0.01102515      -0.01206295       0.00261976
Cl       8.20307083       0.35455911       9.70669716       0.00198752       0.00172751      -0.00045121
Cl       6.57120647       2.54590157      10.72515446       0.00395010      -0.00556016       0.01670402
C        7.46634323       1.06917499      11.13980424       0.00699356      -0.00683679       0.00566424
H        8.26544596       1.36323324      11.80916451       0.00871342      -0.00988583       0.00408357
Cl       0.12846068      12.11558920      13.53207047      -0.00128400       0.00770229      -0.01077980
Cl       2.69058679      13.49338950      13.37772349       0.00567597      -0.00415269       0.01681777
Cl       0.71477769      13.84229662      11.25158159       0.01697158       0.03478684       0.01863208
C        0.95998176      13.57163698      12.99011053       0.00741313       0.00994831       0.01426626
H        0.54249050      14.41896499      13.51902504       0.00858042       0.00511333       0.02310330
Cl       7.52186915       9.11621095       5.88364612       0.00653619      -0.00536060      -0.01340563
Cl       8.44609803       6.38182619       5.38564157       0.01774365      -0.00374889       0.00510159
Cl      10.29608472       8.62319183       5.14838978       0.00853413       0.00168404      -0.00855055
C        8.87839188       7.98034149       5.99325302       0.01093398       0.00171037      -0.00563135
H        9.13288150       7.88136290       7.04147744       0.01058552       0.00932197      -0.00490996
Cl       2.48160896       4.27135920       3.70872993      -0.00550228      -0.00387606       0.00586735
Cl       2.75283394       2.01610335       5.54079711       0.01680219      -0.00206693       0.00334480
Cl       0.25543256       3.47089435       5.42328358       0.01261604      -0.00909352       0.02523011
C        1.66305710       2.92168198       4.49350120       0.00523984      -0.00545719       0.01384416
H        1.30455830       2.24904174       3.72311392       0.00043282      -0.00645602       0.01713985
