145
Lattice="12.244530783870212 0.0 0.0 0.0 12.244530783870212 0.0 0.0 0.0 12.244530783870212" Properties=species:S:1:pos:R:3:forces:R:3 energy=-234859.515625 stress="0.001007291255518794 0.0001442726352252066 -0.0005932483763899654 0.0001442726352252066 0.00031234585912898183 0.00027614703867584467 -0.0005932483763899654 0.00027614703867584467 0.00046323827700689435" pbc="T T T"
Zr      11.85351122      12.07554128      -0.24679560      -0.00145803       0.00376094       0.00454694
Cl       0.87964650      13.16247922       2.62720935      -0.00445139       0.00542247       0.00249791
O        1.85712131      12.54702028       3.58816378      -0.00400770       0.00746608       0.00336695
O        1.17620659      12.62767177       1.07775758      -0.00115037       0.00542215       0.00310123
Cl       9.42061781      10.44170187      11.96399143      -0.00274789       0.00505811      -0.00009872
O        9.62784535      11.98075230      12.30743033      -0.00109729       0.00295538       0.00826132
O       10.91954075      10.09658111      11.51941760      -0.00340736       0.00688994      -0.00554046
Cl       8.66603954      10.77256892       6.22538698       0.00227290       0.00213337       0.00084507
O        8.05487636       9.37459594       5.96901156       0.00466764       0.00118268      -0.00026944
O        8.76432523      11.59509303       4.89461996       0.00084781       0.00320345       0.00128186
Cl       1.46632517      10.60142785      10.79087199       0.00157905       0.00094962       0.01486772
O        1.65635384       9.06607864      11.32067442      -0.00463012       0.00482190       0.02987766
O       -0.07104581      13.09461220      10.56118011      -0.00207756       0.00147331       0.00269842
O       -0.50511042       3.16995333       4.66586849      -0.00283295       0.00227875      -0.01021853
C        0.43941474       4.05817088       4.11894457      -0.00211385       0.00255638      -0.00902963
H        1.46608306       3.67991007       4.20299720      -0.00236881       0.00169411      -0.00925329
H        0.39573414       5.04909580       4.58827608      -0.00163663       0.00208685      -0.00790879
H        0.21151915       4.18689066       3.05937367      -0.00182989       0.00403946      -0.00896272
H       -0.36106413       3.17117289       5.63378214      -0.00280969      -0.00002225      -0.01020339
O        9.64060555       9.90039351       8.81187298      -0.00209737      -0.00577712       0.00013018
C       10.49023192       8.92310341       8.22111324      -0.00377691      -0.00316864      -0.00639051
H       11.22883970       8.55475244       8.93934466      -0.00549594      -0.01059465      -0.00844961
H       11.01457583       9.32435306       7.34964743      -0.00194022       0.00210860      -0.00297487
H        9.84296533       8.10556556       7.90918132      -0.00554901       0.00065738      -0.01310825
H       10.20887443      10.59027699       9.16205702       0.00040195      -0.01410834       0.01421367
O        6.76080722       6.75475674       3.34983836       0.00627017       0.00054723      -0.00043797
C        5.81240387       7.51955634       4.06325940       0.00469750      -0.00242618       0.00068891
H        5.88792656       8.58975496       3.84881771      -0.00082939      -0.00241983      -0.00170965
H        5.90683821       7.38850412       5.14785434       0.00833492       0.00029641       0.00069755
H        4.82142876       7.17816183       3.76432175       0.00531942      -0.00765131       0.00429080
H        7.64576899       7.02697447       3.67150304       0.00594002       0.00272270      -0.00115432
O        4.44055491       3.34757006       2.01515192       0.00520134       0.00332519      -0.00129277
C        5.51002269       3.85002548       1.24753718       0.00463003       0.00353357      -0.00233519
H        5.17188941       4.55879623       0.48108000       0.00328360       0.00118035      -0.00399971
H        6.06905529       3.04714926       0.74840199       0.00607501       0.00332960      -0.00043285
H        6.18539331       4.38124439       1.91793161       0.00365344       0.00634086      -0.00354502
H        3.74798132       3.04792188       1.39958069       0.00587310       0.00088775      -0.00076290
O        0.63829065      10.64153942       6.30893454       0.00635058      -0.01636195      -0.01039401
C        1.73535838      11.48511677       6.58875626      -0.00419384      -0.00488201      -0.00431874
H        1.49363271      12.54178687       6.44906951      -0.01542285      -0.00706655      -0.00178136
H        2.61233631      11.25743546       5.97164695       0.00025576       0.00676522      -0.00239742
H        1.99893230      11.32843209       7.63566816      -0.00522950      -0.00478480      -0.00378793
H        0.21824469      10.89513108       5.46916166      -0.00106509      -0.01029630      -0.00541747
O        9.13566578       7.60092906       4.40174365       0.00615010       0.00237852      -0.00081885
C        9.73246720       6.59575764       5.20477266       0.00340047       0.00044000      -0.00089353
H        9.10883155       6.33814506       6.06540241       0.00197810       0.00078666      -0.00184864
H       10.71594259       6.91472625       5.56843240       0.00362945      -0.00161910       0.00051434
H        9.86363092       5.70089869       4.59576185       0.00261120       0.00075501      -0.00168151
H        8.82484924       8.33540706       5.00197464       0.00611402       0.00210825      -0.00044821
O       11.62260948       6.05749826      10.54387799       0.00842214      -0.02012199      -0.00105356
C       10.39967897       5.69900139       9.91824620       0.00439885      -0.00072975      -0.00410569
H       10.56758448       5.09450210       9.02319991      -0.00181916       0.00606114      -0.01000246
H        9.79027503       6.56445021       9.65578573       0.01444200       0.00857264       0.00312477
H        9.84210933       5.09500853      10.63568440      -0.00277162      -0.00106400      -0.01018658
H       12.19870018       6.60034926       9.95971062       0.01013833      -0.00879529       0.00884551
O        6.57930483       4.42660065       6.46945465      -0.00465387      -0.00425856       0.00329199
C        5.44290271       4.36844815       5.61355333      -0.00014809      -0.00176080      -0.00108820
H        5.70683697       4.84911322       4.67362679       0.00540070      -0.00254533      -0.00015578
H        4.58692463       4.89657071       6.05123137      -0.00105831       0.00082254      -0.00542775
H        5.15703421       3.33569744       5.41117952      -0.00245783      -0.00104219      -0.00272070
H        6.51780066       3.69773774       7.11270468      -0.00909665      -0.00481931       0.00494287
O        1.34639170       7.48147666       9.33577354      -0.02013919       0.00416201       0.04319352
C        1.95297238       8.00841800       8.17015418      -0.02294773       0.00069517       0.04066616
H        2.89700553       8.50758074       8.41464368      -0.02390677       0.00389777       0.03799838
H        1.31436032       8.72505758       7.64294182      -0.02486938      -0.00269488       0.03827336
H        2.18260708       7.18945220       7.48279665      -0.02226261      -0.00214896       0.04455961
H        1.47811899       8.14251317      10.10172457      -0.01723597       0.00530835       0.04421964
O        6.10950042       0.17553776       4.74618169       0.00035841       0.00319320       0.00462306
C        5.82103194       1.07225580       3.69428253       0.00146818       0.00099528       0.00230920
H        6.05504455       0.65761188       2.70480042       0.00148302      -0.00147203       0.00332224
H        6.35804148       2.02371763       3.79618894       0.00227407       0.00074178       0.00037776
H        4.75415978       1.28461700       3.71463598       0.00156587       0.00196034       0.00149260
H        7.06332060      -0.02348175       4.73461022       0.00020739       0.00182734       0.00428311
O       11.60455066       5.99382181       0.93391183       0.00904716      -0.00426495      -0.00490379
C       10.87545797       7.08145143       1.50072808       0.00124459      -0.00582346      -0.01264600
H        9.79685782       6.94910983       1.38009885       0.00262725      -0.00914946      -0.02217193
H       11.17715839       8.02851509       1.04731042       0.00226499      -0.00500831      -0.01082760
H       11.08721008       7.11270911       2.56799988      -0.00823914      -0.00431040      -0.01073036
H       11.59982071       6.09347501      -0.05039325       0.00851286      -0.01138221      -0.00665220
O       11.01636128       1.80067305       0.75150271      -0.00175329       0.00550526       0.00103802
C       10.05894271       2.12545009       1.78516519      -0.00105052       0.00603502       0.00177294
H        9.54462262       3.04606565       1.51576093      -0.00467882       0.00335863      -0.00057404
H       10.55734591       2.23548103       2.74808253       0.00027031       0.01087079       0.00057247
H        9.34914246       1.30597611       1.80955702       0.00173382       0.00372285       0.00581892
H       11.47281621       2.59229987       0.44767742      -0.00163475       0.00552738       0.00095986
O       11.22695872      11.03985417       4.13633366       0.00084199       0.00697270      -0.00092411
C       11.17385174      10.49568072       2.84508393       0.00009692      -0.00355102       0.00317001
H       12.18589225      10.22977312       2.53019594       0.00085187      -0.00006891       0.00230915
H       10.75541802      11.22519361       2.13153575      -0.00638892      -0.01139805      -0.00090538
H       10.54067342       9.60346620       2.79608304       0.00524351      -0.00776303       0.01202186
H       10.30544697      11.28621029       4.41253447       0.00043405       0.00545570      -0.00052202
O        1.87959774       6.77504593       1.40462870       0.00350034       0.00564739      -0.00079232
C        2.53744718       5.91341190       2.31341684       0.00302044       0.00582266      -0.00042164
H        2.34103697       4.86356417       2.09798341       0.00384942       0.00556052      -0.00042316
H        2.25073606       6.11465203       3.35265291       0.00199383       0.00567207      -0.00054604
H        3.61105798       6.06561648       2.21638628       0.00323069       0.00569497       0.00050011
H        0.96641514       6.44586064       1.24315592       0.00409610       0.00383056      -0.00205202
O        6.54458106       2.57592774       8.52658354      -0.02876866      -0.00613636       0.01496262
C        7.41085361       3.16277760       9.50370532       0.01130965       0.00233973      -0.00113984
H        7.48047538       2.53309660      10.39197491       0.01266534      -0.00004506      -0.00071758
H        7.08758518       4.17012558       9.77328500       0.00818139       0.00015995       0.00073561
H        8.39284954       3.23375851       9.04255204      -0.00268924      -0.00227492      -0.01008883
H        5.68836232       2.41852640       8.93300628       0.01444484       0.00616177       0.00733837
O        4.71682752       9.50527111       0.69215797      -0.00193927       0.00233918      -0.01100105
C        4.77037509       8.18875722       0.16779468      -0.00028998       0.00009251      -0.00557515
H        4.92155314       7.44703595       0.95920155       0.00643757       0.00381368      -0.00322646
H        5.62615037       8.13838000      -0.50558353      -0.00397879       0.00000970      -0.01032129
H        3.85842064       7.95691875      -0.38617064      -0.00274193      -0.00537183       0.00073028
H        3.87388002       9.60068257       1.18737701      -0.00106536       0.00333904      -0.00952233
O        2.51692193       2.64730350      12.39216088       0.00711554      -0.00283289      -0.00001295
C        1.53483851       3.58476867      11.96897627       0.00736049      -0.00217131       0.00016056
H        0.86438112       3.87194374      12.78957623       0.00765666      -0.00215130       0.00025803
H        0.95101055       3.20123693      11.12762519       0.00690633      -0.00170344       0.00024650
H        2.04785958       4.49087244      11.65120159       0.00780579      -0.00235933       0.00013859
H        2.07787632       1.80929795      12.63453296       0.00569846      -0.00147294       0.00266364
O        7.37214355       6.37319233       8.24877158       0.00572062      -0.00368434      -0.00175940
C        6.48859899       7.47874177       8.33997884       0.00874045      -0.00157034      -0.00065175
H        6.53747895       8.12087431       7.45566350       0.00632374      -0.00353500      -0.00232708
H        6.79706002       8.07569149       9.19737927       0.01370303      -0.00009710      -0.00340614
H        5.45161756       7.15789456       8.49777606       0.00845420       0.00127749       0.00459510
H        7.05872528       5.78713303       7.53369326       0.00178238      -0.00465773       0.00074966
O        1.51547990       1.90728996       8.82470864      -0.00722200       0.00039409      -0.00322659
C        2.88748457       1.70295335       9.05729015      -0.00814641      -0.00216936      -0.00391461
H        3.13398334       1.80762273      10.11832386      -0.00565926       0.00548252      -0.00514513
H        3.43406735       2.46302513       8.49141067      -0.00637215      -0.00816333      -0.01139091
H        3.21914275       0.71680476       8.71364711      -0.01119076      -0.00575483       0.00337157
H        0.94836789       1.42888979       9.49207783      -0.00742918       0.00211150      -0.00084571
O        2.35833681       9.36148750       2.05156491       0.00070861       0.01132457      -0.00382835
C        2.36279851       9.26810335       3.46855478       0.00576938       0.00552165      -0.00414526
H        3.07052155       8.51707098       3.83368622       0.01259667       0.00955814      -0.00908092
H        1.36953418       9.02512536       3.85999410       0.00870025      -0.00367415      -0.00250278
H        2.64518131      10.24266265       3.85690740      -0.00031142       0.00631469      -0.00125624
H        2.08933325       8.49297883       1.68402018       0.00031203       0.01263026      -0.00627002
O        0.09666949       3.52722938       7.31266538      -0.00290266      -0.00187719      -0.00889635
C        0.73678247       4.74978786       7.63606633       0.00118236      -0.00227588      -0.01519964
H        1.72074699       4.83569078       7.15990067      -0.00163734      -0.00520022      -0.02198799
H        0.86561706       4.86121499       8.71439584       0.00763370      -0.00070865      -0.01589578
H        0.11371833       5.57098728       7.28151355       0.00031373      -0.00207141      -0.01310454
H        0.59879584       2.82796630       7.78877324      -0.00481926      -0.00124456      -0.00651006
O        7.09044187      10.72773208       0.86109381      -0.00188133       0.00054061       0.00101304
C        7.47041702      10.46701636       2.19954740      -0.00408992      -0.00297467       0.00102150
H        7.79268003       9.42836641       2.34236478      -0.00534011      -0.00368494      -0.00098286
H        6.66059610      10.67977580       2.90034625      -0.00493956      -0.00361516       0.00038454
H        8.30419106      11.12085523       2.44693759      -0.00384083      -0.00426799       0.00385494
H        6.20406441      10.32221120       0.72946687      -0.00149218       0.00021405      -0.00215845
