143
Lattice="11.49481536697154 0.0 0.0 0.0 11.49481536697154 0.0 0.0 0.0 11.49481536697154" Properties=species:S:1:pos:R:3:forces:R:3 energy=-139053.484375 stress="-0.004158406052738428 0.0008989332418423146 -0.0012739516096189618 0.0008989332418423146 -0.005360556300729513 0.000299823033856228 -0.0012739516096189618 0.000299823033856228 -0.0038537101354449987" pbc="T T T"
N        4.94431620       9.57561052       9.55683464       0.01566052       0.00149450      -0.00473708
N        2.93221089      10.14527899      10.10653018       0.00695688       0.00252594      -0.00553809
C        6.05726490       9.00848098       8.78569060       0.01058561      -0.00017328      -0.00169671
C        6.63879572       7.74476457       9.39825335       0.01362342       0.00541416       0.00455707
C        5.62512531       6.61618832       9.48853745       0.01491922       0.00485215       0.01383469
C        3.65172738       9.39054379       9.27814538       0.01039842      -0.00083601      -0.01300889
C        5.04553445      10.46955612      10.60022842      -0.00579056      -0.00007302       0.00004500
C        3.77785089      10.82738945      10.94030152       0.02203554      -0.00970811      -0.01054376
C        6.20219075       5.33779706      10.07227305       0.01870936       0.00621378       0.01100321
C        1.48089810      10.25360561      10.10683535       0.01204163      -0.00102562      -0.01177854
H        5.66571637       8.80239445       7.79117720       0.01295938      -0.00607072      -0.00091943
H        6.80671135       9.79621049       8.69125191       0.01080760       0.00060493      -0.00596232
H        7.07371607       7.96143219      10.37944863       0.01538101       0.01108801       0.00287455
H        7.48008726       7.44972771       8.76331950       0.01271564       0.00085787       0.00522426
H        4.75312159       6.93762771      10.06650396       0.01930377       0.00670946       0.01972559
H        5.21830817       6.42100910       8.49725003       0.00773169       0.00317896       0.01749071
H        3.26504229       8.74563455       8.50234912       0.01487500       0.00469571      -0.01036657
H        5.99066676      10.83879202      10.95538956       0.01059609      -0.00449199       0.00170115
H        3.41809316      11.51791225      11.68080988       0.00518594      -0.00445333      -0.00201717
H        6.67991238       5.51257358      11.03964822       0.01804522       0.00542214       0.01059909
H        6.95831418       4.90751694       9.41256162       0.02021265       0.01043474       0.01041952
H        5.41896157       4.59092602      10.20876799       0.02165163       0.00368413       0.00991754
H        1.09238038       9.68765364       9.26376405       0.01198515       0.00179107      -0.01196997
H        1.08002721       9.81879133      11.02018761       0.00985418      -0.00086603      -0.01179543
H        1.20872598      11.30432002      10.00816831       0.01153314      -0.00017369      -0.00922033
N        6.16004361       6.94234742       1.85284042      -0.00577313      -0.01280400       0.00673207
N        7.94789966       8.17404355       1.87525341      -0.00355828      -0.02098539      -0.01222984
C        4.80984327       6.45066528       1.52636158      -0.00769410      -0.01316804       0.01728138
C        3.69278360       7.07766762       2.33583215      -0.00492138      -0.00269954       0.01237628
C        3.60647969       8.58634938       2.16668186      -0.00406936      -0.00391045       0.00250381
C        6.67362810       8.11808298       1.48117112      -0.00491536      -0.01622438       0.00619870
C        7.13612197       6.23061312       2.50685012      -0.00194281      -0.02536112      -0.00694105
C        8.25768125       7.00063105       2.52105919       0.00797006      -0.02465206      -0.01880759
C        2.30283332       9.15043599       2.69949136      -0.00317171      -0.00072321       0.00079058
C        8.86278549       9.28381753       1.63629825      -0.00009120      -0.02884096      -0.01976732
H        4.63774908       6.65454586       0.47064374      -0.01024393      -0.02381951       0.01497704
H        4.85181708       5.37015218       1.65844522      -0.01195808      -0.01112843       0.02835643
H        3.77215648       6.80063514       3.38914646      -0.00494810       0.00536364       0.01423508
H        2.77534513       6.63373401       1.94417635      -0.00652996      -0.00332773       0.01702511
H        4.44633783       9.06610258       2.67777629      -0.00345773      -0.00139704      -0.00107552
H        3.68741178       8.81483380       1.10070232      -0.00552452      -0.01059037       0.00123721
H        6.14796705       8.89182093       0.94951179      -0.00994203      -0.01171969       0.01449116
H        6.94115608       5.25604457       2.92010414       0.00336992      -0.02054106      -0.01189407
H        9.23121766       6.82577767       2.93731620       0.00653792      -0.03071124      -0.03791623
H        2.15052700       8.87861498       3.74566386      -0.00207249       0.00488096       0.00210056
H        1.46229431       8.75924079       2.12004390      -0.00349772      -0.00323661       0.00374636
H        2.28303546      10.24149862       2.63116275      -0.00299326      -0.00148252      -0.00500757
H        8.36203994      10.01140175       1.00166559      -0.00085668      -0.02427493      -0.01217207
H        9.12263322       9.74837868       2.58745228       0.01408442      -0.03019575      -0.02560452
H        9.75438776       8.91025765       1.12847126      -0.00971910      -0.03312954      -0.02937904
O        0.29876351       5.42341870      10.73497001      -0.01603836       0.01412666       0.01784724
O        0.76103683       7.10436785       8.63025609      -0.00829211       0.00922389       0.01176054
O        2.20172444       7.22806516      10.99047377      -0.00509822       0.00527772       0.00789809
O       -0.35335856       7.95230000      11.01864453      -0.00116634       0.01760542       0.01186013
Cr       0.72741211       6.92043462      10.39814421      -0.00723119       0.01178181       0.01289141
Cr       1.76611333       6.99407150       7.17123290      -0.00069708       0.01095300       0.01653361
O        1.85801612       8.46700746       6.53175163       0.00123395       0.01076734       0.01665294
O        3.25264435       6.54207501       7.58026104      -0.00265121       0.01306856       0.02540421
O        1.13717436       5.94886701       6.12604822       0.00655246       0.00944650       0.01463759
C        4.93784544       0.57189257       2.49405733       0.00431252      -0.00344182      -0.00982383
C        4.21208336       1.63988112       1.98318745       0.00730255      -0.00431357      -0.01460626
C        6.28262740       0.42117731       2.16852465       0.00490219      -0.00562438      -0.00538398
C        4.82180875       2.53691662       1.11141640       0.01051234      -0.00710712      -0.01436133
C        6.90140256       1.33581394       1.32271668       0.00796735      -0.00830989      -0.00523903
C        6.16554892       2.38784424       0.78327246       0.01120056      -0.00918044      -0.00975768
H        4.46866363      -0.12583665       3.17452765       0.00163075      -0.00138268      -0.01007900
H        3.17389725       1.77595590       2.26004179       0.00648987      -0.00312597      -0.01891769
H        6.84810387      -0.38552064       2.61941400       0.00253972      -0.00524832      -0.00274114
H        4.23903701       3.34596250       0.68817293       0.01303238      -0.00792250      -0.01854922
H        7.95699534       1.24605657       1.09235814       0.00823151      -0.01041775      -0.00201020
H        6.64162875       3.09172554       0.11304389       0.01391133      -0.01134361      -0.00965888
C       10.47584617       9.58065927       6.87275338      -0.01824330      -0.00680476       0.00569852
C       10.14820516       8.24430647       6.68947849      -0.01293230      -0.00777663       0.00378631
C       10.95342382      10.33740490       5.80819865      -0.01707904      -0.00549981       0.00802285
C       10.32751817       7.65149698       5.44474365      -0.00771862      -0.00600086       0.00432092
C       11.12126062       9.74736118       4.56321174      -0.01104461      -0.00389605       0.00854398
C       10.82776339       8.40075092       4.38784565      -0.00742245      -0.00421787       0.00653341
H       10.39346866      10.01950727       7.85982033      -0.02343186      -0.00776865       0.00523414
H        9.81429691       7.65173129       7.53108711      -0.01328214      -0.00922918       0.00203213
H       11.23940949      11.37063147       5.95727102      -0.02108403      -0.00478815       0.00965289
H       10.12616855       6.59580170       5.31841790      -0.00486464      -0.00615233       0.00272944
H       11.53290937      10.32137439       3.74194493      -0.01009219      -0.00259198       0.01050127
H       11.03859861       7.92965550       3.43469262      -0.00492071      -0.00249135       0.00671670
C        9.82110532       1.84571718       8.99778785      -0.01174481       0.01222137       0.00660488
C       10.27253209       3.12252906       9.31619989      -0.00647945       0.01051706       0.00348613
C        9.74377785       1.44647669       7.66841191      -0.01197495       0.00889626       0.00776110
C       10.64086588       3.99759675       8.29990911      -0.00122520       0.00604579       0.00232177
C       10.12670138       2.32014876       6.65584771      -0.00715340       0.00450372       0.00647196
C       10.56775120       3.59761436       6.97179647      -0.00180742       0.00306335       0.00338279
H        9.53688837       1.15540383       9.78468467      -0.01606590       0.01629314       0.00790887
H       10.36056675       3.44407861      10.34573594      -0.00614515       0.01274867       0.00255363
H        9.38528656       0.45646809       7.41873501      -0.01565917       0.00999875       0.01022765
H       11.00769607       4.98347881       8.54886303       0.00296023       0.00478372       0.00008232
H       10.06645627       2.00937952       5.61891240      -0.00680149       0.00218958       0.00745669
H       10.87872315       4.28776047       6.19794477       0.00252970      -0.00119929       0.00189528
C        4.58794753       2.38687991       8.38646090      -0.00251381       0.00414308       0.00701433
C        4.16676800       1.08175484       8.17396436       0.00106947       0.00647022      -0.00286766
C        3.73731400       3.44393202       8.09092537      -0.00437233       0.00524491       0.01306432
C        2.88819311       0.82566201       7.69272196       0.00344765       0.00602046      -0.00810013
C        2.46418088       3.19299491       7.59637934      -0.00200415       0.00491016       0.00757715
C        2.03585965       1.88423229       7.41090284       0.00199029       0.00705259      -0.00374091
H        5.59037128       2.57618894       8.74899420      -0.00403498       0.00448254       0.01069655
H        4.85469359       0.26803607       8.34558081       0.00182624       0.00591237      -0.00573218
H        4.05372064       4.46997406       8.20960879      -0.00752229       0.00408256       0.02225464
H        2.56097847      -0.19173805       7.51061066       0.00579809       0.00754473      -0.01455254
H        1.82018724       4.02097204       7.33310120      -0.00298622       0.00582097       0.01186068
H        1.03934534       1.69190001       7.03913976       0.00411007       0.00659499      -0.00856752
C        6.23373267       8.32743331       5.20657190       0.00509579       0.00637934      -0.01202062
C        7.15006393       9.37247597       5.26355854       0.00569090       0.00506027      -0.02013121
C        4.87855451       8.57954860       5.38979186       0.00701901       0.00774066      -0.00105770
C        6.70695380      10.66690583       5.50241277       0.00953457       0.00559856      -0.01657578
C        4.43463604       9.87836854       5.60519686       0.01043235       0.00838375       0.00160471
C        5.34980967      10.92154439       5.66383425       0.01130226       0.00702053      -0.00580527
H        6.58526599       7.31837999       5.04411264       0.00220706       0.00580998      -0.01427892
H        8.20709334       9.17283702       5.15128914       0.00433962       0.00442386      -0.02915208
H        4.15291182       7.77818673       5.39555856       0.00632009       0.00941449       0.00482202
H        7.42437491      11.47550714       5.55828809       0.01043120       0.00442730      -0.02302793
H        3.37540448      10.05298280       5.73783527       0.01181769       0.00900598       0.00884333
H        5.00169274      11.92847138       5.84213050       0.01426649       0.00738449      -0.00380785
C        0.54733016       1.77901008       1.52405475      -0.00889460       0.00303850      -0.00014206
C        0.28881915       1.95996849       2.88125199       0.00311457      -0.00619650       0.00282326
C        1.15609757       2.79230837       0.79215191      -0.01081739       0.00525724       0.00241105
C        0.64205334       3.15232073       3.50310599       0.01357711      -0.01250836       0.00806339
C        1.50747033       3.98576894       1.41668719      -0.00085893      -0.00077382       0.00745602
C        1.24815269       4.16758916       2.76970574       0.01116784      -0.01005328       0.01052667
H        0.27254002       0.84785904       1.03971455      -0.01767363       0.00832286      -0.00438652
H       -0.19183368       1.17467905       3.45286483       0.00416052      -0.00783531       0.00078729
H        1.34882350       2.67079908      -0.26730589      -0.02061572       0.01245721       0.00031416
H        0.45320722       3.30155567       4.55763144       0.02284234      -0.01992563       0.01040711
H        1.94892921       4.77839247       0.82649087      -0.00336971       0.00161678       0.00930400
H        1.50018556       5.09750370       3.26566872       0.01854566      -0.01459084       0.01462656
C        7.04446205       2.79618122       5.94043421      -0.00824414       0.01520281      -0.01916231
C        6.07947001       2.71370536       4.94977192      -0.01285036       0.01647703      -0.01428946
C        7.22217595       3.97414914       6.65243055      -0.01057556       0.01130125      -0.01277706
C        5.24416663       3.79531861       4.69958944      -0.01935519       0.01334316      -0.00313210
C        6.40948505       5.06436429       6.38194065      -0.01717322       0.00837727      -0.00195340
C        5.40440231       4.96710594       5.42523114      -0.02117170       0.00947806       0.00297218
H        7.66083374       1.94255083       6.17431678      -0.00276924       0.01702781      -0.02845818
H        5.96626507       1.80298302       4.38258647      -0.01133321       0.01966617      -0.01934175
H        7.98662348       4.03185349       7.41626572      -0.00741929       0.01033238      -0.01622401
H        4.46007316       3.71200921       3.95696257      -0.02209534       0.01429871       0.00004512
H        6.54594361       5.98714036       6.92860841      -0.01906185       0.00566886       0.00266658
H        4.72879739       5.79497567       5.26836944      -0.02541630       0.00699434       0.01176588
