140
Lattice="11.491406682906865 0.0 0.0 0.0 11.491406682906865 0.0 0.0 0.0 11.491406682906865" Properties=species:S:1:pos:R:3:forces:R:3 energy=-84854.15625 stress="-0.005126951728016138 0.00015761751274112612 -0.002704648533836007 0.00015761751274112612 -0.0016423173947259784 -0.0007976789493113756 -0.002704648533836007 -0.0007976789493113756 -0.004386781714856625" pbc="T T T"
N        5.07997839       9.54999329       9.19292261       0.00773227       0.00658822       0.00121030
N        3.34837730      10.18964954      10.33871144       0.00969616       0.00349782       0.00439101
C        5.90916721       8.84474312       8.20769863       0.00557372       0.00643692       0.00021464
C        6.32582943       7.43766607       8.61861381       0.00482655       0.00629917      -0.00055413
C        5.18880688       6.51158928       9.02842185       0.00494415       0.00766613       0.00195232
C        3.75503857       9.39662798       9.34853931       0.00886130       0.00419408       0.00431669
C        5.52461582      10.47648985      10.11036273       0.00809491       0.00787753      -0.00073832
C        4.43487945      10.87259345      10.82739165       0.00921285       0.00584948       0.00076997
C        5.67647997       5.09217779       9.28108506       0.00338078       0.00695816      -0.00255638
C        1.96032130      10.38217340      10.75793425       0.01075220       0.00023539       0.00775069
H        5.34470329       8.81134138       7.27731451       0.00389406       0.00654273       0.00158846
H        6.78531276       9.47101062       8.03963465       0.00537282       0.00587544      -0.00094950
H        7.07364087       7.48436035       9.41006466       0.00599810       0.00571019      -0.00195295
H        6.84630471       7.01095917       7.75613261       0.00257844       0.00570069      -0.00128835
H        4.70137825       6.90346678       9.92801634       0.01012379       0.00659097       0.00485331
H        4.41524659       6.49693316       8.25031969       0.00177093       0.01005090       0.00566036
H        3.11052583       8.77220305       8.75437621       0.00871846       0.00274667       0.00633490
H        6.55721832      10.78780027      10.18254952       0.00797635       0.01025440      -0.00283727
H        4.34203293      11.58364479      11.63051641       0.00950351       0.00609588       0.00055886
H        6.50485949       5.07581797       9.99051352       0.00694448       0.00674157      -0.00737101
H        6.04909349       4.62983787       8.36473103      -0.00264179       0.00702320      -0.00467031
H        4.88104341       4.45943776       9.67639544       0.00507978       0.00759932       0.00128888
H        1.32179286       9.73059461      10.16958817       0.01122205      -0.00498444       0.01371330
H        1.85622678      10.13788267      11.81322968       0.01556983       0.00544162       0.00911900
H        1.63411013      11.40728945      10.59741172       0.00605842      -0.00236169       0.00310405
N        6.30051845       6.05312696       1.88081320       0.00269076      -0.00768621       0.01531893
N        5.19564853       5.57150991       3.67556764       0.01134536      -0.00589477      -0.00010437
C        7.34304082       6.56149244       0.99262463      -0.00232160      -0.00783677       0.00219905
C        7.05058097       7.99167938       0.56118715       0.00032238      -0.00737333       0.00491714
C        6.85544054       8.95182588       1.73471245      -0.00153333      -0.00914974       0.00533515
C        6.37258923       6.00095388       3.21061143      -0.00979972      -0.01212695      -0.00323343
C        5.04722520       5.66258805       1.49075800       0.00358474      -0.00462204      -0.03005511
C        4.35311735       5.35054158       2.61664020      -0.02664107      -0.01938362       0.01832837
C        7.17516674      10.40013747       1.38952292      -0.00388163      -0.00857532       0.00686496
C        4.85270578       5.34059676       5.06716877      -0.00364774      -0.01016876       0.00032532
H        8.27451781       6.51955093       1.54793636      -0.00041667      -0.00647891       0.00673273
H        7.43117922       5.87284039       0.15157734       0.00188052      -0.00604957       0.00502259
H        6.17547750       8.00703812      -0.09435331       0.00079784      -0.00698844       0.00412650
H        7.90488452       8.31482773      -0.04119231      -0.00001535      -0.00652570       0.00632742
H        5.83217658       8.86531957       2.11739969      -0.00098971      -0.01107379       0.00536706
H        7.51263319       8.63799189       2.54708121      -0.00095546      -0.00896604       0.00478527
H        7.22264752       6.29000740       3.80211291       0.00036849      -0.00766444       0.00504129
H        4.77146599       5.61027110       0.45420918       0.00234745      -0.00622796       0.01637801
H        3.35373114       4.97980626       2.75464763       0.01299332      -0.00390637      -0.00261003
H        6.30588018      10.96756799       1.07211698      -0.00578222      -0.00966927       0.01101594
H        7.93018070      10.49668577       0.61023531      -0.00758515      -0.00695594       0.00383241
H        7.56963030      10.92202016       2.25169749      -0.00028381      -0.00959961       0.00555792
H        5.66035809       5.70335659       5.69834765       0.00208184      -0.01276755       0.00096761
H        3.93371163       5.87655592       5.29367557       0.00255731      -0.00593539       0.00289434
H        4.71328880       4.27478246       5.24209482      -0.00478396      -0.00794387       0.00162134
P        9.90595840       1.24162779       0.02239819      -0.00495371      -0.02774689      -0.01885140
O       10.37699781       2.65786899      -0.71401175      -0.01642501      -0.01867938      -0.00458747
O        9.97054642       1.52002040       1.51907686      -0.01376781      -0.03938490      -0.01665998
O       10.92133746       0.16793897      -0.36668476       0.00780010      -0.01356876      -0.02218342
O        8.52737718       1.00242411      -0.55612514       0.00182056      -0.03598714      -0.03032482
H       11.12004933       3.03152534      -0.23069487      -0.02460381      -0.01565504       0.00440592
C        5.26541635       0.88921926       3.83391609       0.00277710       0.01508740      -0.00971957
C        4.37126555       1.39047162       2.89135340       0.00183477       0.00779974      -0.01202842
C        6.61987261       1.16914308       3.72235144       0.00268641       0.01169711      -0.01514439
C        4.84713303       2.16380583       1.83649536       0.00075771      -0.00286175      -0.01963173
C        7.10086750       1.93672975       2.66736719       0.00162242       0.00140140      -0.02230639
C        6.21056056       2.42530152       1.72074860       0.00049859      -0.00627258      -0.02489963
H        4.91224880       0.26527206       4.64398429       0.00349240       0.02270313      -0.00401516
H        3.31174711       1.17490654       2.97145159       0.00204755       0.00942181      -0.00864733
H        7.31031994       0.76410223       4.45173845       0.00345509       0.01661658      -0.01360393
H        4.15186430       2.56047685       1.10547882      -0.00009684      -0.00871411      -0.02162818
H        8.16802767       2.08828362       2.52916332       0.00145802      -0.00345519      -0.02620130
H        6.59664572       2.97644720       0.87187927      -0.00039887      -0.01614568      -0.03121243
C        9.24656376       8.27992120       4.57844377      -0.00032853       0.00291058       0.00899071
C        9.62848747       7.49087204       3.50187896       0.00088041       0.00270293       0.01010615
C        9.33090925       9.66755809       4.48312598      -0.00157485       0.00262997       0.00795946
C       10.07318465       8.08894942       2.32450959       0.00046281       0.00182320       0.01018487
C        9.78517894      10.26237147       3.31094876      -0.00195151       0.00170681       0.00804616
C       10.15097087       9.47248494       2.22231224      -0.00110487       0.00156572       0.00901258
H        8.89175768       7.81213424       5.48909189      -0.00080604       0.00386577       0.00888210
H        9.59020198       6.40860377       3.57364094       0.00170746       0.00296524       0.01100474
H        9.04096225      10.28506521       5.32569078      -0.00289827       0.00285764       0.00697181
H       10.35507311       7.46279707       1.48943173       0.00156546       0.00167699       0.01097482
H        9.84001728      11.34028097       3.19511143      -0.00338834       0.00111717       0.00601038
H       10.47037700       9.96436900       1.30547390      -0.00164881       0.00104594       0.00909233
C       10.55088624       6.35280608      10.39680456      -0.01051147       0.01885422       0.00745021
C       10.80608381       7.72029119      10.40471773      -0.01081943       0.01849324       0.00956273
C        9.96222629       5.75782898       9.28752034      -0.00008299       0.01875208       0.00250924
C       10.44996619       8.51147121       9.31744164      -0.00062725       0.01848492       0.00673979
C        9.64552731       6.53862666       8.18058485       0.01077801       0.01844467      -0.00033630
C        9.88034037       7.91028953       8.19963677       0.01026478       0.01817816       0.00189379
H       10.81472249       5.73566575      11.24660161      -0.01751495       0.01936813       0.00962655
H       11.27552306       8.18510259      11.26210406      -0.01849391       0.01914248       0.01282175
H        9.76850238       4.69276667       9.29908493      -0.00079647       0.01908970      -0.00000195
H       10.59609029       9.58578216       9.36383727      -0.00072927       0.01820320       0.00952740
H        9.20166179       6.06637962       7.31190154       0.01946402       0.01836369      -0.00440887
H        9.62401798       8.52008825       7.34288027       0.01880963       0.01791351      -0.00042802
C        3.02844889       3.46707090       7.55911038      -0.00349359       0.00442199       0.00482585
C        3.81283623       2.42775253       8.04491959      -0.00412418       0.00438692       0.00466609
C        1.74413145       3.20777577       7.09503249      -0.00288692       0.00484364       0.00376754
C        3.30397383       1.13693674       8.07529596      -0.00352869       0.00442216       0.00202284
C        1.22897836       1.91691004       7.14991632      -0.00227889       0.00494786       0.00117606
C        2.00653656       0.88269692       7.65196578      -0.00253448       0.00471312       0.00011042
H        3.41642335       4.47857532       7.54625077      -0.00342057       0.00405978       0.00559113
H        4.81728955       2.61362308       8.39671093      -0.00428532       0.00407340       0.00458685
H        1.14190337       4.01841963       6.70233762      -0.00256444       0.00472378       0.00387286
H        3.93647699       0.33636597       8.42855266      -0.00441646       0.00416303       0.00225560
H        0.22456238       1.71201984       6.80710528      -0.00201912       0.00543350       0.00103198
H        1.60177083      -0.12066540       7.69073644      -0.00277819       0.00516689      -0.00004375
C        1.26352511       8.65757248       4.36611194       0.00713143      -0.00169760      -0.00224058
C        1.95936115       7.86274782       5.26470277       0.00640882       0.00121477       0.00020070
C        1.56763985      10.00752164       4.23778175       0.00582612      -0.00202459      -0.00462995
C        2.98735345       8.41506561       6.02038140       0.00453094       0.00370837       0.00026458
C        2.56979554      10.56350815       5.01607324       0.00375436       0.00067848      -0.00434400
C        3.29116470       9.76554416       5.89511861       0.00299960       0.00347568      -0.00177284
H        0.46247356       8.23708418       3.78051179       0.00847304      -0.00362948      -0.00227777
H        1.68455931       6.82119103       5.38764981       0.00716540       0.00163330       0.00250022
H        1.00140777      10.62468812       3.55175418       0.00610465      -0.00430620      -0.00645232
H        3.53813148       7.78464454       6.70907187       0.00426843       0.00593641       0.00196431
H        2.77458512      11.62317845       4.96240516       0.00230982       0.00056918      -0.00599550
H        4.07325155      10.22078490       6.48949724       0.00084110       0.00507228      -0.00072289
C        1.99196940       4.34545642       0.18749620      -0.01155692      -0.00956594      -0.00947829
C        1.41233483       3.51437531       1.14371978      -0.01289819      -0.00937384      -0.01079208
C        1.99567237       5.72473636       0.37596267      -0.00566981      -0.01052319      -0.00581897
C        0.83082177       4.06244279       2.28433336      -0.00854243      -0.01022394      -0.00871029
C        1.44227269       6.27205574       1.52714168      -0.00157270      -0.01134960      -0.00419313
C        0.85852901       5.43970499       2.47951822      -0.00331853      -0.01102076      -0.00530492
H        2.41277940       3.91779684      -0.71600281      -0.01527810      -0.00881493      -0.01120785
H        1.37656789       2.44053647       0.99716819      -0.01689736      -0.00865421      -0.01335088
H        2.41337745       6.37604899      -0.38385264      -0.00436230      -0.01046880      -0.00476559
H        0.33609504       3.40802890       2.99062371      -0.00892488      -0.00978771      -0.00903670
H        1.46029035       7.34367505       1.68623775       0.00281604      -0.01209638      -0.00179219
H        0.41797136       5.87178387       3.36946162      -0.00006688      -0.01166020      -0.00385363
C        9.60896674       3.29490453       7.02356776      -0.00603199       0.00491893       0.01008651
C        8.91161340       2.49397946       7.91999704      -0.00655460       0.00563589       0.00944401
C        8.99637243       3.77197806       5.87115663      -0.00324667      -0.00096500       0.00678661
C        7.58036123       2.18547195       7.66578723      -0.00417420       0.00031658       0.00613280
C        7.66556052       3.46571431       5.62585005      -0.00029349      -0.00817861       0.00180587
C        6.95615855       2.67545914       6.52514223      -0.00130850      -0.00711975       0.00173912
H       10.63084549       3.56427172       7.24133286      -0.00780113       0.00844000       0.01303712
H        9.38136615       2.13336713       8.82564072      -0.00806072       0.00863312       0.01083225
H        9.55898659       4.36913605       5.16135058      -0.00307681       0.00120736       0.00919051
H        7.04728199       1.56904364       8.38121693      -0.00290298      -0.00010197       0.00648251
H        7.19389356       3.79201052       4.70904387       0.00296579      -0.01388467      -0.00153633
H        5.92449019       2.42266370       6.31523750       0.00103807      -0.01282174      -0.00187234
