150
Lattice="11.290396354272445 0.0 0.0 0.0 11.290396354272445 0.0 0.0 0.0 11.290396354272445" Properties=species:S:1:pos:R:3:forces:R:3 energy=-82695.765625 stress="-0.0004765221383422613 -0.0010653993813320994 -0.0004899860359728336 -0.0010653993813320994 0.0012244968675076962 0.00024689874408068135 -0.0004899860359728336 0.00024689874408068135 -0.0014651893870905042" pbc="T T T"
N        8.04128287       8.02929687       2.78606426       0.00179061       0.00002474      -0.00519268
N        7.42817450       6.05761504       2.13157229       0.01260430      -0.00154638      -0.00953801
C        8.35384616       9.46297301       2.76347815      -0.00355941       0.00109017      -0.00142884
C        7.39165888       7.35408080       1.83716342       0.00684327      -0.00113416      -0.00950015
C        8.51604809       7.12561674       3.71350758       0.00355110      -0.00491199      -0.00112045
C        8.13170801       5.88703276       3.30212216       0.01286682       0.00278458      -0.00161225
C        7.72994206      10.24711243       3.89628561       0.00203124      -0.00430000       0.00515625
C        6.86655638       4.98697936       1.31775499       0.01917741      -0.00367528      -0.00993791
H        9.43944326       9.55067164       2.80330785      -0.00409260       0.00543853      -0.00860327
H        8.04584751       9.84331518       1.79019774      -0.01202856       0.00112794       0.00216484
H        6.91958842       7.78167819       0.97285890       0.01216965      -0.00423458      -0.00597819
H        9.08817622       7.42617117       4.57007251      -0.00317989       0.00175810      -0.00020080
H        8.32879672       4.91004205       3.71035158       0.01339386       0.00140961      -0.00719500
H        6.64567520      10.23518586       3.85584841       0.00198215      -0.01392103       0.01725395
H        8.05877412      11.28189377       3.82020915      -0.00798431      -0.00172633       0.00108790
H        8.04981523       9.86061158       4.86474701       0.01607518      -0.00056379       0.00124048
H        6.48823289       5.41489398       0.39429368       0.02570864      -0.00555018      -0.01245064
H        7.64787601       4.26047080       1.09342214       0.01959050      -0.00377162      -0.00384071
H        6.04263962       4.52016425       1.85602670       0.01689926      -0.00165273      -0.01335423
N        5.13116089       7.36423152       7.10470176      -0.00244385       0.00031447       0.00123213
N        4.90443142       9.48036135       7.51092216       0.00363776       0.00142586      -0.00175384
C        4.80973036       5.94257783       6.93483846      -0.00577550       0.00060850       0.00542012
C        4.29232883       8.29647466       7.55780804       0.00075054       0.00334370       0.00065354
C        6.31422366       7.97115723       6.75318374      -0.00110370      -0.00360017      -0.00115862
C        6.16950966       9.30111135       7.01368673       0.00278616      -0.00245562      -0.00285211
C        4.52941976       5.60919042       5.48161433      -0.00062339      -0.00388571       0.00560647
C        4.31442328      10.73714733       7.96052210       0.00792530       0.00316006      -0.00134483
H        5.63949441       5.37046734       7.35366303      -0.00900713      -0.00030346       0.01069613
H        3.93924154       5.74122064       7.55999071      -0.00894192       0.00528486       0.00234586
H        3.29467869       8.14358486       7.92122553       0.00073244       0.00712927       0.00249196
H        7.14752928       7.40343304       6.37378756      -0.00294780      -0.00589685      -0.00084918
H        6.85497488      10.12215673       6.92244913       0.00450548      -0.00477585      -0.00485921
H        3.67139181       6.16865012       5.10632523       0.00284964      -0.00261125      -0.00010959
H        4.30345934       4.54672407       5.39001883      -0.00365512      -0.00349496       0.00871894
H        5.38861904       5.83373469       4.84602726       0.00279681      -0.00874702       0.00854301
H        3.23587399      10.63959799       7.94001356       0.00773078       0.01072180      -0.01010709
H        4.63129614      10.93806151       8.98282389       0.00050423      -0.00273411       0.00183460
H        4.62672089      11.53462210       7.28716973       0.01768859       0.00367792       0.00427751
O       10.15831378       0.91080599      -0.46616421       0.01939356       0.00837278      -0.01682347
O       10.03034743       2.91225052       0.50101528       0.03697729       0.00801218      -0.00783730
O       11.83799247       2.36915229      -0.68015251       0.02324772       0.00317986      -0.02034849
C       10.66037085       2.04472810      -0.21255753       0.02308950       0.00488569      -0.01500976
O        6.86723514       4.31452613       8.89233060      -0.00669816      -0.00036055       0.00758523
C        7.64091981       3.60165934       7.93716884      -0.00103712       0.00431044       0.00860780
H        7.04711442       2.81603311       7.45761085       0.00135523       0.00683302       0.00175916
H        8.52922195       3.14621663       8.38740775      -0.00284243       0.00213748       0.01022547
H        7.96765385       4.30390029       7.16987514       0.00206741       0.00838766       0.01385842
H        6.43321584       3.62687859       9.42586408      -0.00716022      -0.00294487       0.00398582
O        2.40027452       1.84871896       8.70754822      -0.00420442      -0.02877158      -0.00496635
C        2.88512583       3.08930739       8.22151509      -0.01582354      -0.01981458       0.00745273
H        2.87933163       3.86225022       8.99732557      -0.01716223      -0.03018448       0.01731768
H        2.29915559       3.46247927       7.37405409      -0.02537534      -0.01194637       0.01793051
H        3.91738704       2.94406686       7.88463298      -0.01732594      -0.00658671      -0.00210594
H        1.63373131       2.00500437       9.32175507       0.00008942      -0.03271473       0.00599457
O        0.07665834       3.53996614       6.55450294      -0.00713509       0.01102626      -0.02014456
C        0.17942792       2.26276229       5.96667931      -0.01536797       0.00163129      -0.00023256
H        1.14380804       1.85642194       6.28211491      -0.01750726       0.00226910       0.00585616
H        0.13300836       2.31487442       4.87555691      -0.01636318      -0.01519461      -0.00061154
H       -0.60433346       1.57443744       6.30954106      -0.01828739       0.01165076       0.01146190
H       -0.73826923       3.98002610       6.27359288      -0.00923640       0.00766847      -0.01780190
O        8.50189895       9.31363093       8.93192939       0.00649831      -0.00653207       0.00049625
C        9.57594957      10.10566840       8.41807783       0.00181656      -0.00037673       0.00044177
H        9.33026168      10.51752198       7.42804734      -0.00340191       0.00374231       0.00347155
H       10.48608846       9.51094218       8.30530414       0.00331083       0.00343220      -0.00640757
H        9.75627582      10.92296506       9.12046012       0.00243457      -0.00301811       0.00321007
H        8.56059173       8.43860280       8.53874061       0.01103118      -0.00561160      -0.00048529
O        3.58365261       9.27933585       2.80446279      -0.01329311      -0.00648335      -0.00644279
C        4.29947698       9.21455428       4.02839243      -0.00961155      -0.00162306      -0.00852500
H        4.54079086      10.20822589       4.41850652      -0.00937808      -0.00020421      -0.01243650
H        5.22397556       8.63496670       3.92562350      -0.00914523      -0.00092570      -0.00993214
H        3.66730737       8.70894245       4.75877195      -0.00633456      -0.00000685      -0.00466201
H        3.92427740      10.01302387       2.24791394      -0.01682638      -0.00580464      -0.00784641
O        2.90793878       2.65103528       3.93708608      -0.00491920      -0.00770533       0.00945160
C        2.21327115       3.84884138       3.54679788      -0.00598247      -0.00654103       0.01454955
H        2.95681397       4.51916801       3.12063384      -0.00612906      -0.00488986       0.01726428
H        1.74422590       4.32673174       4.41036150      -0.00603043      -0.01062259       0.01666328
H        1.46011476       3.64145646       2.78449060      -0.00572222      -0.00394602       0.01362586
H        2.24733060       2.04905959       4.29312116      -0.00423872      -0.00979200       0.00702202
O        1.27334055      10.20403028       6.48409182       0.00183913       0.00879598       0.01276988
C        1.38631949      10.43956790       5.08482789      -0.00609028       0.00600747       0.01210915
H        0.50130851      10.93497679       4.67993038      -0.00807565       0.00565076       0.01588197
H        1.49553599       9.47453318       4.59379919      -0.00931024       0.00492612       0.01346716
H        2.27502005      11.03363606       4.84171940      -0.00709951       0.00473174       0.00562101
H        1.15275009      11.05620719       6.91890647       0.01117022       0.01046672       0.01316278
O        9.71570535       5.86382817       6.32409910      -0.00007457       0.01544227      -0.00502634
C       10.96230324       6.43131663       5.93528134       0.00268984       0.01076620      -0.00245446
H       11.14263622       6.15350127       4.89636024       0.00253338       0.01088434      -0.00233915
H       11.78330040       6.03711429       6.53955206       0.00005409       0.00684226      -0.00182876
H       10.95511530       7.52591139       6.01665287       0.00727989       0.01061228      -0.00038573
H        9.62056720       6.00271251       7.29498154      -0.00001287       0.01481414      -0.00537488
O        9.70754742       6.12027822       8.99021721      -0.00226852       0.01231635      -0.00397182
C       10.44376569       4.97586638       9.46608041       0.00085793       0.01217052      -0.00980770
H        9.83738432       4.37011280      10.13664941       0.00622368       0.01087725      -0.00633767
H       11.33966128       5.28736501      10.00761743       0.00434250       0.01166004      -0.01571685
H       10.74723813       4.38316373       8.60775098      -0.00487457       0.01308870      -0.01270628
H        9.46939498       6.60530959       9.80502064       0.00983930       0.01672313      -0.00263961
O        5.25863798       1.60293329       5.18749064       0.00209332       0.00458442       0.00561968
C        6.47715153       2.23138025       4.81032461      -0.00083873       0.00547940      -0.00138385
H        6.49614535       3.28825351       5.09477569      -0.00064772       0.00592029      -0.00301886
H        6.68415774       2.15307385       3.73885680      -0.00602219       0.00408214      -0.00227123
H        7.28678986       1.72989413       5.33874331       0.00223969       0.00724830      -0.00445127
H        4.52340084       2.08367332       4.77215222      -0.00098684       0.00167947       0.00768684
O        1.79366847       8.92769139       9.48695219       0.00800416       0.01196694      -0.00033563
C        1.23837457       7.79168545       8.82464058       0.00246534       0.01008928       0.00804936
H        1.23022111       7.93264682       7.74015256       0.00048991       0.00302044       0.00727844
H        0.22232880       7.56034804       9.14324096       0.00216889       0.01635522       0.01125887
H        1.85965420       6.93196284       9.08473956      -0.00028695       0.00943860       0.01184016
H        1.18030812       9.66553635       9.39712961       0.01289582       0.01498581      -0.00792623
O        4.38327261      -0.02424882       1.08579156      -0.01251781      -0.00113028      -0.00046742
C        5.31221552       0.90230656       1.67256417      -0.01402652      -0.00630806       0.00946870
H        4.95726131       1.24559704       2.64480775      -0.02158155      -0.00750655       0.00649491
H        5.48478541       1.74707763       1.00658781      -0.00677161      -0.00528809       0.01392621
H        6.25325041       0.37011802       1.79901579      -0.01441784      -0.00759517       0.01238345
H        3.58995865       0.46658377       0.84294490      -0.00911176       0.00081229      -0.00684910
O        9.72072977       7.15412495       0.22999454       0.01322623       0.01994550      -0.01014325
C       10.21979821       8.49101503       0.23726519       0.01480128       0.01899400       0.00325608
H       11.10304874       8.59461785      -0.39381069       0.01841983       0.02393471       0.00932401
H       10.50453391       8.80269057       1.24319385       0.00941999       0.01011278       0.00732008
H        9.44322551       9.14977867      -0.14266111       0.01762944       0.02308954       0.00470513
H       10.42349869       6.59607133       0.63914780       0.00461833       0.01412598      -0.00228690
O        1.98248130       4.24108120       0.19777748      -0.00860512       0.00072747       0.00935963
C        3.20722185       3.55330257       0.30180885      -0.00451112       0.01054662       0.01406599
H        3.17935818       2.63772059      -0.29869105       0.00709620       0.01387015       0.00861189
H        3.44580156       3.27510322       1.33499491      -0.00926234       0.00380637       0.01339191
H        4.02835249       4.17173075      -0.07495801      -0.00643632       0.01857543       0.02337636
H        1.27537625       3.54216359      -0.09734104       0.00229655      -0.00310232      -0.01381625
O        9.52805671       2.37201569       2.96924630      -0.00727636      -0.01753521      -0.03150049
C       10.26353250       1.17386564       2.94746055       0.00048950      -0.01160759      -0.01594286
H        9.95258852       0.52627008       2.12002553       0.01580694      -0.01902407      -0.01515716
H       10.12495567       0.65598272       3.89927670      -0.00716190      -0.00768478      -0.01509428
H       11.34269866       1.35194459       2.81180895       0.00032318      -0.00466204      -0.00371706
H        9.62846684       2.69285538       2.02154618       0.00759307      -0.01475230      -0.03024179
O        0.53786851       6.08047140       1.53779537      -0.02459291      -0.01922929       0.01169872
C        1.16742728       7.10033847       2.29026587      -0.00108501      -0.01914909      -0.01032546
H        0.41090645       7.54015037       2.94554590       0.01467413       0.00232568      -0.00755689
H        1.57957095       7.89933149       1.66763112       0.00261049      -0.03512943      -0.02730143
H        1.97514344       6.71150305       2.91710216       0.00069058      -0.02324189      -0.01510960
H        1.19620694       5.48659659       1.10013068      -0.03352498      -0.02562093       0.00584985
O        5.84789427       2.00838016       9.99650330      -0.00255847       0.00018451       0.00946939
C        6.84555990       0.97716901       9.92543216      -0.00092563       0.00241249       0.00805591
H        7.09332109       0.73461544       8.88794384      -0.00349436       0.00036498       0.00748006
H        6.50744975       0.06938407      10.43186782       0.00334314       0.00215572       0.01065551
H        7.74668608       1.34543952      10.41702113       0.00000346       0.00647959       0.00462686
H        5.02181286       1.69953372       9.60625017      -0.00333500      -0.00302243       0.01063177
O        4.40451486       7.05481227       1.39271772       0.01194575       0.00000069      -0.00554466
C        4.09001203       7.36313058       0.04163242       0.00470133      -0.01010174      -0.00598657
H        4.95953628       7.78189146      -0.48733156      -0.00067896      -0.00636064      -0.01124305
H        3.27679054       8.08697779      -0.03653711      -0.00088421      -0.01681459      -0.00657462
H        3.78261963       6.44749640      -0.46834636       0.01018671      -0.01502386      -0.00000798
H        4.09034977       7.81032986       1.92600968       0.00226408      -0.00294328      -0.00740338
