144
Lattice="10.886472462621768 0.0 0.0 0.0 10.886472462621768 0.0 0.0 0.0 10.886472462621768" Properties=species:S:1:pos:R:3:forces:R:3 energy=-72497.359375 stress="-0.005963791161775589 -0.0007977590430527925 0.0008172904781531543 -0.0007977590430527925 -0.005549277178943157 -0.0011274722637608647 0.0008172904781531543 -0.0011274722637608647 -0.005201578140258789" pbc="T T T"
N        1.23024825       3.07872201       4.72046820      -0.00071481       0.00861955      -0.00228017
N        1.05750607       5.22436275       4.95158424      -0.00022981      -0.00373447      -0.00139385
C        2.26569137       1.01313970       5.57664223      -0.00257924       0.00078601      -0.00727883
C        2.58818114       1.51907474       6.97845154      -0.00431472      -0.00244302      -0.00639361
C        1.04706811       1.64523066       4.92549184       0.00016463       0.00408638      -0.00876956
C        3.96642060       1.04573792       7.41526131      -0.00506005      -0.00144637      -0.00500694
C        4.53134602       1.69360917       8.66928714      -0.01047435      -0.00613961      -0.00085047
C        0.68669535       4.04777695       5.45148845       0.00126582       0.00194451      -0.01154548
C        1.95321638       3.64771504       3.70478332       0.00853294      -0.00589180      -0.00711501
C        5.99278543       1.30306381       8.83976956      -0.01188338      -0.00631298       0.00487266
C        1.83939300       4.99386987       3.84713862       0.00570399       0.01561506      -0.00308496
C        0.41715537       6.48888051       5.26002428      -0.00110638       0.00017333      -0.00278221
H        3.12830387       1.18041360       4.92253126      -0.00189582       0.00149146      -0.00594199
H        2.10668392      -0.06856255       5.60742388      -0.00326508       0.00114039      -0.01023576
H        1.82090836       1.18908264       7.68990130      -0.00469019      -0.00495695      -0.00847615
H        2.57159544       2.61394508       6.99206843      -0.00591169      -0.00280797      -0.00375652
H        0.16396012       1.52430523       5.55126596      -0.00224285       0.00222490      -0.00798590
H        0.84239903       1.21040520       3.94437691      -0.00040045       0.00541122      -0.00751686
H        3.96807604      -0.04580903       7.53041483      -0.00351388      -0.00150830      -0.00940912
H        4.66468574       1.25984475       6.59661492      -0.00322905       0.00306857      -0.00183946
H        4.45098280       2.78094784       8.57789794      -0.01035240      -0.00616881       0.00298724
H        3.94485351       1.42138860       9.55260055      -0.01416743      -0.00948601      -0.00486934
H        0.07863225       3.90728904       6.32356733      -0.00965685      -0.00023993      -0.00790755
H        2.41876416       3.06189984       2.93606340       0.00315210       0.01271285       0.01175258
H        2.19282811       5.79190749       3.22397878       0.00392469      -0.00469821       0.01297746
H        6.51890784       1.43703553       7.89327663      -0.00519507       0.00367382       0.01042229
H        6.50516019       1.90743031       9.58315892      -0.01783823      -0.01385954       0.01458876
H        6.10298826       0.25156144       9.12237825      -0.01297662      -0.00872393      -0.00535142
H       -0.42752481       6.60622923       4.57911404      -0.00159210       0.00087419      -0.00161311
H        0.08166744       6.48465836       6.29532123      -0.00410651      -0.00072373      -0.00105521
H        1.13174253       7.29686891       5.11466325      -0.00346728       0.00129789       0.00121633
N        8.67378692       3.16155278       6.74836314      -0.00133339       0.00424850       0.00750643
N        9.60728862       2.51169230       8.59763165       0.00160874      -0.00286117       0.00238821
C        6.65293019       4.15593653       5.65575064      -0.00179383       0.00101702       0.00767094
C        6.06634607       4.74033977       6.92623808      -0.00563285      -0.00081454       0.00602937
C        8.16849271       4.04650686       5.68447008      -0.00201938       0.00666568       0.01050991
C        4.57692832       5.03421444       6.82735847      -0.00524524      -0.00275988       0.00376356
C        4.06882562       5.77721665       8.05580755      -0.00683010      -0.00415654       0.00323105
C        9.16684713       3.57574915       7.92256880       0.00202128      -0.00058472       0.00711134
C        8.80578272       1.79570262       6.67854022      -0.00415768       0.00456160       0.00265785
C        2.61678959       6.21395737       7.94834028      -0.00557390      -0.00256315       0.00128799
C        9.38777682       1.38663887       7.84097019      -0.00194057      -0.00001580      -0.00011578
C       10.25130014       2.57325342       9.90953620       0.00638363      -0.00867262      -0.00042671
H        6.19353443       3.18829113       5.43896440       0.00278422      -0.00055850       0.00709909
H        6.41347625       4.81178561       4.81364157      -0.00270079      -0.00034699       0.00739352
H        6.58418757       5.67712001       7.14303598      -0.00804856      -0.00013140       0.00675023
H        6.24939608       4.06170684       7.76842907      -0.00592192      -0.00004777       0.00631955
H        8.60019374       5.03101312       5.87796842      -0.00621950       0.00710946       0.01583021
H        8.59510409       3.70862021       4.73646858       0.00059074       0.01186718       0.01016071
H        4.39578235       5.63567290       5.93287023      -0.00442461      -0.00231424       0.00428548
H        4.01826416       4.10164453       6.68975868      -0.00419597      -0.00276962       0.00258580
H        4.20199260       5.14602821       8.94061275      -0.00891304      -0.00530550       0.00220266
H        4.70021567       6.65803007       8.21267801      -0.00647140      -0.00522715       0.00570821
H        9.24782038       4.60382092       8.25559406       0.00406318      -0.00180494       0.00998569
H        8.47845714       1.24069148       5.81910630      -0.00721797       0.00822018       0.00230499
H        9.64328826       0.40608209       8.19956189      -0.00290054      -0.00089967      -0.00409497
H        1.94918206       5.35336630       7.85393731      -0.00651524      -0.00125752      -0.00022664
H        2.29540842       6.78371286       8.82214332      -0.00552376      -0.00292476       0.00093532
H        2.47596075       6.84624131       7.06956820      -0.00355986      -0.00165990       0.00214434
H       11.27614534       2.21297585       9.82859361       0.00855243       0.00026497      -0.00741992
H       10.25618786       3.60138336      10.28030683      -0.00046655      -0.01205102       0.00858012
H        9.70832946       1.95712057      10.62069783       0.01399024      -0.01828501      -0.00358702
O       10.41320476       5.01306515       0.94155211      -0.02548990      -0.01933825      -0.00139713
O        9.85864285       4.70799746       3.07181438      -0.00174040      -0.00649971       0.00545144
O       10.70063204       3.03352199       1.89420764      -0.00376129      -0.00995922       0.00952743
C       10.32780180       4.25695282       1.96778885      -0.01028145      -0.01219694       0.00461901
O        9.15550047       6.38636010       8.83353786       0.00070082       0.00707549      -0.00802231
C        8.60140959       8.65734056       9.05477942       0.00505863       0.00671816      -0.00858151
C        7.33125614       7.78991565       9.21765787       0.00405079       0.00994909      -0.00404483
C        9.75020942       7.64173212       9.16849970       0.00249842       0.00524336      -0.00667132
C        7.90136803       6.41284342       9.53803821       0.00171223       0.00879440      -0.00680682
H        8.60523068       9.14796561       8.07942875       0.00509874       0.00228529      -0.01044047
H        8.67593333       9.42717721       9.82192914       0.00759224       0.00952782      -0.01205395
H        6.67969077       8.13928052      10.01354693       0.00865273       0.01082526      -0.00113240
H        6.76458549       7.76023846       8.28525248      -0.00009657       0.01232270      -0.00114021
H       10.57756972       7.81947164       8.48022193       0.00416027       0.00388287      -0.00437611
H       10.13839448       7.58416792      10.19309543      -0.00022657       0.00467319      -0.00600612
H        8.09102424       6.29670349      10.60815288       0.00274445       0.00719375      -0.00762928
H        7.29739992       5.58098470       9.18127868      -0.00009057       0.01085442      -0.00706063
O        3.49570728       4.69310676       1.48168375       0.00478682      -0.00041357       0.00097794
C        4.84501875       6.42924762       0.67919846       0.00110513      -0.00223565      -0.00667208
C        5.40972978       5.99551362       2.03035545       0.00098234       0.00556061      -0.00469780
C        3.41148229       5.94538286       0.79602204       0.00249779      -0.00426182      -0.00470264
C        4.73144425       4.64961996       2.21998496       0.00454557       0.00520253       0.00067169
H        4.93482825       7.49645044       0.48987530      -0.00096983      -0.00333509      -0.01198411
H        5.35755304       5.89898359      -0.12625865       0.00250955      -0.00507641      -0.00339425
H        6.49288228       5.91145144       2.03744870       0.00079533       0.00878393      -0.00339480
H        5.12766408       6.70162098       2.81740586      -0.00193363       0.00786613      -0.00840427
H        2.81366674       6.66170861       1.38328056       0.00114173      -0.00289473      -0.00845817
H        2.89105510       5.77546340      -0.14485140       0.00309327      -0.01001338      -0.00357503
H        5.33853824       3.85340819       1.79928568       0.00623941       0.00506106       0.00410941
H        4.52432884       4.40565164       3.26533688       0.00510579       0.00905658       0.00132191
O        5.94310782       7.47675411       5.62454601      -0.00387135      -0.00442010      -0.00105427
C        5.36517096       9.65179049       4.94218476       0.00637923      -0.00135273       0.00153142
C        6.70303437       9.70570321       5.67739946       0.00623214      -0.00899017       0.00132340
C        4.80884126       8.33919326       5.46011894       0.00048474       0.00045505      -0.00112636
C        7.14520034       8.25760011       5.55976797      -0.00073148      -0.01034123      -0.00166106
H        4.71504813      10.50113175       5.13005780       0.01032652       0.00078788       0.00354539
H        5.53488085       9.59589159       3.86632300       0.00578138      -0.00005849       0.00168610
H        7.41580282      10.38644609       5.21709388       0.00952321      -0.01146698       0.00348175
H        6.55815955       9.99630300       6.72250469       0.00726814      -0.01096462       0.00168407
H        4.31391985       8.47455337       6.43263118       0.00021672       0.00103074      -0.00178498
H        4.10283773       7.85715095       4.77660148      -0.00056113       0.00472407      -0.00240105
H        7.62730728       8.08565946       4.59324302      -0.00313650      -0.01098652      -0.00239027
H        7.82131896       7.92374052       6.35072930      -0.00152253      -0.01468962      -0.00335163
O        5.62176815       1.23112244       2.73854473      -0.00906876       0.00556078      -0.00411842
C        7.06087050       2.16045003       1.07299402       0.00727490       0.00026079       0.00785738
C        7.56175575       2.52857139       2.47086865      -0.00138584      -0.00518727       0.01198921
C        5.71531996       1.45540650       1.32138116       0.00349104       0.00449339      -0.00284579
C        6.90697606       1.46084227       3.31487594      -0.01197261      -0.00383508       0.00437785
H        6.96687108       3.03707239       0.43026322       0.01496989       0.00205913       0.00989279
H        7.75961509       1.47405450       0.59057471       0.00847970      -0.00018734       0.01116350
H        8.64918535       2.53140208       2.53076140      -0.00231403      -0.01021835       0.01921981
H        7.21311016       3.52163572       2.75655348       0.00110449      -0.00465506       0.01161444
H        4.84868178       2.05279707       1.02839743       0.00801280       0.00678107      -0.00980826
H        5.65484940       0.49731976       0.79566211       0.00524019       0.00470650      -0.00260028
H        7.50831501       0.54403634       3.29571692      -0.01726139      -0.00685337       0.00451676
H        6.74280775       1.73626340       4.35553538      -0.01708926      -0.00678794       0.00398293
O        7.63252235       8.04670054       1.37332844       0.00849624      -0.00023434      -0.00637652
C        9.16878853       9.75626443       1.75087302       0.00247997       0.00246778       0.00000307
C        9.62887652       8.55531373       2.58394468       0.00153142       0.00378792       0.00141203
C        7.69357235       9.44924933       1.56022242       0.00437728      -0.00071308      -0.00495145
C        8.66006527       7.43559806       2.18096334       0.00735700       0.00156510      -0.00424086
H        9.37589911      10.71717036       2.22101962      -0.00127135       0.00264485       0.00051983
H        9.67190419       9.75316426       0.78239848       0.00551780       0.00315943       0.00190112
H       10.65939923       8.28170553       2.37504870       0.00344443       0.00798753       0.00748339
H        9.55732758       8.78540644       3.65048405      -0.00540459       0.00283399       0.00074866
H        7.10632875       9.74176062       2.44086920       0.00117238      -0.00323797      -0.00664166
H        7.24486362       9.92415720       0.68451017       0.00600959      -0.00097017      -0.00547630
H        9.14380758       6.65856592       1.58932698       0.01068214       0.00358379      -0.00389728
H        8.20508426       6.94622309       3.04751089       0.00602353      -0.00137885      -0.00709730
O        1.31430480      10.40906207       2.18581040       0.00680542      -0.00265650       0.00660373
C        3.48897469       9.59121786       1.91900031       0.00615227      -0.00004361      -0.00323585
C        2.88729502       9.75711345       0.52476361       0.00256926       0.00859806       0.00006372
C        2.22875485       9.46914913       2.74875747       0.00883442      -0.00437012      -0.00077640
C        1.67895725      10.64950038       0.81124354       0.00626650       0.00913972       0.00919193
H        4.14997204       8.73161868       2.01819453       0.00570189      -0.00069998      -0.01035042
H        4.03869138      10.48530564       2.21479914       0.00726828      -0.00235805       0.00020095
H        3.57162800      10.19901942      -0.20021401       0.00108919       0.01083237       0.00071616
H        2.56510399       8.78588944       0.13751534      -0.00110944       0.01189047      -0.00402594
H        1.81568229       8.45030476       2.68078670       0.00923878      -0.00374547      -0.00468206
H        2.36405290       9.71761413       3.80232671       0.01160585      -0.00995992      -0.00031081
H        1.91205765      11.71380850       0.70850200       0.00976180       0.00888491       0.01873107
H        0.82343727      10.41908346       0.16858468       0.00477821       0.01855548       0.00880057
