139
Lattice="10.735666005856505 0.0 0.0 0.0 10.735666005856505 0.0 0.0 0.0 10.735666005856505" Properties=species:S:1:pos:R:3:forces:R:3 energy=-104834.4140625 stress="-0.006744845770299435 0.0007837636512704194 -0.00021904374443693087 0.0007837636512704194 -0.006461650598794222 0.0013354866532608867 -0.00021904374443693087 0.0013354866532608867 -0.0036439166869968176" pbc="T T T"
N        7.43369334       2.78552740       2.37662779      -0.00542995      -0.00301689       0.00064701
N        7.58340106       4.50500736       3.68365097      -0.00304220      -0.00634909       0.00391978
C        5.96231213       0.98230018       1.52705778      -0.00505690      -0.00010812      -0.00434007
C        4.62168744       1.66988864       1.73911278      -0.00444579      -0.00057197      -0.00208709
C        7.11197159       1.93289807       1.23029902      -0.00503452       0.00017397      -0.00112933
C        3.47418718       0.69592767       1.98808130      -0.00422177      -0.00083351      -0.00535521
C        2.14102101       1.38433681       2.26845017      -0.00289291      -0.00112945      -0.00127043
C        7.19841680       4.09811074       2.46664181      -0.00405523      -0.00333631       0.00365114
C        7.98579643       2.35424389       3.55797307      -0.00534269      -0.00597924      -0.00086641
C        0.96246225       0.42063886       2.30149945      -0.00322899       0.00010499      -0.00245309
C        8.07470826       3.43195256       4.38270378      -0.00376798      -0.00814575       0.00115907
C        7.43435859       5.83349636       4.25748982       0.00051038      -0.00749248       0.00585520
H        6.21245523       0.38510811       2.40603554      -0.00532247      -0.00266485      -0.00651097
H        5.90567197       0.28838837       0.68380359      -0.00526405       0.00284541      -0.00626060
H        4.38706725       2.29362302       0.86677521      -0.00432752       0.00184759      -0.00000146
H        4.69670466       2.34490055       2.59453493      -0.00457209      -0.00340642      -0.00038984
H        6.86371782       2.58818019       0.40041207      -0.00390764       0.00203705       0.00038382
H        8.01702217       1.38068856       0.96613926      -0.00536078       0.00065175      -0.00172616
H        3.36901026       0.02897080       1.12259765      -0.00544616       0.00309752      -0.00770578
H        3.72556130       0.05311271       2.83998916      -0.00381806      -0.00430453      -0.00846130
H        2.19757258       1.91407371       3.22546616      -0.00089774      -0.00391646      -0.00036907
H        1.96695779       2.14685801       1.49856201      -0.00330032       0.00088727       0.00134432
H        6.77140292       4.70773872       1.69130469      -0.00438841      -0.00145843       0.00590883
H        8.30923734       1.34634140       3.73137526      -0.00661162      -0.00632853      -0.00429503
H        8.52561051       3.54734169       5.37952681      -0.00224036      -0.00899990      -0.00059944
H        1.14915962      -0.39571845       3.00125183      -0.00306451      -0.00179408      -0.00530703
H        0.05452243       0.92277047       2.64005668      -0.00198986      -0.00015648       0.00027179
H        0.76900810      -0.01853355       1.31959473      -0.00483866       0.00322060      -0.00304075
H        8.09216514       6.54076032       3.76199479      -0.00013942      -0.00790864       0.00492884
H        6.39865800       6.16244827       4.18692315       0.00098303      -0.00601421       0.00940448
H        7.72693147       5.76957656       5.30218060       0.00347684      -0.00911596       0.00451684
N        4.16416985       3.70116992       7.38853319      -0.00452930       0.00269482       0.00222051
N        2.37658469       3.80448201       8.58218909      -0.00116098       0.00780824       0.00549567
C        4.58380408       3.80057622       4.98374798      -0.00761618      -0.00232917       0.00188816
C        3.77690602       4.99493413       4.47587744      -0.00373149      -0.00080448       0.00153905
C        5.17099882       3.97833618       6.37449037      -0.00571609      -0.00125822       0.00058509
C        3.66239925       4.93810239       2.96178167      -0.00837641      -0.00089139       0.00252576
C        3.08871802       6.15927533       2.26607708       0.00214975       0.00526196       0.00576943
C        3.16326054       4.49517880       7.75968619      -0.00222617       0.00488925       0.00277984
C        4.00171700       2.47114654       7.96734263      -0.00554202       0.00449830       0.00470197
C        2.99653204       5.89212500       0.77183262       0.00110295       0.01282247       0.00517216
C        2.87386094       2.53451266       8.72179301      -0.00331012       0.00752342       0.00659744
C        1.11003418       4.27706915       9.10728382      -0.00012088       0.00974405       0.00501874
H        3.96274223       2.90034476       4.96849794      -0.01041427       0.00022414       0.00433515
H        5.41631175       3.61607533       4.30561019      -0.00881545      -0.00587858       0.00155075
H        4.25994746       5.92908802       4.78822038       0.00033954      -0.00250947      -0.00112701
H        2.77892531       4.98548127       4.92577497      -0.00220761       0.00357184       0.00427391
H        5.52796651       4.99586069       6.52421213      -0.00368042      -0.00207368      -0.00162764
H        5.98778989       3.28197727       6.56343497      -0.00747341      -0.00245830       0.00073953
H        4.65849870       4.75344053       2.54211109      -0.01166971      -0.01015462      -0.00036851
H        3.07048758       4.06086283       2.68485945      -0.01730993       0.00509831       0.00407465
H        2.10789009       6.39856690       2.67896848       0.00437140       0.01247583       0.00588374
H        3.72050280       7.03371182       2.46162298       0.00979023      -0.00127281       0.00960977
H        2.99844417       5.52419210       7.48985403      -0.00071678       0.00425619       0.00171800
H        4.74094280       1.71387911       7.81030655      -0.00736455       0.00321738       0.00437764
H        2.34934489       1.80294588       9.30536828      -0.00316323       0.00927978       0.00815851
H        2.40825751       4.99252974       0.58968653      -0.00595844       0.01867142       0.00096121
H        2.55144361       6.70757783       0.19940899       0.00761716       0.01859270       0.00906787
H        3.98597188       5.69309289       0.35573998      -0.00068839       0.00725663       0.00450017
H        0.81305436       3.59608621       9.90055995       0.00042459       0.01249444       0.00705968
H        1.22908542       5.29329931       9.46505287       0.00030777       0.01047167       0.00185758
H        0.36448179       4.24426023       8.31480018      -0.00011009       0.00739444       0.00567722
O       12.02241507       2.66017666       5.78426875       0.01463675       0.00747073       0.00564897
O        9.74145570       1.24167913       5.64490424       0.01417303       0.01120019      -0.00656652
O        9.71387542       3.75803303       6.63080450       0.01139200       0.01059318      -0.00971529
O       10.83141619       1.78665736       8.03396075      -0.00000468       0.01053441      -0.00122094
Cr      10.59046308       2.34460259       6.51333318       0.01035662       0.00983664      -0.00231030
O        5.08778080       7.08772971       7.20661551       0.00366259       0.00415587       0.00209998
N        4.69259504       8.78165031       8.68338926       0.00798680       0.00310990      -0.00501075
C        5.05570047       8.01314281       9.84444057       0.01301900       0.00743343      -0.00356634
C        4.34269444      10.16421214       8.87573233       0.00595324       0.00170304      -0.01059097
C        4.74231554       8.24094024       7.45482232       0.00722115      -0.01268065      -0.00404364
H        4.41333360       8.30035627      10.67724088       0.01535620       0.01161484      -0.00313051
H        6.10270120       8.17464752      10.12272309       0.01317543       0.01047721      -0.00763516
H        4.89670066       6.96630897       9.61966595       0.01335456       0.00721073       0.00248311
H        3.55391195      10.25035528       9.62587483       0.00702620       0.00328978      -0.01069194
H        3.97054194      10.55954299       7.93508967       0.00478431      -0.00278063      -0.01182392
H        5.20501300      10.75552366       9.19574308       0.00534248       0.00360523      -0.01419653
H        4.44748517       8.95081687       6.67431988      -0.00078203      -0.00646153      -0.00510103
O        6.91783711       2.31564805       8.68112479      -0.00233090      -0.00347269      -0.00599495
N        7.73120754       4.28919830       9.44619069      -0.00420454      -0.00397082      -0.00298832
C        6.42742016       4.90311363       9.51795313      -0.00474815      -0.00648531       0.00051354
C        8.87379660       5.15729141       9.62005821      -0.00529602      -0.00388538      -0.00058629
C        7.87421697       3.03810510       8.94919789      -0.00219476      -0.00174254      -0.00555319
H        6.24628721       5.57663616       8.67473348      -0.00763916      -0.00627646       0.00193641
H        6.35758509       5.49809811      10.43163725      -0.00363628      -0.00784801       0.00122032
H        5.66602147       4.12703754       9.52486760      -0.00303619      -0.00766173       0.00154836
H        9.21946569       5.56795433       8.66801292      -0.00297505      -0.00419885       0.00057355
H        9.68768165       4.60449841      10.07952529      -0.00635104      -0.00337501       0.00170845
H        8.59627895       5.97234814      10.28830621      -0.00707711      -0.00411284      -0.00174598
H        8.92187521       2.71182524       8.84603179      -0.00280845       0.00035504      -0.00882662
O        5.84745939      10.02920867       5.31310547       0.00941987      -0.01563197      -0.02062917
N        6.81839135       9.02436073       3.49939392       0.00546627      -0.00049955      -0.00240865
C        8.16762897       9.46676956       3.81764196       0.00759307      -0.00106946       0.00224649
C        6.59175041       8.41853532       2.20663344       0.00369995       0.00026708       0.00371031
C        5.78066629       9.35789181       4.29471727       0.01482105       0.02486837       0.03636861
H        8.60278584       9.94984049       2.93959396       0.00688723      -0.00400415      -0.00069952
H        8.80848504       8.62608365       4.09189296       0.00488158      -0.00538990      -0.00233978
H        8.13222942      10.15887184       4.65647402       0.01161771      -0.00425071      -0.00059572
H        7.07677902       9.00703219       1.42722786       0.00282405      -0.00255495       0.00336918
H        5.52100557       8.36734640       2.01754857       0.00220615       0.00356564       0.00580183
H        7.00276888       7.40720251       2.14848924      -0.00087513       0.00032783       0.00631683
H        4.82446909       8.95129947       3.91796601       0.00372827       0.00541990       0.00402759
O        8.87975927       9.22428947      10.76869510      -0.00351852      -0.00723702      -0.00807488
N        8.64063186       9.03485275       8.49574330       0.00336874       0.00025445      -0.00634858
C        7.87461845      10.25268473       8.31871189       0.00918894       0.00374618      -0.00529974
C        8.99265562       8.31953449       7.28624097       0.00230619      -0.00033722      -0.00481899
C        9.13132082       8.68511831       9.69033411      -0.00385224      -0.00178346      -0.00095630
H        6.96946530      10.04485459       7.74831024       0.01182702       0.00908527      -0.01095447
H        8.46412893      10.98314170       7.75891491       0.01528093       0.00251156      -0.00055763
H        7.62940105      10.66250388       9.29177839       0.00644846       0.00175995      -0.00645426
H        8.09824437       7.86937707       6.84642759       0.00140500       0.00576022      -0.00750614
H        9.72434508       7.54366206       7.49819349      -0.00307553      -0.00451228      -0.00349283
H        9.42081890       9.01037316       6.55842793       0.00860202      -0.00261125      -0.00262061
H        9.81883195       7.82579769       9.61633384      -0.00632012      -0.00703740      -0.00439946
O        1.68492850       7.07098529       7.97398264       0.00374013       0.00905985       0.00599205
N        1.56797398       9.09338730       6.93201562      -0.00277066       0.00536391      -0.00196762
C        1.12423218       9.80172204       8.11199483      -0.00137852       0.00956513      -0.00493392
C        1.65198888       9.85377507       5.70096401      -0.00562087       0.00069097      -0.00476565
C        1.79228163       7.77806906       6.97080930       0.00030588       0.00725687       0.00039482
H        0.09563702      10.13662425       8.00502360       0.00042987       0.01301602      -0.00699966
H        1.70505885      10.71067783       8.23111229       0.00193372       0.00725234      -0.00565103
H        1.23307085       9.14731392       8.97314944      -0.00527615       0.01114321      -0.00339518
H        0.68431033      10.30390356       5.46211806      -0.00576544       0.00019366      -0.00369652
H        1.96125637       9.18684425       4.89801618      -0.00821371      -0.00213075      -0.00295928
H        2.36971414      10.67297997       5.80457233      -0.00560182       0.00064856      -0.00948501
H        2.11577234       7.37296338       6.00080056      -0.00202587       0.00376227       0.00343102
O       10.51613686       7.12851040       4.86403721       0.00184305      -0.00525427      -0.00482804
N       10.54157086       5.79883784       3.01812431       0.00197728      -0.01259517       0.00569032
C       10.32889071       6.89956394       2.09902353      -0.00142260      -0.01809935      -0.00015552
C       10.70787065       4.47309939       2.46557817       0.00526587      -0.01423046       0.01304182
C       10.64256794       6.02194759       4.35103238       0.00201663       0.00113529       0.00505459
H        9.31452478       6.90219178       1.68943579      -0.00207481      -0.02247934       0.00223298
H       11.02750644       6.82930596       1.26281847      -0.00335771      -0.02269899      -0.00097685
H       10.48839620       7.83834688       2.62216254      -0.00171970      -0.01537439      -0.00652775
H        9.81004527       4.16402956       1.92282745       0.00738627      -0.01836781       0.01293051
H       10.90833110       3.76166491       3.26631987       0.00412041      -0.00943989       0.01730636
H       11.54419371       4.46037494       1.76418709       0.00691706      -0.01667318       0.01589073
H       10.82586967       5.10720041       4.93883975       0.00384259      -0.00048071       0.00942180
