146
Lattice="11.013242439496763 0.0 0.0 0.0 11.013242439496763 0.0 0.0 0.0 11.013242439496763" Properties=species:S:1:pos:R:3:forces:R:3 energy=-96921.578125 stress="-0.005843144841492176 -0.0007660578994546086 -0.0002697624731808901 -0.0007660578994546086 -0.0070379627868533134 0.000693843379849568 -0.0002697624731808901 0.000693843379849568 -0.0034599730279296637" pbc="T T T"
N        5.13259652       1.57647782       4.29988958      -0.00316513      -0.00060906      -0.00141539
N        7.21132795       1.66457742       3.71197815      -0.00361741      -0.00230132       0.00024979
C        3.09559465       2.89701160       4.77191432      -0.00346997      -0.00090025      -0.00523460
C        3.52080612       4.12269327       3.98178309       0.00015792      -0.00102088      -0.00244382
C        3.66994170       1.59485232       4.23891232      -0.00282806      -0.00068256      -0.00339068
C        2.89367624       5.40972370       4.49385225      -0.00290516      -0.00203431      -0.00526237
C        3.29973034       6.64074789       3.69735785       0.00169498      -0.00100682      -0.00040275
C        5.95863322       1.75837828       3.26656770      -0.00263539      -0.00246683      -0.00034022
C        5.87836195       1.36000624       5.43661265      -0.00469635       0.00091259      -0.00073612
C        2.69753862       7.92527174       4.24015255       0.00117370      -0.00257975       0.00123227
C        7.18691938       1.40711512       5.06271966      -0.00441307      -0.00010221       0.00034583
C        8.39525624       1.80583227       2.87152348      -0.00350052      -0.00461444       0.00081962
H        3.37951267       2.99819385       5.82170401      -0.00763114      -0.00188013      -0.00451827
H        2.00685969       2.79119824       4.75963214      -0.00313455      -0.00023890      -0.00934495
H        3.26170123       3.99922002       2.92628846       0.00600229      -0.00045482      -0.00357682
H        4.61043069       4.21333226       4.02732088      -0.00047526      -0.00039300       0.00364914
H        3.39402572       1.44198481       3.19464654      -0.00096498      -0.00119280      -0.00344706
H        3.30497986       0.74882026       4.81854542      -0.00360921      -0.00000283      -0.00369522
H        1.80841491       5.30828630       4.42688225      -0.00219116      -0.00208291      -0.01161679
H        3.13969416       5.54810975       5.55509400      -0.00919644      -0.00341394      -0.00386345
H        4.39282102       6.72561398       3.68039598       0.00160885      -0.00256443       0.00439350
H        2.98584203       6.49896090       2.66002656       0.00602095       0.00223944      -0.00172168
H        5.69039200       1.90781649       2.22972934      -0.00212631      -0.00252235      -0.00023986
H        5.43250881       1.19877630       6.40602038      -0.00486889       0.00247668      -0.00105911
H        8.08074224       1.21930850       5.63710634      -0.00528763       0.00087395       0.00105523
H        3.02843460       8.12636135       5.25870159      -0.00181357      -0.00588893       0.00248379
H        2.97150623       8.78307172       3.62917672       0.00289354      -0.00105648       0.00479382
H        1.60621386       7.87011489       4.25938199       0.00140038      -0.00219191      -0.00198078
H        8.97083172       0.88412094       2.90667695      -0.00367682      -0.00410482       0.00328431
H        8.09956009       2.00452820       1.84705674      -0.00315034      -0.00711846       0.00052249
H        9.00210942       2.63805495       3.22734335      -0.00369383      -0.00393629      -0.00162679
N        9.81973453       4.95768240       6.99318132       0.00051528       0.00282075      -0.00319484
N        8.68150552       4.32100428       8.71158223       0.00328138       0.00084518      -0.00260815
C        9.74677563       6.31916245       4.93606378      -0.00066536       0.00285023      -0.00181496
C        8.73664251       7.37437191       5.36361274      -0.00233870       0.00061187      -0.00204545
C       10.59396558       5.78750741       6.07442784      -0.00045770       0.00411868      -0.00201516
C        7.80072602       7.76127684       4.23130304      -0.00282145      -0.00196616      -0.00172621
C        6.71027077       8.73604218       4.65003682      -0.00071189       0.00043869      -0.00363529
C        9.39131604       5.32252872       8.19957329       0.00434984       0.00038528      -0.00132048
C        9.36331348       3.68649189       6.73076486      -0.00322165       0.00530088      -0.00569692
C        5.96268779       9.30254905       3.45105294      -0.00074856      -0.00207697      -0.00397635
C        8.64998933       3.28538303       7.81575947      -0.00174050       0.00376374      -0.00552252
C        8.03297188       4.32533248      10.01185528       0.00713977      -0.00158929      -0.00132829
H        9.24104980       5.48119066       4.44249277       0.00118922       0.00251020      -0.00220324
H       10.41410525       6.74260057       4.18696261      -0.00141379       0.00425237      -0.00139651
H        9.27643425       8.27091031       5.68142660      -0.00434971       0.00147808      -0.00261860
H        8.16097266       7.03677273       6.23009527      -0.00136322      -0.00020263      -0.00207803
H       11.02897564       6.60173188       6.65492543      -0.00219117       0.00431114      -0.00162967
H       11.40914485       5.16607907       5.70626803       0.00056675       0.00593910      -0.00204737
H        8.40200436       8.21507749       3.44460174      -0.00331989      -0.00483489      -0.00339597
H        7.34407346       6.86098257       3.79723585      -0.00409703      -0.00227624       0.00137739
H        6.01121406       8.23901513       5.33369655      -0.00069845       0.00325640      -0.00178671
H        7.16073590       9.55026875       5.22472418       0.00080657       0.00089860      -0.00632265
H        9.58685597       6.25793473       8.68931234       0.00637635      -0.00131837       0.00010235
H        9.63503778       3.16716836       5.83093403      -0.00710938       0.00768999      -0.00773961
H        8.13021521       2.37142504       8.04947541      -0.00287734       0.00452408      -0.00730030
H        5.55270762       8.50632348       2.82574457      -0.00228895      -0.00291738      -0.00098611
H        5.13102317       9.94050644       3.75325078       0.00080349       0.00003617      -0.00531442
H        6.63652889       9.89115222       2.82361072      -0.00046675      -0.00496666      -0.00593640
H        8.44762697       3.51024554      10.61269736       0.01059714      -0.00006589      -0.00240245
H        8.23221827       5.28747062      10.47163566       0.00502563      -0.00126953      -0.00184064
H        6.96409342       4.19085067       9.86705352       0.00754800      -0.00471789       0.00140827
O        8.61731351       0.29896123      -0.49144075       0.00170326       0.00538886      -0.01012132
O        9.74220628       2.07398408       0.29606915       0.00188094      -0.00462103       0.01092458
O       10.82621834       0.22545579      -0.40725957      -0.00113845      -0.00419915       0.00741392
C        9.80854357       0.91525480      -0.18139193       0.00190234      -0.00320417       0.00297239
O        0.20255770       1.77254405       8.14369597      -0.00325084       0.00940090       0.01212955
O        2.18091237       1.08406354       7.33397010      -0.01855296       0.00713181      -0.00878650
C        1.87680119       3.35252741       8.13130232       0.00129822       0.00389177      -0.00829467
C        1.47439241       1.94430947       7.82714811      -0.00322071      -0.00036377      -0.00519168
H        1.19979722       4.00980043       7.58644771       0.00907800       0.00311933      -0.01755140
H        1.71229420       3.56678710       9.18841358      -0.00287198       0.01143673      -0.01136255
H        2.90553110       3.56602067       7.86842934       0.00350757      -0.00503802      -0.00505178
H       -0.13868020       0.88532269       7.90953929      -0.00962714       0.01168653       0.00921515
O        3.89228909       7.84712234       7.68213207      -0.00027882       0.00026447       0.00411069
O        1.89294194       8.84853886       7.59339281       0.01961112      -0.02833211       0.02295262
C        2.06463404       6.67201335       8.60355240       0.00277683      -0.00486463       0.00323135
C        2.56205294       7.89890323       7.93167266      -0.01967818       0.03458452      -0.00648919
H        2.05896442       5.86466723       7.87282570       0.00286486       0.00036131      -0.00107662
H        2.71808199       6.35044057       9.41123993       0.00375074      -0.00458870      -0.00055188
H        1.06142805       6.84815144       8.97826799       0.00367801      -0.00439899       0.00291436
H        4.13841717       8.68489936       7.26017186      -0.00365018       0.00524509       0.00480261
O        0.37128120       4.58320669       2.20072900       0.00072160      -0.00376093      -0.00475734
O        0.49029610       4.67069256      -0.02994853       0.00027004      -0.00073802      -0.00459564
C        1.44506149       2.78913249       1.09726453       0.00240979      -0.00057983      -0.00612453
C        0.71272615       4.07843633       1.02501179       0.00114197      -0.00285187      -0.00363481
H        2.50324697       3.02229880       0.96309618       0.00205022       0.00183087      -0.00209057
H        1.28896814       2.32108519       2.06664887       0.00034896      -0.00344807      -0.00818004
H        1.09962836       2.11839498       0.31296885       0.00645643       0.00059845      -0.00834762
H       -0.00888305       5.50394294       2.06919649       0.00170622      -0.00363305      -0.00340343
O        0.99014332      10.92281790       4.45864762       0.00151578      -0.00044706       0.00645268
O       -0.88950435      10.05862584       3.60714762      -0.00339973      -0.00096107       0.01448160
C        1.05491754      10.20004689       2.19977240      -0.00643095      -0.00197500       0.00838119
C        0.27281687      10.36878474       3.45438332       0.00097239      -0.00009756       0.00982880
H        2.07351031      10.56574897       2.30220722      -0.00523552      -0.00484794       0.00601772
H        1.07974179       9.13792518       1.95083840      -0.00984396      -0.00132686       0.00714972
H        0.55734093      10.69983372       1.35614743      -0.00633959       0.00039768       0.01010942
H        0.43708193      10.93259629       5.25717825       0.00605208       0.00187728       0.00895807
O        3.76497440      10.42533939       9.15722958      -0.01439494      -0.00051931       0.01931980
O        3.25991646       8.75604302      10.56140325       0.00287801      -0.01607892       0.00799735
C        5.42842578       9.79342938      10.68201994      -0.00623709       0.00511366       0.01044589
C        4.05414207       9.58952821      10.14605767      -0.00303054      -0.00091255       0.01068425
H        6.14250261       9.97672913       9.88281300      -0.00567335      -0.00891472       0.00748539
H        5.43483681      10.68910645      11.30543034      -0.00480921       0.01606593      -0.00664155
H        5.73921566       8.94957603      11.28288514      -0.00683891       0.01570116       0.02410723
H        2.85209611      10.30387739       8.83044960      -0.01309520      -0.01173171       0.01634373
O        6.42713137       1.75908948      10.95953485       0.00200236       0.00354699      -0.00999916
O        6.33467295       1.46468424       8.73410356      -0.00582182      -0.00048950      -0.00813210
C        4.38507630       2.22205065       9.86179785      -0.00179708       0.00008968      -0.00260966
C        5.82139701       1.77782290       9.85250764      -0.00179577       0.00103199      -0.00758056
H        3.84273595       1.71271714      10.65855220       0.00289225       0.00444070       0.00255020
H        4.32620363       3.29245167      10.05984648      -0.00087219       0.00068218      -0.00852377
H        3.91706359       2.00223964       8.91180755      -0.00655632      -0.00544780       0.00137207
H        7.87590566       0.93011621      10.70546819       0.00235255       0.00543388      -0.00996980
O        7.48779097      10.27317846       8.10032555      -0.00277919       0.00042057       0.00001616
O        9.28473792      11.25422282       7.19684518      -0.00343964       0.00806856       0.00816637
C        9.57424834       9.17437823       8.31723005      -0.00125974       0.00317466      -0.00285926
C        8.77294156      10.31992223       7.80920442      -0.00253128       0.00349307       0.00297403
H       10.04212175       9.54612855       9.24005241       0.00321607       0.00110199      -0.00473240
H        8.94006607       8.32193517       8.54315083      -0.00002815       0.00294504      -0.00186107
H       10.37881589       8.91968459       7.63224424      -0.00447188       0.00449682      -0.00647400
H        7.09846015      11.20143774       8.26552532      -0.00411995      -0.00033590      -0.00153112
O        6.47594850       6.61410085       8.08532515       0.00281259       0.00306416       0.00894278
O        4.90396607       5.04573172       8.38932035       0.00615871       0.00620763       0.01097694
C        6.08484188       5.11654418       6.29983172      -0.00794233       0.00520240       0.00838387
C        5.74257133       5.55246572       7.68654222      -0.00363427       0.00146580       0.01243725
H        5.66271304       5.83542407       5.59409356      -0.01164801       0.00596961       0.01123606
H        7.16043434       5.09794271       6.14110352      -0.00897202       0.00527853       0.00245779
H        5.66402393       4.13263238       6.11756512      -0.00910623       0.00645810       0.01019120
H        6.09143444       6.92044057       8.92177341       0.00936222      -0.00090081       0.01167840
O        4.91576806       6.95473303       0.55447778       0.02020425      -0.01219118      -0.01936978
O        3.54183708       5.18532015       0.52201218       0.00619173      -0.00499874       0.00890797
C        5.79289105       4.92392446       1.32920858       0.01156962      -0.00936902      -0.00013670
C        4.62783971       5.66577448       0.75022590       0.01974249      -0.00618939      -0.00101206
H        6.73071234       5.42015076       1.09759781       0.01275264      -0.00670300       0.01099063
H        5.67831179       4.93073476       2.41428492       0.00283988      -0.01987461      -0.00156948
H        5.80481729       3.89167047       0.98334252       0.01614650      -0.00646853      -0.00799347
H        4.12060289       7.47581185       0.24938317       0.01913112      -0.01202553      -0.01236353
O       10.12103309       6.77429478      -0.26702122       0.00287360       0.00017577      -0.00063898
O       10.36705326       6.98589360       1.93425097       0.00617272      -0.00119142      -0.00166595
C        8.81702179       8.42596737       0.82778849       0.01168561       0.00561374       0.00090043
C        9.84308869       7.35156819       0.88460041       0.00669643       0.00158976       0.00006330
H        8.69666677       8.84326475      -0.16374562       0.02118363       0.01446536       0.00402406
H        7.86728141       7.99137357       1.15651828       0.00757526       0.00594020      -0.01190353
H        9.07673827       9.21406257       1.53022703       0.00847784      -0.00225310       0.01000704
H       10.73566108       5.95670845      -0.10681178       0.00053732      -0.00055189      -0.00144395
