146
Lattice="12.334715876843948 0.0 0.0 0.0 12.334715876843948 0.0 0.0 0.0 12.334715876843948" Properties=species:S:1:pos:R:3:forces:R:3 energy=-1736952.5 stress="0.0003191723662894219 0.0008819717913866043 -0.0008389644208364189 0.0008819717913866043 0.0006855098181404173 0.0007607766019646078 -0.0008389644208364189 0.0007607766019646078 0.0016480948543176055" pbc="T T T"
Ac       9.82094260      10.97003897       5.54928539      -0.00131201      -0.00106758       0.01678630
Ac       4.47232681      11.80404128       7.69865037       0.00608744       0.02478248       0.01554250
O        5.21362439       9.92568501       3.14231052      -0.01786789      -0.00639522       0.03406143
O        5.70858288       8.42203952       5.45405843      -0.00945379       0.00609425       0.01722283
O        3.21033539       8.84163260       4.36564420      -0.02857292       0.00878662       0.02851638
O        4.50433812      10.88946471       5.52470705       0.00583201       0.01731586       0.01274028
Cr       4.60807490       9.52094290       4.54173901       0.03008598       0.03323555       0.00188577
Cr       6.64795609       8.83498863       6.82422733      -0.00381461       0.01817071       0.00997192
O        5.74300979       9.77338664       7.85625540       0.01562171       0.03214113       0.01344803
O        7.13451185       7.51582494       7.52386489       0.00757331       0.01528358       0.01706693
O        7.96931250       9.74202184       6.30305654      -0.00514112       0.00802557       0.00157296
O        5.91611024       6.62154080      -0.09748374      -0.00394571       0.01038006      -0.00230479
O        4.41807204       4.86053857       1.42513763       0.00855142       0.00035721       0.00493613
O        3.77870202       7.53963271       1.11301262       0.00899959       0.00570822       0.02332467
O        5.91055938       6.88625075       2.52597501       0.02334225      -0.00320339      -0.00344419
Cr       5.00565910       6.52176569       1.23626903       0.01150295       0.00139308       0.00580345
Cr       3.04984695       3.73446397       1.37730027       0.01052988      -0.00332534      -0.01154096
O        2.65853727       3.29302819       2.88876646       0.01076186      -0.01113659      -0.01457691
O        1.77675131       4.42694589       0.69400129       0.01350641       0.00692713      -0.00954330
O        3.50874165       2.44785186       0.52341964       0.00123912      -0.00232506      -0.01662600
O       -1.11615681      10.33658338       3.84461947      -0.00282982      -0.03758906       0.01501542
O        1.34009423      11.18900350       4.68309648      -0.01236865      -0.00077306       0.00786851
O        0.42048611      11.82677651       2.19952222      -0.01508096      -0.02459806       0.02112579
O        1.05780764       9.34344390       2.61099245       0.02587616      -0.01371443      -0.00073427
Cr       0.45101329      10.64267399       3.24616757      -0.01650503       0.00859779       0.01013255
Cr       1.13680288      10.92075253       6.38826381      -0.01001650       0.01632959       0.00964773
O        1.46781537       9.42717809       6.75779004      -0.03461315       0.00456470       0.02357763
O        2.15619458      11.95730588       7.22514646       0.00331310      -0.00181371       0.00954895
O       -0.50962967      11.24976515       6.67029809      -0.00462702       0.02833980       0.01097554
O        3.59607434      11.49374844      10.09706149      -0.00012543      -0.00484322       0.00875146
C        4.35007115      10.10727442      11.84989996      -0.00268021       0.00171113       0.01686156
C        2.83285729       9.87960302      11.64772762      -0.00123817      -0.00187159       0.01123440
C        4.62584880      11.42351010      11.13413700       0.00125389      -0.00399482       0.00774229
C        2.38587188      11.05905854      10.79103586      -0.00068128      -0.00416011       0.00794741
H        4.61420534      10.15436240      12.90373440      -0.00921957       0.01214414       0.01817906
H        4.91444593       9.28405151      11.41262947       0.00042489      -0.00276309       0.02930076
H        2.66154495       8.92637069      11.15175122       0.00281984      -0.00277823       0.01170523
H        2.29838888       9.84976265      12.59471800      -0.00499018      -0.00156180       0.00920641
H        4.49747005      12.30502631      11.76973777       0.00672819      -0.00001889       0.00320604
H        5.60377009      11.47282523      10.64100430       0.00073171      -0.01203357       0.00522730
H        1.64633090      10.82615716      10.02618190       0.00094919      -0.00762148       0.00707573
H        2.04584202      11.90257784      11.39752511      -0.00309387      -0.00366130       0.00564128
O        5.98352065       2.31451348       9.68730714      -0.00954521      -0.02002743      -0.00068291
C        7.75212679       3.66461867      10.57586627      -0.01504862      -0.01177174      -0.00131035
C        6.66721122       4.54114480       9.95068181      -0.02004918      -0.01560110       0.00200969
C        7.35437118       2.25142807      10.12496982      -0.00646067      -0.01230809      -0.00650370
C        5.47126357       3.62157380      10.06802915      -0.01554099      -0.02180201       0.00005566
H        8.76379609       3.92990444      10.26705696      -0.01664180      -0.00477257      -0.00078468
H        7.70224337       3.75122452      11.66215842      -0.01519615      -0.01580356      -0.00077578
H        6.51802989       5.47927300      10.48682987      -0.02341146      -0.01727560       0.00450915
H        6.89172386       4.75290262       8.90028887      -0.02159255      -0.01126945       0.00240970
H        7.95564057       1.89807301       9.28008142      -0.00747874      -0.00298670      -0.01128513
H        7.45087612       1.51798662      10.92963302       0.00188778      -0.01566598      -0.01080585
H        5.08669930       3.58712383      11.09299024      -0.01649050      -0.02549826      -0.00042486
H        4.65122861       3.86164085       9.39186271      -0.01627117      -0.02456448      -0.00027090
O        8.69696735      10.77715098       9.47325714       0.00244170      -0.00029576      -0.00496696
C       10.49463863       9.34257261       9.13619926       0.00515327       0.00228736       0.00181440
C        9.42162368       8.52422355       9.86705797       0.00357750       0.00103676      -0.00124244
C       10.12064263      10.76199979       9.53001944       0.00226173       0.00249878       0.00000471
C        8.27516577       9.52976789      10.07555356       0.00365123       0.00126868      -0.00061481
H       11.51383944       9.07161343       9.41021265       0.00510317       0.00352880       0.00381900
H       10.40436112       9.19903614       8.05295282       0.00848154       0.00151556       0.00125967
H        9.10176201       7.65777719       9.29042722       0.00368445       0.00253022      -0.00378381
H        9.78632666       8.18075533      10.83380960       0.00225456      -0.00141571      -0.00168756
H       10.46635310      10.98289972      10.55091649      -0.00094592       0.00380802       0.00096864
H       10.50519054      11.53876939       8.86448020       0.00287685       0.00286353       0.00095278
H        7.34331959       9.23668635       9.59884863       0.00240013      -0.00051050       0.00300336
H        8.08359858       9.69011155      11.13999038       0.00670383       0.00505735      -0.00075883
O       10.69669106       6.76186064       6.61010256       0.01541486      -0.02777998      -0.00091347
C        9.37202738       6.99513237       4.66454760       0.01039070       0.00124174       0.00445849
C        9.23296477       5.56328593       5.18141217      -0.00272691      -0.00102818      -0.00389838
C       10.66605229       7.41230438       5.34655272       0.01321951      -0.00990173       0.00796092
C        9.72583422       5.69491543       6.61677507       0.00116393      -0.01426309      -0.00417385
H        9.41595130       7.06508725       3.57882477       0.00966985       0.00780286       0.00474426
H        8.52773375       7.59418917       5.00828138       0.01481676       0.00645490       0.00670379
H        8.20914527       5.20322017       5.12212262      -0.00669983       0.00983527      -0.00368875
H        9.87088451       4.89152093       4.60385506      -0.01101232      -0.00549124      -0.00824001
H       11.54448210       7.14000008       4.74651055       0.01296508      -0.00232810       0.00327703
H       10.77399545       8.49442431       5.52713945       0.01556575      -0.01317787       0.02416053
H        8.91630450       5.96908398       7.29855674       0.00564814      -0.00724909      -0.00093809
H       10.21997673       4.79420155       6.99198120      -0.00952372      -0.02197602      -0.00833118
O        7.45873203      12.74958582       2.11599659       0.02090394       0.00545377      -0.00031582
C        7.83457600      10.50478489       1.44186367      -0.02010952       0.00033319      -0.00410393
C        8.18023459      10.65074105       2.92151112      -0.00869846      -0.00711647      -0.00524837
C        7.87800878      11.95307906       0.98718056      -0.00196768      -0.00070167      -0.00429349
C        7.47986758      11.95855327       3.28996088       0.00896367       0.00046387      -0.00235766
H        8.55511385       9.86694774       0.93502622      -0.03144106      -0.01026480      -0.00544471
H        6.84178992      10.07112812       1.33918604      -0.02741286       0.01687645      -0.00352651
H        7.85363514       9.79208649       3.51564535      -0.01957639      -0.00377814      -0.00814643
H        9.27412884      10.75182300       2.96117703      -0.00658134      -0.02443192      -0.00176822
H        8.89420443      12.25604931       0.70249923       0.00039440      -0.01724353      -0.01180384
H        7.20291156      12.17355682       0.15990999      -0.00590843       0.01072012       0.00093818
H        6.46292907      11.78445822       3.65049970       0.00634730       0.01165219      -0.00543895
H        8.01466045      12.54923550       4.07245409       0.01550435      -0.00843368       0.00056684
O        3.20400044       6.13466494       7.10679331       0.00680900      -0.01239143      -0.00433747
C        1.38969237       4.70788307       7.45228849      -0.00122392       0.00547475      -0.00058932
C        1.41960487       5.08217453       5.95406417       0.00293976       0.00175464      -0.00016159
C        2.22478056       5.81795776       8.09148749       0.00865945      -0.00305474       0.00200490
C        2.45500760       6.22026506       5.88646469      -0.00097746       0.00246876       0.00306299
H        0.38254865       4.66653053       7.86564025      -0.01098704       0.02014181      -0.01381890
H        1.85962678       3.73762851       7.62198697      -0.02220099      -0.00032425       0.00893069
H        1.71372563       4.24426053       5.32251303       0.01012877      -0.00334251       0.01020674
H        0.44563425       5.43025869       5.61241472       0.00263718      -0.00645857      -0.00783771
H        1.59360380       6.69761870       8.28418038       0.01879579       0.00378150       0.00918712
H        2.73134855       5.53934872       9.01506714       0.01129198      -0.01005873      -0.00091314
H        3.14986543       6.14799583       5.05079010      -0.00731423       0.01118667      -0.00248086
H        1.96220828       7.19551778       5.83480564      -0.00388283       0.00215226       0.01755065
O        9.71904687       7.94947763       0.87633251       0.00632125       0.00764531      -0.00052901
C        9.92289568       5.60677952       1.06383641      -0.00636841       0.00474572      -0.01144904
C       11.27326805       6.18408241       0.63666905      -0.00252080      -0.00122124      -0.00717449
C        8.95893564       6.72626216       0.71338392      -0.00107627       0.01078528      -0.00374220
C       11.10813901       7.62858046       1.07143714       0.00427011      -0.00163084      -0.00819977
H        9.67571737       4.66594146       0.57515927      -0.01415755       0.00787641      -0.01663041
H        9.92367214       5.41548341       2.13548663      -0.00175361      -0.00200311      -0.00983098
H       12.14092134       5.69594488       1.08144823      -0.00392804      -0.00764078      -0.01787873
H       11.39256882       6.11997151      -0.44858871      -0.01275424       0.00848293      -0.01162767
H        8.61802299       6.65827602      -0.32564221      -0.00506049       0.01777081      -0.00225753
H        8.06397796       6.77751851       1.33891609       0.00261635       0.01208142       0.00052017
H       11.36092190       7.75378126       2.13153380       0.01374643      -0.00670720      -0.00581461
H       11.71300578       8.34363047       0.50823713       0.00768390      -0.00273007      -0.00896856
O       10.69340014       3.41179775       3.05486836       0.01518095       0.00458723       0.00258261
C       10.86932642       1.39487808       4.21527312       0.01364687      -0.00927779      -0.01455802
C       12.22846908       2.13656046       4.29082250       0.01000035      -0.00344542      -0.00513792
C       10.11758272       2.12943199       3.08700209       0.00814651       0.00638622      -0.00100484
C       12.10451688       3.19605866       3.19271043       0.01408851      -0.00572890      -0.00703216
H       11.02641896       0.34989263       3.93547953       0.01257928      -0.00715303      -0.02565130
H       10.33149263       1.48231689       5.17604101       0.01466279      -0.02444013      -0.01271378
H       12.36254517       2.59297334       5.27227637      -0.00509102       0.00279038      -0.00576401
H       13.07397948       1.47958006       4.09988393       0.01526308       0.00088142       0.00518944
H       10.29625366       1.60512212       2.13757837      -0.00562811       0.01563266      -0.00768226
H        9.04109933       2.22780103       3.22750498       0.01056579       0.01198984       0.01199068
H       12.57454133       4.14517048       3.42821234       0.02289546      -0.00755566      -0.01465860
H       12.52341808       2.83816222       2.24952473       0.00537837      -0.01240280      -0.00854075
O        5.38933032       1.63110710       6.69052923      -0.00265913       0.01759039      -0.00378552
C        4.55705867       3.27153010       5.25376063       0.00272182       0.00816543      -0.01737714
C        6.05166508       3.53700856       5.41325223       0.00102302       0.01091605      -0.00928468
C        4.24489833       2.53435628       6.52514530      -0.00300951       0.01510832      -0.01466548
C        6.56424844       2.29807824       6.14776574      -0.00130484       0.00888389      -0.01186083
H        3.98566345       4.18761008       5.16296422       0.00185055       0.00668001      -0.02661369
H        4.33331310       2.66189686       4.37892091       0.00887901       0.00227076      -0.01480162
H        6.54483510       3.68099027       4.45479287       0.00619346       0.01566659      -0.00592887
H        6.20969836       4.43142168       6.01735799      -0.00508504       0.00867936      -0.00411651
H        4.20539560       3.20012342       7.39109188      -0.00763861       0.02108917      -0.01910925
H        3.33856573       1.91803754       6.48245230      -0.00195909       0.01371744      -0.01509424
H        7.03580031       1.58429096       5.47120259      -0.01051824       0.00587302      -0.01488206
H        7.23227666       2.52953696       6.97909437       0.00545685       0.00477684      -0.01588482
