147
Lattice="12.953446975036194 0.0 0.0 0.0 12.953446975036194 0.0 0.0 0.0 12.953446975036194" Properties=species:S:1:pos:R:3:forces:R:3 energy=-457419.125 stress="-0.00011139215348521248 -2.987024117828696e-06 9.581534686731175e-05 -2.987024117828696e-06 -0.0002068641915684566 0.00033729226561263204 9.581534686731175e-05 0.00033729226561263204 -0.00017259705055039376" pbc="T T T"
Ag       6.78868245      13.45945495      10.34117210       0.01734175      -0.00761899      -0.00747228
Ag       5.52767134      11.43082422       3.72458872       0.03347628       0.00733548       0.00321560
O       12.00237755       0.46821728       0.89853200      -0.01099920      -0.01341486       0.01820916
O        9.36972690       0.80101633       2.05818631       0.00234461      -0.02662516      -0.00644922
O       10.16593250       2.42748871      -0.21452596       0.00115275      -0.01606882      -0.00629330
O       11.33714927       2.85804764       2.39352789      -0.01443505       0.00537872      -0.01135111
Mo      10.72286026       1.63224275       1.27424487      -0.01079653      -0.00377578       0.00110479
C        5.33294987       3.78783793       4.78972271      -0.00384408       0.00095695      -0.01777470
C        4.07742944       4.01142507       5.62562594      -0.00245042      -0.00220734      -0.01032025
C        6.26544783       4.99222678       4.76732467      -0.00242721       0.00287783      -0.00326827
C        3.15663260       2.79697385       5.65670773      -0.00286520      -0.00130469      -0.01140273
C        7.49923650       4.79040699       3.90186695      -0.00030240       0.00724502      -0.00356106
C        1.93890443       2.96206304       6.55472953      -0.00184488      -0.00154965      -0.01066652
H        5.87738137       2.91848436       5.17656610      -0.00259794       0.00178197      -0.01478541
H        5.04935454       3.52653876       3.76369750       0.00330091       0.01473788      -0.02643740
H        3.53164523       4.88045272       5.23870363      -0.00397617      -0.00118437      -0.00512187
H        4.37109037       4.26838530       6.65083562      -0.00190774      -0.00475721      -0.00838462
H        5.70775923       5.86512202       4.41045747      -0.00257871       0.00399014      -0.00099066
H        6.56895125       5.22827432       5.79316002      -0.00470080      -0.00044506       0.00132498
H        2.83266910       2.56615886       4.63892800      -0.00374040       0.00428551      -0.01217809
H        3.73965015       1.93622156       5.99062869      -0.00339679      -0.00233749      -0.01356569
H        8.04767699       3.90136855       4.19879109      -0.00136408       0.00995085      -0.00375535
H        8.17699003       5.64178434       3.97593577      -0.00132281       0.00808050       0.00311214
H        7.22506236       4.67641461       2.85220003      -0.01674601       0.04095241       0.00754230
H        2.23718441       3.19763493       7.57980413      -0.00132584      -0.00250081      -0.01056637
H        1.29516986       3.76982502       6.20382501       0.00070219      -0.00010936      -0.01160219
H        1.33516433       2.05444432       6.57873836      -0.00314650      -0.00066885      -0.01109478
C       10.29949609      10.92283428       5.08509392      -0.00794483       0.00514780      -0.00002062
C        9.26426222      10.23185589       4.20255178      -0.01026789       0.00706339       0.00110197
C       11.32255003      11.73898553       4.30355451      -0.00822879       0.00497156      -0.00059152
C        8.22070120       9.46813170       5.00781024      -0.00971836       0.00866160       0.00229502
C       12.32480144      12.44541795       5.20939468      -0.00725266       0.00544220      -0.00144455
C        7.15946934       8.81029581       4.15141586      -0.00508177      -0.00196365       0.00521533
H        9.78438886      11.57942735       5.79780304      -0.00516441       0.00466093       0.00224675
H       10.80793278      10.16767785       5.69879557      -0.00803690       0.00369683      -0.00184566
H        9.77044978       9.53527724       3.52205702      -0.01239792       0.00596018       0.00143386
H        8.77286823      10.97832884       3.56702532      -0.01045138       0.00869650       0.00306679
H       11.85176100      11.09057168       3.59902282      -0.00841627       0.00437200       0.00022814
H       10.79425799      12.46895583       3.68564927      -0.00890586       0.00424516      -0.00154933
H        8.72324095       8.70774536       5.61669951      -0.00792637       0.01498720       0.00834903
H        7.73783637      10.15502543       5.71242101      -0.01433897       0.01081592      -0.00348951
H       11.81430966      13.08024125       5.93739970      -0.00699267       0.00266056       0.00314619
H       13.00191503      13.06892872       4.62902215      -0.00724278       0.00497058      -0.00247239
H       12.93019030      11.73203490       5.77628075      -0.00684936       0.00621435      -0.00091216
H        6.56867244       9.59133092       3.63544038      -0.01091839      -0.00885770       0.00179848
H        7.59259820       8.15836581       3.38999304      -0.00023104      -0.00373113       0.00970952
H        6.45258455       8.22924965       4.74530156      -0.00045833      -0.00437691       0.00831220
C        1.64563741       8.19568511       9.79959397       0.00277910       0.00224128       0.00517556
C        1.88213876       9.68873033       9.99018176       0.00322583       0.00200874       0.00659043
C        2.47117404       7.58276891       8.67586828       0.00418684       0.00251962       0.00590724
C        1.10479578      10.29111874      11.15519819      -0.00041273       0.00319017       0.00362095
C        2.12071652       6.13148979       8.38870972       0.00196956       0.00352705       0.00298737
C        1.32132017      11.79117206      11.30774565      -0.00127759       0.00346136       0.00207732
H        1.85636082       7.66942355      10.73750119       0.00130402       0.00124709       0.00497594
H        0.58520254       8.02368819       9.59111529       0.00300103       0.00324845       0.00329728
H        1.61358698      10.21763845       9.06614358       0.00826013       0.00230888       0.00525129
H        2.95397710       9.87118477      10.14109154       0.00265950       0.00063816       0.01101416
H        2.32944494       8.17464689       7.76774340       0.00720372       0.00408682       0.00638565
H        3.53572302       7.65929068       8.91945589       0.00383788       0.00000017       0.00823416
H        0.03934554      10.07864191      11.01893414       0.00004077       0.00296027       0.00041531
H        1.39403305       9.77713128      12.07825284      -0.00313295       0.00447893       0.00513703
H        2.28795276       5.50342888       9.26561060      -0.00195351       0.00209874       0.00273161
H        2.72138315       5.72672219       7.57483156       0.00326675       0.00311354       0.00410257
H        1.07061846       6.02750905       8.10996134       0.00255737       0.00624009      -0.00012036
H        2.38807049      12.00791394      11.42130655      -0.00146414       0.00465139       0.00263446
H        0.97646248      12.32196708      10.41688432      -0.00135600       0.00178944       0.00116245
H        0.78938557      12.20527886      12.16611687      -0.00284773       0.00325359       0.00119641
C       10.90000969       9.10036349       8.65895239      -0.00280863      -0.00005484       0.00365838
C       10.15436647       7.77366194       8.61004500      -0.00140494      -0.00074811       0.00049707
C        9.99534929      10.32012186       8.78308687      -0.00381911      -0.00079106       0.00351330
C       11.06512795       6.55955213       8.47670071       0.00047505       0.00051642      -0.00076562
C       10.77051119      11.63029103       8.80772060      -0.00501335      -0.00020137       0.00699537
C       10.28984777       5.25322928       8.38803150       0.00259742      -0.00064522      -0.00150174
H       11.60303347       9.09118847       9.49801821      -0.00425249      -0.00062932       0.00488076
H       11.51060696       9.20038667       7.75569301      -0.00118968       0.00188879       0.00496298
H        9.44072015       7.78776939       7.77776274      -0.00026518       0.00007613      -0.00040027
H        9.55616199       7.65600726       9.51848420      -0.00237761      -0.00367147      -0.00052294
H        9.28907739      10.32474557       7.94665593      -0.00207339       0.00002969       0.00200105
H        9.39688725      10.23153629       9.69468262      -0.00564793      -0.00221198       0.00209421
H       11.70152999       6.67798090       7.59348264      -0.00019763       0.00279756      -0.00107467
H       11.73809900       6.52561736       9.33927985       0.00096104       0.00105100      -0.00081915
H       11.40196131      11.70324574       9.69459455      -0.00682627      -0.00094207       0.00838177
H       10.10065588      12.49259790       8.80915733      -0.00585307      -0.00082263       0.00687565
H       11.41407994      11.71595226       7.93059021      -0.00319935       0.00169029       0.00835466
H        9.58725173       5.16814554       9.21727514       0.00592047      -0.00387390       0.00065206
H        9.71721464       5.19717575       7.46012110      -0.00119701       0.00185319       0.00100955
H       10.94848589       4.38450990       8.42267838       0.00427732       0.00052229      -0.00642048
C        5.52283406       4.59265570      10.17839598       0.00207978      -0.01256810       0.00256291
C        6.60262502       3.54325924       9.96049489       0.00237218      -0.01018690      -0.00581470
C        5.33166266       5.04698350      11.62153923       0.00509182      -0.01962389       0.00837061
C        6.83148894       3.21704481       8.49395178       0.00287062      -0.00478140      -0.00693581
C        4.17110217       6.02363366      11.76329120       0.00909323      -0.01312977       0.00747725
C        8.00359136       2.29965791       8.19993859       0.00539395      -0.00112930      -0.00988041
H        5.75646512       5.46874950       9.55833312       0.00145335      -0.00916564       0.00375324
H        4.57388363       4.20155552       9.79074621       0.00191483      -0.00930144      -0.00025612
H        6.28142084       2.61058518      10.48096803       0.00183605      -0.01144323      -0.00908622
H        7.53389918       3.85258619      10.44018857       0.00226733      -0.01038109      -0.00477001
H        5.15859320       4.18383170      12.27190630       0.00696769      -0.01138493       0.02401285
H        6.25664986       5.51020064      11.97914905       0.00738388      -0.01800020       0.00049289
H        5.90755800       2.77894485       8.09723998       0.00326461      -0.00466743      -0.00845917
H        6.97543417       4.15370979       7.94483413       0.00170573      -0.00294015      -0.00360039
H        4.29078731       6.88441502      11.10044139       0.01018197      -0.01098788       0.00942454
H        4.08319972       6.40105084      12.78223156       0.01171872      -0.01535747       0.00827372
H        3.22408740       5.54732423      11.50142988       0.00702764      -0.00896738       0.00709305
H        8.95654845       2.77673538       8.41891658       0.00353171      -0.00039047      -0.00765126
H        7.96257832       1.37710175       8.81289033       0.00640821      -0.00322248      -0.01281894
H        8.01230045       1.98292008       7.15629048       0.00568163       0.00122496      -0.01100713
C        5.33598475      11.21147299       8.57573472      -0.00335429      -0.00136530       0.00110340
C        5.91807390       9.92323836       9.12658892       0.00434371       0.00216198       0.00122243
C        4.70266264      11.07619151       7.19811197       0.01489812      -0.00250378      -0.00712273
C        6.50980192      10.07625104      10.51692525      -0.00300601       0.00297406       0.00417355
C        4.21057167      12.40113382       6.65210908       0.00651919      -0.00643715      -0.00882989
C        7.10783093       8.78710230      11.05707174       0.00027773       0.00504827       0.00529249
H        4.59131137      11.60452629       9.27704195      -0.01629764      -0.01310827      -0.00627798
H        6.13513046      11.97285556       8.54543338      -0.01105164       0.00799495       0.01488654
H        6.68825011       9.54931710       8.44261343       0.01031941       0.00954577       0.00391302
H        5.13511993       9.15691303       9.15170851       0.01002389      -0.00372928      -0.00431534
H        5.42103396      10.63710671       6.49378718       0.02722533       0.00765908      -0.00062644
H        3.87010712      10.36892179       7.26590956       0.02173963      -0.01170038      -0.01917630
H        7.27904826      10.86206920      10.48483819      -0.00547947       0.00598097       0.00806241
H        5.73835372      10.44740844      11.19698425      -0.00710809      -0.00062159       0.00138138
H        3.41005458      12.81901554       7.26770085       0.00268678      -0.01194980      -0.01008020
H        3.84514008      12.29745062       5.62762073       0.00940137      -0.01031570      -0.00928831
H        5.02586661      13.12692845       6.62584342       0.00116925      -0.00054131      -0.00848693
H        6.34098253       8.01909930      11.17862408       0.00292751       0.00201999       0.00316675
H        7.85325789       8.39006309      10.36837446       0.00343534       0.00808221       0.00693864
H        7.58472149       8.93002788      12.02724397      -0.00240048       0.00655463       0.00635368
C        3.46348855       9.26576359       3.02099712       0.00722295      -0.00197234       0.00595436
C        2.11692234       8.92273661       3.62966779       0.00268972       0.00422049      -0.00003892
C        3.57603225       8.93766710       1.54658102       0.00067973       0.01058245       0.00272170
C        1.98677255       9.37457754       5.07608245       0.00026381      -0.00097629       0.00109676
C        4.93519214       9.27043868       0.95778129       0.00237641       0.00147285       0.00269274
C        0.68503039       8.91817477       5.71564256      -0.00064459      -0.00350779      -0.00097463
H        3.67584104      10.34342278       3.16180360       0.02046707      -0.00604336       0.01715563
H        4.25898821       8.75855600       3.57856105       0.00099307      -0.01727168       0.00078399
H        1.97051814       7.83675333       3.57458024      -0.00366807       0.00524816      -0.00537520
H        1.31508740       9.36994310       3.03318435       0.00705785       0.01058659      -0.00111786
H        3.36452260       7.87176472       1.40862246      -0.01233574       0.01447490      -0.00739641
H        2.79428292       9.47329563       1.00166226       0.00544050       0.02482072       0.01006144
H        2.83964916       8.99149804       5.64721104      -0.00139889      -0.00426526       0.00156046
H        2.05780563      10.46663683       5.11545897      -0.00096387      -0.00085095       0.00546101
H        5.17919018      10.32472891       1.11488649       0.00934860      -0.00063777       0.00566043
H        4.96003272       9.07275743      -0.11371457      -0.00028730       0.00388196       0.00224236
H        5.72738172       8.68128052       1.42390056      -0.00148538      -0.00536363       0.00044817
H       -0.17152612       9.25627598       5.13014021      -0.00197224      -0.00263182       0.00108564
H        0.63939940       7.82800017       5.77582910      -0.00157332      -0.00380087      -0.00312585
H        0.57116733       9.31218377       6.72675780      -0.00140230      -0.00685229       0.00044003
