147
Lattice="12.222758377733483 0.0 0.0 0.0 12.222758377733483 0.0 0.0 0.0 12.222758377733483" Properties=species:S:1:pos:R:3:forces:R:3 energy=-114450.234375 stress="-0.0022543349768966436 0.00024755820049904287 -0.00021220614871708676 0.00024755820049904287 -0.0015503197209909558 9.535665185467224e-06 -0.00021220614871708676 9.535665185467224e-06 -0.00014069279131945223" pbc="T T T"
N       10.53958953      12.57106777       7.07881574      -0.00508010       0.01680958      -0.02063030
H        9.73940280      11.95149867       7.02634018      -0.01104945       0.02432314      -0.01953116
H       10.86766411      12.55163195       8.03895605      -0.01208524       0.02367261      -0.01824045
H       11.71323010      12.18646146       6.10513990      -0.00023460       0.00008257      -0.00675088
H       10.18491497      13.50285932       6.89648354       0.00563031       0.01829326      -0.03279773
N        5.50397043      11.01714510       6.63608667      -0.00216943      -0.00393699       0.00279577
H        5.00514768      10.11721401       6.74946074      -0.00340980      -0.00254577       0.00404108
H        5.92579782      11.29833116       7.55012020       0.00278512      -0.00463733       0.00078392
H        6.23420460      10.90653892       5.84769629      -0.00426525      -0.00432646       0.00110936
H        4.84276913      11.73424614       6.35902411      -0.00158554      -0.00231731       0.00509819
O        9.90742148       0.41650369       0.55562060       0.00144839       0.01393038       0.03102565
O       10.94855172      -1.50266312       2.13550029      -0.00091451      -0.01472282      -0.00384873
O       10.89845943       1.01563699       3.01634389       0.01524696      -0.02927935       0.03636599
O       12.53914034       0.34062954       1.00668769       0.00394130      -0.00479764       0.01845169
Cr      11.06256963       0.09125460       1.65825338       0.00458799      -0.00889701       0.02138779
O        4.32469691       8.51494854       6.97193270      -0.01046491       0.00364637       0.00700323
N        2.52252881       7.21248561       6.45519422      -0.00900818       0.00176302       0.00569869
C        1.53797218       8.10323515       7.03055268      -0.01049393       0.00254183       0.00164580
C        2.03023277       6.03460558       5.77646001      -0.00746931       0.00025725       0.00711595
C        3.82316872       7.49469440       6.48708111      -0.00981414       0.00142086       0.00610392
H        0.94979028       7.56910929       7.77999549      -0.01298407       0.00398290       0.00044733
H        0.87193828       8.48065390       6.24897766      -0.00753573       0.00217707      -0.00079274
H        2.05310583       8.93643366       7.49838286      -0.01136158       0.00280078       0.00228320
H        1.40778790       5.44351542       6.45054799      -0.00913842       0.00187428       0.00696462
H        2.87291894       5.43164832       5.44440597      -0.00682767      -0.00061617       0.01072710
H        1.43965817       6.32351501       4.90200307      -0.00533740      -0.00188716       0.00511715
H        4.43861409       6.69537771       6.05379478      -0.00850710       0.00276130       0.00791268
O        5.11909487       3.73182034       0.37893964      -0.00377107       0.01192737      -0.02433372
N        3.55917843       2.09509459       0.72471879       0.00499141       0.00655662      -0.00777092
C        2.39864143       2.94614915       0.57508729       0.00011430      -0.00057684      -0.01393643
C        3.30426002       0.70044201       1.00931752       0.01209749       0.00751223       0.00487929
C        4.81363044       2.56671098       0.60850369       0.00128245       0.01073325      -0.01299670
H        1.85954717       3.00475326       1.52246938       0.00348441       0.00835646      -0.01267150
H        1.70932680       2.51589665      -0.15226829      -0.00017294      -0.01261950      -0.00625083
H        2.72212544       3.93399874       0.26051107      -0.00519243      -0.00280362      -0.02667969
H        2.43277603       0.62502210       1.66012968       0.01070300       0.00904910       0.00318123
H        4.18454518       0.26712351       1.48007871       0.01311883       0.01810526       0.01265424
H        3.04166967       0.14929961       0.10054231       0.01915431      -0.00242960       0.00884187
H        5.56931785       1.77961961       0.75177969       0.00584167       0.01646531      -0.00686587
O        0.42124420      11.93876020       5.70386777       0.00147867      -0.00702053       0.00030243
N        1.54008380      10.92807453       4.04736883       0.00312915      -0.00562964      -0.00010929
C        2.80333967      11.10964525       4.73867911       0.00280201       0.00344758      -0.00375810
C        1.59365289      10.19869526       2.78056530       0.00268041      -0.00512740       0.00072306
C        0.41533199      11.35702343       4.54913972       0.00039309      -0.00915876       0.00392518
H        3.47377065      11.69676465       4.10492267      -0.00361536       0.01046076      -0.00436386
H        3.25189862      10.12956946       4.90842658       0.01019924       0.00606695      -0.00768012
H        2.62255275      11.62550404       5.67703452       0.00218362      -0.00052692      -0.00210693
H        2.30632519      10.69392998       2.12411727      -0.00854209       0.00401144      -0.00471558
H        0.60454138      10.21996087       2.32086205      -0.00011313      -0.01622281       0.00652980
H        1.93706834       9.18338766       2.97384558       0.01563618      -0.00112519      -0.00091431
H       -0.49490181      11.19621209       3.96126709       0.00028121      -0.01650094       0.00815891
O        6.57125744      11.78128365       9.04446857       0.01924533      -0.00432765      -0.00665885
N        6.83046803       9.76115338      10.08209453       0.01273086      -0.00068322       0.00109576
C        5.46598149       9.31919157       9.86548592       0.01391590      -0.00026502      -0.00465313
C        7.76420028       8.78533492      10.60508847       0.00947905       0.00153539       0.00977826
C        7.24525352      10.97241063       9.69240350       0.01516500      -0.00162131      -0.00234309
H        5.09645900       8.85033999      10.77891532       0.00900583       0.00217764      -0.00533298
H        5.40186761       8.59734169       9.04974338       0.01766898      -0.00259423      -0.00290450
H        4.84571819      10.17981711       9.62992696       0.01544225      -0.00096643      -0.01019172
H        7.37986709       8.35369617      11.52937488       0.00538035       0.00715251       0.01063430
H        8.71910226       9.26720859      10.80595299       0.00908458       0.00126459       0.01071845
H        7.91137810       7.97430915       9.88467608       0.01100078      -0.00244290       0.01447630
H        8.26847788      11.20846955      10.01732846       0.01451126      -0.00255938       0.00131796
O       11.66391281       7.14927443       9.83317163       0.01763543       0.00480700      -0.02052432
N       11.51477954       9.41568309      10.07355138       0.00688417       0.00595084       0.00420573
C       11.24354885       9.64627075       8.67947046      -0.00325516       0.01823283       0.00869249
C       11.60436897      10.57540296      10.94508048       0.01467743      -0.00042808       0.01366517
C       11.71876566       8.15991519      10.52768341       0.01822685       0.00972128      -0.00281653
H       12.03430486      10.24795240       8.21932386      -0.00398812       0.01665984       0.00606807
H       10.29513022      10.17977800       8.56243099      -0.00159529       0.02310091       0.01968242
H       11.17488621       8.68845408       8.17036751      -0.01136732       0.02115643       0.00267449
H       12.45577063      11.20741548      10.68309901       0.01202843       0.00155120       0.00980005
H       11.71846991      10.25825995      11.97892135       0.02350600      -0.00836240       0.00993490
H       10.69732840      11.18390713      10.89599521       0.01418844       0.00017048       0.02542429
H       11.94310679       8.12701891      11.60477569       0.02594700      -0.00406767      -0.01106012
O        6.91093186       5.15164567       7.72557200      -0.00507101       0.00145853       0.00066417
N        8.29775611       6.89448557       7.17767026      -0.00232622       0.00269243       0.00755677
C        9.53795461       6.17944383       7.40149457      -0.00373755       0.00159608       0.00764615
C        8.36670113       8.28430476       6.79488576       0.00003613       0.00228927       0.00639875
C        7.09915249       6.30333133       7.36854482      -0.00364640       0.00470781       0.00225383
H       10.08253060       6.58385915       8.25800892      -0.00121303       0.00401802       0.00466272
H       10.15913039       6.24277511       6.50521765      -0.00544748      -0.00328042       0.00635025
H        9.29754000       5.13626953       7.58410310      -0.00524299       0.00251323       0.01218153
H        8.62768349       8.92767456       7.64195762       0.00337559       0.00218070       0.00529134
H        7.40449956       8.60311725       6.39608445       0.00030512       0.00425861       0.00789843
H        9.11599747       8.42540389       6.01548223      -0.00104594      -0.00022125       0.00487259
H        6.27397108       7.00725124       7.17174254      -0.00238651       0.00351796       0.00134360
O        4.09718581       8.30794650       3.61801259       0.00165099      -0.01267904       0.00782824
N        4.92385147       6.25430568       3.06249562      -0.00367230      -0.01152670      -0.00194465
C        3.76192593       5.86069722       2.28610657      -0.00765073      -0.00878036       0.00313398
C        5.98277038       5.27720981       3.23111347      -0.00200428      -0.01149642      -0.01305753
C        4.98693216       7.45638052       3.63579869      -0.00010517      -0.01235074       0.00089367
H        3.24393768       5.03510027       2.78168500      -0.00503918      -0.01001602       0.00353844
H        4.09569133       5.50278556       1.31324778      -0.01272857      -0.00479394      -0.00011161
H        3.08621346       6.70553152       2.18953062      -0.00803395      -0.00852484       0.00914893
H        5.62596841       4.43457203       3.82963854       0.00050497      -0.01669213      -0.01929481
H        6.82642169       5.72209975       3.75452528      -0.00120072      -0.01453270      -0.01180683
H        6.29033492       4.89040255       2.25937572      -0.00450793      -0.00256146      -0.01731473
H        5.94690975       7.62758216       4.15479220       0.00338644      -0.01522608      -0.00410557
O       12.48511134       7.30198139       1.53790561       0.01835287      -0.00923628      -0.00239396
N       10.31331704       7.50886238       2.23702516       0.00749061      -0.00370020       0.00030839
C        9.72851255       7.05250775       0.99767062       0.01004746       0.00265870      -0.00050248
C        9.41946263       8.05383145       3.23399448       0.00276640       0.00132810      -0.00208801
C       11.64740690       7.64430544       2.35919537      -0.00681096       0.00238308       0.02146101
H        9.34060927       7.90624498       0.43601770       0.02039830       0.00475281      -0.00348178
H        8.90426503       6.36608965       1.20047832       0.00612268       0.00663166      -0.00767286
H       10.48367779       6.54976075       0.39960676       0.01289836      -0.00220425       0.00285438
H        8.70606522       8.73295902       2.76808696       0.00542441       0.00076692      -0.00770344
H        9.99691959       8.63954305       3.94546917      -0.00048459       0.00210604      -0.00184856
H        8.88262152       7.25829130       3.76087745      -0.00093484       0.00286362      -0.00285673
H       11.92030130       8.09941266       3.32712880       0.00263114      -0.00581571       0.00642270
O        8.93379254       4.60092473       4.72429555       0.00599790       0.01529153       0.00196338
N       10.81539414       4.09802804       3.51803252      -0.00317565      -0.00875011      -0.00538988
C       11.57461100       3.59317059       4.63961272       0.00078413      -0.00338647      -0.00587645
C       11.43840641       3.99090652       2.21262186      -0.00858399      -0.01728718      -0.00757372
C        9.54877657       4.50402491       3.66483604       0.00324821       0.00395219      -0.00521946
H       12.56397205       4.05402164       4.65196950       0.00057626      -0.00311866      -0.01102951
H       11.68605886       2.51165289       4.52096811       0.00019461      -0.00372201      -0.00117931
H       11.04714394       3.83619597       5.55951206       0.00337096       0.00177089      -0.00533184
H       12.28925041       4.67393582       2.14362458      -0.01011351      -0.01590455      -0.01639593
H       10.71562358       4.26135948       1.44715216      -0.01247080      -0.02547310      -0.00639300
H       11.74851591       2.95797575       2.04926960      -0.00542361      -0.01741111      -0.00120925
H        9.08841772       4.75903239       2.69643738       0.00009689       0.00244474      -0.00148332
O        6.07518126       1.18309845       3.12200194      -0.04181649      -0.01322049      -0.00680983
N        7.11042549       1.77260774       5.07956796      -0.01602596       0.00171696      -0.00941557
C        8.43849505       1.35748360       4.66414815      -0.01822320       0.00930816      -0.02357032
C        6.96519391       2.32776696       6.41121316       0.00401730       0.00103464      -0.00018239
C        6.06545241       1.66459421       4.24750241      -0.02730474       0.00557476       0.03893745
H        8.66970171       0.35664760       5.03292970      -0.00855695       0.00933418      -0.03139581
H        9.15955489       2.07989801       5.04154765      -0.01543242       0.01024938      -0.03625390
H        8.51672743       1.32966188       3.58318795      -0.03819499       0.01041745      -0.02808848
H        7.15602732       1.57295319       7.18176046       0.01884840      -0.00028339      -0.00512850
H        5.95489850       2.71007685       6.54532889       0.00585675      -0.00310531       0.01484633
H        7.64606505       3.16634295       6.54847307       0.00429693       0.00296807      -0.01040036
H        5.13925609       2.07158692       4.69786614      -0.02160978      -0.01204510       0.02998036
O        7.11246760      10.71464046       4.57309658      -0.00477701      -0.00312051       0.00026363
N        6.67256526      10.50458883       2.33499935      -0.00525291      -0.00159144       0.00108422
C        7.92922225      11.06103924       1.86648564      -0.00718659       0.00345948       0.00249939
C        5.71547497      10.11329520       1.32305816      -0.00579379      -0.00218080       0.00279044
C        6.35544366      10.44035527       3.61738171      -0.00269388      -0.00485548       0.00409901
H        7.75724156      12.00772028       1.35815500      -0.01047894       0.00583273       0.00756979
H        8.41714900      10.37521638       1.17297315      -0.00694603       0.00831363      -0.00165027
H        8.59902859      11.22044275       2.70195368      -0.00647044       0.00048256       0.00203934
H        5.60937698      10.91230219       0.58735758      -0.00595656      -0.00261658       0.00260678
H        4.75147512       9.89940239       1.77875859      -0.00563648      -0.00087168       0.00352277
H        6.06265854       9.21224753       0.81034826      -0.00708054      -0.00280917       0.00335760
H        5.33470061      10.07962790       3.78669862      -0.00177068      -0.00996850       0.00267855
