149
Lattice="11.398113845205058 0.0 0.0 0.0 11.398113845205058 0.0 0.0 0.0 11.398113845205058" Properties=species:S:1:pos:R:3:forces:R:3 energy=-1997423.125 stress="3.7393561797216535e-05 0.0003568264364730567 0.0006125646468717605 0.0003568264364730567 0.0017509020399302244 -0.0013444889918901026 0.0006125646468717605 -0.0013444889918901026 0.0005773124867118895" pbc="T T T"
Bk      11.64718694      10.35066736       1.58165963       0.00882509      -0.00320093       0.00443833
Bk       3.12768958      10.74272493       7.65226228      -0.00114083       0.00649185       0.00498401
S        9.90160844       9.82481639       6.17450973       0.04828573       0.00113759      -0.00656161
O        9.63570710       8.92348111       7.32438732      -0.00579974      -0.01292247       0.00061512
O       11.36086044      10.00002773       6.01623385      -0.03031635      -0.00412025       0.00493708
O        9.33917241       9.21945263       4.93367134      -0.00392646       0.00062105      -0.01006043
O        9.24919324      11.14410577       6.40247152      -0.00928146       0.00268245       0.00681904
S        5.41825722      11.89435188       9.23796578      -0.00165269       0.01980057      -0.02974891
O        5.49975472      11.40064938      10.62567973       0.00513265      -0.00686705       0.02410126
O        5.46812597      10.72975007       8.28337722      -0.00117484       0.01777804       0.00495678
O        4.08343873      12.50174898       8.97224025      -0.00146270       0.00087297       0.01649265
O        6.51434549      12.82934753       8.94533078      -0.01264477       0.00812358       0.01156573
S        3.92622365       9.38628998       4.62352412      -0.01079375      -0.01856822       0.01492857
O        4.15124327      10.55014759       3.74061286       0.00590885       0.00615704      -0.00130725
O        2.50096156       9.08240056       4.76031117       0.01728022      -0.00337526      -0.00565194
O        4.68250223       8.20488201       4.14746319       0.00928241       0.00726897       0.01254073
O        4.45030910       9.75259027       5.98430772      -0.00781292       0.00431117       0.00506473
O        2.67431989       2.61142672       1.85496780       0.00164722       0.00366712      -0.00125921
H        3.57781538       2.93258529       1.58637300      -0.00164829       0.00423607      -0.00038963
H        2.06431940       3.00784559       1.21343768      -0.00131418       0.00262266      -0.00583358
O       10.32702178       1.69544172       8.09662573      -0.00605556      -0.00697865      -0.00147783
H        9.71644618       1.05117096       7.69961633       0.00029621      -0.00187427       0.00432214
H        9.90845915       2.04160356       8.91440313      -0.00564820      -0.00411734       0.00399877
O        6.32416965       9.12681862       0.95625861       0.00563095      -0.00657749       0.00578392
H        6.24744784      10.04290457       0.65513635      -0.00062890       0.00664403      -0.00164524
H        6.71727552       9.10688125       1.85277654       0.00390656      -0.00019227      -0.00848006
O        3.20794520       4.00829633       6.83167099      -0.00107683       0.00154814      -0.00527024
H        2.59370198       3.78928338       7.56115847      -0.00467607       0.00147797      -0.00350802
H        4.10164923       3.66749834       7.02520574      -0.00484317       0.00327738      -0.00421447
O        7.22375607       8.76950451       8.45907985       0.00072454      -0.00097662      -0.01962535
H        8.06394210       8.99789243       8.00018388      -0.00775226      -0.00162646      -0.01067514
H        6.65062977       9.57227935       8.45147627      -0.00495196       0.00958299      -0.01383465
O        8.65801251       6.29611134       7.03962976      -0.00254795      -0.00483385      -0.00194065
H        7.74571577       6.42041542       6.71674423      -0.00657558      -0.00774891      -0.00036719
H        9.04884274       7.19298917       7.04255352      -0.00500062      -0.00994985      -0.00368069
O       11.42975173       6.65866008       0.52531930       0.02396354      -0.00024381      -0.01484163
H       11.51614917       6.30058007      -0.36864364       0.04383179       0.00658374      -0.01981185
H       11.37490879       5.89300954       1.12451022       0.01703338       0.00162148      -0.02055261
O        9.43251718       2.87003124      10.46977437      -0.00722501      -0.00653443       0.00595768
H        9.07284610       3.75715096      10.29910712      -0.01195599      -0.00651017       0.00640900
H        8.79590237       2.39859046      11.04231124      -0.00148994      -0.00698742       0.00509037
O        9.32198591       5.69908343       9.64824662      -0.00327234      -0.00064902      -0.00297154
H        8.93534682       6.37417519      10.23735232       0.00155241      -0.00010998      -0.00561876
H        8.86797932       5.82493342       8.79229257      -0.00484477      -0.00106635      -0.00496600
O       11.80344236       0.06629323       3.71277755      -0.00274723       0.00119190      -0.00336599
H       11.79110999      -0.54478801       4.47974219      -0.00088048      -0.00999289       0.01063845
H       11.35999768       0.88123703       4.06049139      -0.00164343      -0.00666206       0.00289597
O       10.62625812       4.35127979       1.99709135       0.00693563       0.01668490      -0.00991645
H       10.90524183       3.84853074       2.76957065       0.01890165       0.01898051      -0.00444177
H        9.75559405       4.71624808       2.23342037       0.01221520       0.01092116      -0.00483257
O        0.47368655       6.44363045       9.06492542      -0.01024254      -0.01004246       0.00598938
H       -0.50488476       6.38140287       9.09758712      -0.00491831      -0.01141749       0.00886216
H        0.73533900       7.25812499       8.60003138      -0.01015143      -0.00158426       0.00516431
O        3.24827575       6.65607807       6.56873125      -0.00219991       0.00193654       0.00309557
H        3.20037850       5.68927705       6.76262522      -0.00276201       0.00145697      -0.00010352
H        4.20078913       6.86182682       6.64702491      -0.00309109       0.00117081       0.00060872
O        1.07323181       0.16855071       8.51441029      -0.00594765      -0.00195307       0.00591033
H        0.30373990       0.74181818       8.25578551      -0.00501262      -0.00181744       0.00520200
H        1.11387480       0.25536498       9.49629989      -0.00238404       0.00010230       0.00497678
O        2.93025699       0.81167658       5.68863320       0.01079825      -0.01127696      -0.00631613
H        2.43061808       1.58589613       5.36166979      -0.00751311       0.00944093      -0.00433204
H        3.38823384       0.44809093       4.90842871      -0.00612516       0.00630965       0.01371135
O        9.31573526      10.43569161       2.37609694      -0.00284976       0.00789496      -0.01829126
H        9.18110558      10.20625034       3.31492122      -0.01266408       0.02189454      -0.02124876
H        8.62932070      11.04654815       2.06800603       0.00149775       0.00678656      -0.03744411
O        0.60796849       8.64360771       3.06106960       0.00031596      -0.00483075      -0.00380875
H        1.37173730       8.74747129       3.68788633       0.00249767      -0.00941697      -0.00454080
H        0.10144039       7.84963875       3.39191439      -0.00187485      -0.00532118       0.00204165
O        7.81086069       1.12899423      12.13122429      -0.00941087      -0.02706347       0.00758313
H        7.42324108       1.49934953      12.95535066      -0.00978749      -0.00843296       0.02395729
H        7.04958502       0.88403589      11.58114779       0.00174480      -0.01052678       0.01608737
O       10.58472635       6.80249038       4.26346319      -0.00624587       0.00077627       0.00752944
H        9.85680529       6.34356690       3.78013551       0.00059928       0.00095820       0.00523543
H       10.12139309       7.54433740       4.70009842       0.00080922      -0.00160612       0.00057754
O        2.49313509       6.09422291       3.87934585       0.00235772       0.00166571       0.00035553
H        2.67367028       6.44470961       4.77426226      -0.00110786       0.00476565       0.00203980
H        1.96112955       5.29841424       4.01563974       0.00286240       0.00475275      -0.00143810
O        5.09540047       3.51632654       1.20468769       0.00049697       0.00392394       0.01065213
H        5.46433480       3.68875298       0.31669182       0.00365981       0.00553852       0.00406107
H        5.23516735       4.32301665       1.72500446       0.00107210      -0.00221369       0.00713658
O       10.40831476       9.65700895      10.97276896       0.00005455       0.00178254       0.00595522
H       10.67594745       9.85349400      10.07153836       0.01127299       0.00139681      -0.00263608
H        9.61591494       9.04167781      10.91493340       0.00373730       0.00559720      -0.00377564
O        2.58367863      11.25906944       1.74351547       0.00783655      -0.00180449       0.00793018
H        2.64470656      12.23881747       1.86857846       0.00465743       0.00472961       0.00296913
H        3.19945885      10.88737687       2.42040249       0.00105944       0.00476933       0.00018524
O        1.79320013       3.18776681       4.55054060      -0.00464052       0.00594196      -0.00768015
H        2.29221060       3.02312981       3.72688598      -0.00501188       0.00405210      -0.00223462
H        2.43882033       3.53797255       5.19464974      -0.00419574       0.00314434      -0.00290195
O        5.86208325       3.19942048       6.88304835      -0.00428121       0.00379391      -0.00809357
H        6.18917801       2.51616051       7.49565283      -0.00511556       0.00100388       0.00350995
H        6.62006749       3.46373850       6.32446834      -0.00627306      -0.00007499      -0.00028408
O        8.40635742       5.67756505       3.11087619       0.00086570       0.00298835      -0.00182551
H        7.87538835       6.49728024       3.10941155       0.00361635      -0.00341754      -0.00099803
H        8.02681463       5.06707507       3.77873545       0.00067473      -0.00307854      -0.00041359
O        1.05871766       3.89685244       8.50652437      -0.00429934      -0.00200622      -0.00639527
H        0.90770596       4.87051163       8.60551390      -0.00302053      -0.00220460      -0.00186954
H        0.35759230       3.60434458       7.90516504      -0.00346856       0.00295145      -0.00841612
O        6.91223691      11.03859217       4.97034543       0.01390389       0.00015533       0.00879847
H        7.63394776      11.09180935       5.62486362      -0.00883709      -0.00356249       0.00035936
H        6.10536178      10.80650846       5.45091276      -0.01160320      -0.00282694       0.01609312
O        1.71696238       8.61853960       7.57766926       0.00843485      -0.00324444       0.01068492
H        1.05449744       8.95462889       6.93533184      -0.00856080       0.00560377      -0.00230137
H        2.22828113       7.89788564       7.13226729      -0.00383857       0.00582178       0.00772472
O        6.01809857       7.18883008       6.63189684       0.00027494      -0.01202343      -0.01582998
H        6.35810118       7.76670853       7.35754476      -0.00474055       0.00551758      -0.02303872
H        5.81290734       7.80372462       5.91353299       0.00624974      -0.03890785      -0.02773101
O       10.55773319       4.50716142       6.08484238      -0.00230673      -0.00470988       0.00285243
H       10.92187502       5.14885364       5.45407686      -0.00096938      -0.00744161       0.00693999
H        9.83945698       5.03116059       6.49274576      -0.00475982      -0.00398847       0.00200320
O        1.03014608       0.52424264      -0.27309610       0.00513637       0.00082833       0.00282852
H        0.91650788       1.54388985      -0.30086025       0.00218420       0.00060119       0.00032922
H        1.94290964       0.36422875       0.01008963       0.00519156       0.00344745       0.00182740
O        4.98308671       5.37548413       3.27536053       0.01296787       0.00593683       0.01164505
H        4.04451749       5.66361406       3.42943795      -0.00177236       0.00228710       0.00770229
H        5.51349406       6.06116424       3.69081339      -0.00250130      -0.01030753       0.00372925
O        3.86590379       7.91534486       1.39533873      -0.00000444      -0.00583279       0.01862077
H        3.91109377       7.73649260       2.34505072       0.00274064      -0.00194382      -0.00560809
H        4.71182186       8.35906762       1.18589629       0.01045812       0.00395339       0.00655072
O        6.98946147       1.73291276       3.26521231      -0.00474797      -0.00419717       0.00705305
H        6.95141717       0.94019538       3.85159870      -0.00292146      -0.00380041       0.00633196
H        6.08391150       2.10938504       3.35931048      -0.00331922      -0.00387100       0.00773098
O        7.21404768       8.20040316       3.37623424      -0.00545361      -0.00079006      -0.00995415
H        6.29754234       8.30118115       3.71798555       0.01200891       0.00664947      -0.00330748
H        7.78489557       8.64601883       4.02673713       0.01544939       0.00791870       0.00255009
O        4.73413975       2.83874835       4.22662097      -0.00398771      -0.00285086      -0.00144470
H        5.00990503       2.77495349       5.15483719      -0.00466052      -0.00451454       0.00270954
H        4.88743787       3.77613850       3.98177333      -0.00243136      -0.00396596       0.00224672
O        6.36061861       3.88223187      10.15377509       0.00025173       0.01519495       0.00784267
H        5.99275184       4.38452624       9.42051802       0.00668394       0.02007741       0.01918650
H        6.47223766       2.98577570       9.78170491      -0.00798580       0.01046705       0.00023047
O        1.65717126       8.75722487       0.40461931       0.00766139       0.00473867       0.00439654
H        1.08554112       7.93963518       0.41428201       0.00821446       0.00018518       0.00376600
H        2.50369503       8.46081195       0.87186147       0.00548909       0.00444753       0.00354890
O        8.32350132       8.07875374      10.78469380      -0.00316674       0.00778559      -0.00906840
H        7.66226780       8.32422058      11.46388447      -0.00193406       0.00561931      -0.01398190
H        7.86757590       8.32982836       9.94224846      -0.00237216       0.00401946      -0.01346060
O        3.16422309       9.90488438       9.92753904       0.01150227      -0.00009359       0.00337058
H        3.89730952      10.23934867      10.46951531      -0.00067288      -0.00515728      -0.00352091
H        2.55082528       9.39819906      10.51079064       0.00334795      -0.00269125       0.00384670
O        0.74762748       3.05293975      -0.33349026      -0.00279039      -0.00075719      -0.00543839
H       -0.21507384       3.17380928      -0.20572502      -0.00176464       0.00010191      -0.00287461
H        0.90201891       3.34373492      -1.26592545      -0.00439638      -0.00286861      -0.00702810
O       10.31394721       1.94063400       4.86510956      -0.00729935      -0.01452622       0.00464642
H        9.91096171       1.29731184       5.47431788      -0.00018453      -0.00411166       0.00172397
H       10.67238737       2.65677453       5.41503983      -0.00229537      -0.00395036       0.00500230
O        7.82033333       3.71333476       4.93077018      -0.00370796      -0.00066396      -0.00156534
H        7.62577974       2.95739343       4.31835946       0.00021096      -0.00113000       0.00254063
H        8.74965317       3.59628903       5.17908641       0.00116300       0.00033588       0.00277171
