147
Lattice="17.399260096963125 0.0 0.0 0.0 17.399260096963125 0.0 0.0 0.0 17.399260096963125" Properties=species:S:1:pos:R:3:forces:R:3 energy=-2185084.75 stress="-0.0003711943281814456 0.0002426075006951578 0.0002060165788861923 0.0002426075006951578 -0.00038366919034160674 -0.00011355805690982379 0.0002060165788861923 -0.00011355805690982379 -6.728668813593686e-05" pbc="T T T"
Ce       7.21549487      16.09081961       7.94862722      -0.00211370       0.00080240      -0.00803170
Ce       1.27905003      16.15618972       4.29608462       0.00442058      -0.00846313       0.00330587
O       10.91946232      17.42167736      10.76982567      -0.00944138       0.00200558      -0.00321543
O       11.10614788      15.99652986       8.32298324      -0.02254677      -0.01686461       0.00389504
O        8.44488149      16.17236704       9.52721950      -0.02138710       0.01695940       0.00045490
O       10.80222382      14.59501452      10.76622922      -0.03704476       0.00037718       0.01095867
Mo      10.38305528      16.03001563       9.91011362      -0.02255201      -0.00222530      -0.00120151
O       10.48253880      13.18928331       6.29079359       0.00098395      -0.00884028      -0.00925693
O        8.18015949      11.61413780       6.83481599      -0.01066184      -0.00319266      -0.00671661
O        8.47695500      12.99687224       4.35833940      -0.01428282       0.01312944       0.00052834
O        7.95355847      14.64912051       6.86904182       0.00009014      -0.00084665       0.00568123
Mo       8.78896256      13.04337455       6.05183242      -0.01044559      -0.00013590      -0.00886858
O        2.84821278      15.79164619       5.62673117      -0.00105238      -0.00774566      -0.00981587
O        5.21581585      14.15956139       5.04886893      -0.00004634      -0.02122176      -0.00321406
O        5.11584477      14.86248229       7.78744741       0.00743419      -0.00148523       0.01097733
O        5.70566713      16.71654208       6.06108344       0.01522867       0.00185966      -0.02395323
Mo       4.63200531      15.31651688       6.13897239      -0.02157086      -0.01615274      -0.02950242
Cl       3.49197086      18.34730714      11.67440938       0.01493440       0.00767384      -0.00543641
Cl       1.18981374      17.56298883      10.08780630       0.02209221      -0.01039431      -0.00588834
Cl       3.20422345      15.59976902      10.80415409       0.03970843       0.00623509      -0.01034518
Cl       3.81560274      17.69021221       8.86595048       0.02159101       0.01489141      -0.00787722
C        2.92066608      17.29212780      10.38304612       0.02416860       0.00413877      -0.00551945
Cl      12.28092531      12.70392940       8.95185560      -0.00511336       0.00636381       0.00038463
Cl      12.15426763      10.67834767       6.85826515       0.00270057      -0.00287929       0.01032490
Cl      14.09095056      10.44714875       8.99208243       0.01085526       0.01876485       0.00514132
Cl      14.38470417      12.53485578       6.97205915      -0.00861803       0.01169559      -0.00433797
C       13.18637259      11.60447050       7.95343900      -0.00033295       0.00802405       0.00234894
Cl      15.14590560      12.40124981      11.93773247       0.01321484      -0.00141841       0.01157612
Cl      13.83893939      11.10223798      14.16883144      -0.01042023      -0.00583747      -0.00568649
Cl      16.73147729      11.34181637      14.12877972      -0.00888181      -0.01095285       0.02203372
Cl      15.39923115       9.52937636      12.29580971       0.00478678      -0.00305837       0.00490254
C       15.27640152      11.10185248      13.12654450      -0.00062957      -0.00561954       0.00834797
Cl      -0.64480454       6.88590655       1.49022854      -0.00004230       0.00436632      -0.00315717
Cl       0.94947069       7.31004957      -0.90431573       0.00323377       0.00474119      -0.00062366
Cl      -0.00544189       4.65016681      -0.24381521       0.00019776       0.00548840      -0.00362602
Cl       2.05944150       5.89915748       1.36657034      -0.00046194       0.00259227      -0.00029022
C        0.59084358       6.18701236       0.41951707       0.00047029       0.00433394      -0.00222698
Cl       7.35005350       7.25861638       8.09693128      -0.00254393      -0.00012296      -0.00140545
Cl       9.52285628       5.34416279       8.10026472      -0.00276107      -0.00031638       0.00236106
Cl       9.78511032       7.83911042       6.64131151      -0.00413254      -0.00386405      -0.00376342
Cl       7.98532852       5.78461781       5.67878226      -0.00392570      -0.00746512       0.00234273
C        8.66306984       6.56635237       7.13466175      -0.00341984      -0.00294120      -0.00005553
Cl      16.45980926       6.44665728       5.44784289       0.00228124      -0.00042900       0.00964317
Cl      15.36702297       8.93598744       6.44350621       0.00494282       0.00203957       0.00650412
Cl      14.70440244       8.05066560       3.77531828       0.00195644      -0.00237255       0.00853810
Cl      17.40502982       8.97220383       4.38744380       0.00307792      -0.00286070       0.00513165
C       15.98982253       8.11449077       5.02534004       0.00313439      -0.00083342       0.00763164
Cl       3.55521747      10.83215955      12.80261856       0.02837556      -0.00178818       0.01059008
Cl       3.91043110       9.21652529      10.41958481       0.00356652       0.00110081       0.00502621
Cl       3.69930335      12.09617895      10.19090127       0.01224594       0.00249681       0.01137789
Cl       1.36919959      10.52106656      10.92935066       0.01296782       0.00959641       0.02815943
C        3.13280060      10.66570370      11.08787075       0.01463724       0.00305143       0.01421662
Cl       9.90317152       2.75146310       5.65744070      -0.00820758      -0.00544935       0.01486809
Cl       8.10487413       0.79783734       4.52200776       0.00111755       0.00086304      -0.01335751
Cl       7.56553343       1.87244589       7.17006867      -0.01238762      -0.02643154      -0.00275182
Cl       9.80130462       0.08944384       6.81802297      -0.00454119      -0.01686025      -0.01400025
C        8.86443369       1.38096600       6.00476397      -0.00374805      -0.01219609      -0.00674823
Cl      14.13500981      15.02367591      15.07809006      -0.00768504      -0.00147620      -0.00568514
Cl      12.94618285      16.87718099      13.17137061      -0.01609874      -0.00825071      -0.00724745
Cl      12.95036896      17.51498596      16.00464451       0.00223537       0.00481001      -0.01036286
Cl      11.25867179      15.39206199      14.97880516      -0.00772250       0.00326508       0.00958783
C       12.82283565      16.20538368      14.77754713      -0.00754923      -0.00050087      -0.00326204
Cl      14.48702762      12.00807163       3.57976909       0.00482672      -0.01308657      -0.00681996
Cl      16.94973420      14.75297487       2.92882752      -0.00144191      -0.00853252      -0.00303511
Cl      13.69602191      12.45398290       0.85824739       0.01019692      -0.00984263      -0.00911003
Cl      15.84860720      10.67719148       1.43874914       0.00440133      -0.01567805      -0.00269362
C       14.67619312      11.72601947       1.96762677       0.00465763      -0.01436862      -0.00637590
Cl       7.61039055       2.91298934       1.55675034       0.01002517       0.01203772       0.00388797
Cl       5.90745530       5.20579215       2.07011869       0.00146928       0.00600497      -0.00024562
Cl       6.71680928       4.57433130      -0.64559647       0.00534712       0.00512213       0.00101870
Cl       8.65905075       5.59923804       1.24580202       0.00009486       0.01533666       0.00063251
C        7.22356753       4.57953221       1.04837728       0.00432429       0.00974593       0.00113665
Cl      14.73279288       2.16337672       1.20537448       0.01279087      -0.01380053       0.00697207
Cl      13.30522425       1.91997771       3.66345779       0.01067638      -0.00699294       0.00803322
Cl      15.27040145       3.99274890       3.34497972       0.00174260       0.00047708      -0.00171834
Cl      16.85360455       0.42750284       4.94723358      -0.00803556      -0.00402419      -0.00271093
C       14.43546800       2.69496428       2.74861714       0.00738484      -0.00556775       0.00396204
Cl      15.04641892       7.98752587      15.95635001       0.00049984      -0.00912800      -0.01048705
Cl      12.54770537       8.17182528      17.40618262       0.00573428       0.00431697      -0.00826928
Cl      13.79857934       5.58796794      17.03351424      -0.00854322      -0.00367594      -0.00236928
Cl      12.64153628       6.94262019      14.75832332      -0.00330269      -0.00849511      -0.00462112
C       13.50419794       7.18295895      16.28296580      -0.00099723      -0.00419503      -0.00665645
Cl       5.07915740       7.66822633       4.68571423      -0.00322005       0.00714892       0.00079598
Cl       3.27430100       8.85484052       6.61389760       0.00918591       0.02083939       0.00597203
Cl       3.59013568      10.05541148       3.98193954       0.00326352       0.01182352       0.00153092
Cl       5.76130224      10.19967802       5.91727228       0.01115423       0.00762546      -0.00717753
C        4.44386271       9.20724245       5.31315731       0.00555933       0.01227672       0.00013942
Cl       8.22401594       3.00562386      13.61603988      -0.02111298       0.01319969      -0.00704432
Cl      10.22831359       3.30881369      11.55303745      -0.01901239      -0.00814897      -0.00813237
Cl       9.81741681       5.42165055      13.51107476      -0.00082859      -0.00064328      -0.01211151
Cl       7.81971855       4.92666267      11.47121788      -0.00544757       0.01223046      -0.01067418
C        9.02929590       4.16454587      12.52577183      -0.01164913       0.00416324      -0.00967878
Cl       6.18593213      14.33974882      -0.27662866      -0.00009979      -0.00634380      -0.00754306
Cl       6.10418621      12.72569256       2.12938344       0.00426722      -0.01190448      -0.01070973
Cl       6.75681809      15.54184190       2.31020928      -0.02194805      -0.00697705      -0.00181884
Cl       8.64168160      13.70313332       1.11448835      -0.00053978       0.01385383       0.00085999
C        6.93662247      14.05458696       1.33364298      -0.00502708      -0.00323083      -0.00422731
Cl       8.39662215       9.15549155      11.81235862      -0.00499034       0.00257052      -0.00401944
Cl       9.18564996      10.39783096       9.31005812      -0.01199701       0.00665057      -0.00463712
Cl      10.62934346       8.07901822      10.31129545       0.00224650       0.01645911      -0.00328501
Cl      10.89095984      10.63785665      11.64478351      -0.01526672       0.01867813      -0.00344601
C        9.77360824       9.58403754      10.75432497      -0.00759950       0.01115555      -0.00373799
Cl       1.68038182       2.05043919      14.98296517       0.00336093      -0.00602062       0.00895641
Cl       4.57194494       2.14989812      14.75270657       0.00273667      -0.00397003       0.00621424
Cl       3.29425958       2.86234042      17.25647236       0.00416915       0.00518677       0.00422442
Cl       3.05031857       4.60770483      14.95901571       0.00046596      -0.00478184      -0.00265452
C        3.14799221       2.92770339      15.48448232       0.00273943      -0.00240918       0.00422471
Cl       2.95600725      12.61185536       6.59535094      -0.00149274      -0.00749661       0.01359996
Cl       0.39730073      13.52413626       5.54993791      -0.00020978      -0.01090628       0.00835919
Cl       1.14754112      14.10866300       8.30625515      -0.00257549       0.01117387       0.00117457
Cl       0.49861270      11.39458029       7.49551156       0.00312513       0.00201112       0.02761707
C        1.27115607      12.89505312       7.03922692       0.00119331      -0.00204158       0.01135257
Cl      11.11552654      12.07533640      15.91813712       0.00170463       0.00254789       0.00003219
Cl      10.23830430       9.47125107      14.99223598       0.00083272       0.00290245      -0.00018886
Cl       8.32247659      11.59642183      15.41021542       0.00205612       0.00436158      -0.00059292
Cl       9.61672873      10.32827580      17.68383852       0.00034191       0.00404985      -0.00022712
C        9.81199185      10.85382941      15.99854827       0.00107613       0.00361378      -0.00010325
Cl       6.38178866       9.05658670       1.33467597      -0.00557028      -0.00419081      -0.00828308
Cl       5.06799823      10.53158355      -0.79550432       0.00018330      -0.00362846      -0.01127493
Cl       4.29365613       7.80481440      -0.22303715       0.00424758      -0.00648290      -0.01940745
Cl       6.86629346       8.33613538      -1.43228709       0.00802046       0.00213978      -0.00724149
C        5.65884366       8.93220448      -0.28093826       0.00181967      -0.00276294      -0.01146802
Cl       1.11009826       3.98487804      11.21849189      -0.00098401      -0.00566375      -0.01134893
Cl       1.87073796       5.95734113       9.22811835      -0.00358391       0.00927754       0.00233522
Cl       3.76122181       5.17185574      11.28117378      -0.00362140      -0.00036040      -0.00139487
Cl       1.43284716       6.75854254      11.98606026      -0.00755727      -0.01049682       0.00741491
C        2.04464318       5.46767050      10.93057567      -0.00383144      -0.00170018      -0.00060980
Cl      10.92732126      16.81930435       3.44658137      -0.01351622      -0.01172689      -0.04544447
Cl      11.37494060      13.98092125       3.34645903      -0.00091219      -0.00647509      -0.00828222
Cl      12.93793151      15.61032973       5.14929186      -0.00698194       0.03082351       0.00239253
Cl      13.37677158      15.80593551       2.27353954       0.02503881      -0.01559240       0.00963366
C       12.16021684      15.53082556       3.57054019      -0.00791222      -0.00294362      -0.01931077
Cl       3.58156152      16.72735072      -0.27576652       0.01397324       0.00897843       0.01464844
Cl       1.23231658      17.27508198       1.34774707       0.00718072      -0.00075249       0.00819484
Cl       3.85182303      17.64277958       2.48714361       0.00355628       0.00856724       0.01523364
Cl       2.93366072      14.96172305       1.93825236       0.01516197       0.00566202       0.01128177
C        2.93783341      16.65852176       1.32797282       0.01176438       0.00390941       0.01354825
Cl       2.53751796       3.40383449       3.47009268       0.00310174       0.01246941       0.01632643
Cl       3.59228353       4.33874638       5.99657011       0.00386839      -0.01416099       0.02741024
Cl       5.10617246       2.43459416       4.43304324       0.00242603       0.00724494       0.01275380
Cl       2.65961423       1.60641595       5.75161838      -0.00511068      -0.00901639      -0.00403062
C        3.48369229       2.96638171       4.90160418       0.00151989       0.00002265       0.01049978
Cl      13.26564407       6.26775519       8.18356767      -0.00099027       0.00624472       0.00683820
Cl      15.61573928       6.95695505       9.74116265       0.00043219      -0.00108445       0.00723162
Cl      15.30309001       4.26885781       8.71289513      -0.00686955       0.00013384       0.00653741
Cl      13.58904681       5.20775521      10.86211067      -0.00447625       0.00370142       0.00608948
C       14.43480519       5.67517518       9.37761199      -0.00297031       0.00238782       0.00674370
