149
Lattice="12.692670379298077 0.0 0.0 0.0 12.692670379298077 0.0 0.0 0.0 12.692670379298077" Properties=species:S:1:pos:R:3:forces:R:3 energy=-676196.5 stress="0.001579402363859117 0.00015890714712440968 -0.0011776513420045376 0.00015890714712440968 -0.0017224674811586738 0.00038329005474224687 -0.0011776513420045376 0.00038329005474224687 -0.0012426864122971892" pbc="T T T"
Ce       2.40798319      12.95620853       0.84742276      -0.00227767       0.02302324       0.02396327
Ce      -1.32893782      11.00759866       3.00793441       0.00348514      -0.02964670      -0.01539788
O        4.12152073      12.77300017      12.45512713       0.00462404      -0.00320038       0.05461882
O        7.08245020      12.63958785      12.75944877      -0.00307608       0.00549015       0.02778465
O        5.93714264      12.99570542      10.37094650      -0.01600638       0.01957846       0.03186530
O        5.63936496      10.63985901      11.56122470      -0.00356309       0.00676697       0.01395953
Cr       5.65947958      12.20719852      11.70596219      -0.00220159       0.00517023       0.02674401
O        9.04576493      11.42011056       6.73061431       0.04101837      -0.01774496      -0.03554130
O       10.95939639       9.78025084       7.44470231       0.07362223       0.02972937      -0.03473997
O       11.57116274      12.14340193       6.39799059       0.01989877       0.01535928      -0.08671131
O       10.64841260      10.25872144       4.70349224       0.02773620      -0.02013487      -0.03414989
Cr      10.52602464      10.90528283       6.40982703       0.04130322       0.00370938      -0.04303396
O        6.81308746      12.00690740       1.30914578      -0.00383553      -0.00020996       0.02577254
O        7.69222207       9.47981080       0.55110210      -0.01240188      -0.00054586       0.00571096
O        7.21832036      10.09421483       3.03409066       0.00783730      -0.00908685       0.01151538
O        9.53669509      10.96579160       1.88161506      -0.00844029       0.00284446      -0.00471962
Cr       7.87015663      10.56082634       1.67805500      -0.00342271      -0.00324583       0.00803518
O        2.77460274       8.99526477       6.50390247       0.02170980      -0.01064122       0.00601733
N        3.90735100      10.96203027       6.19020505       0.01120123      -0.00491238       0.00714865
C        2.89324151      11.80214263       6.79158189       0.00223050      -0.00988633      -0.00181791
C        5.18166651      11.57265184       5.88518804       0.00862137       0.00277695       0.01257187
C        3.76030696       9.61979396       6.14543999       0.02001464      -0.00545514       0.00950000
H        2.64575488      12.63146346       6.11971380       0.00102759      -0.01467778      -0.00752595
H        3.26186873      12.20023135       7.73886151      -0.00678945      -0.00345072      -0.00119564
H        1.99843422      11.21131081       6.97367075       0.00446042      -0.01398635      -0.00524666
H        5.02940287      12.44609919       5.23809056       0.00716711      -0.00171435       0.00734270
H        5.82269984      10.86465820       5.35987316       0.01680501       0.00473484       0.02053492
H        5.68540060      11.89271156       6.80064016      -0.00005277       0.01076189       0.01446393
H        4.65124798       9.12699990       5.71433720       0.02491111      -0.00085396       0.01539508
O       10.89180502       6.36075503       0.56587728       0.00869107       0.00780511      -0.00333369
N       11.12696619       4.27811880       1.47197432      -0.00159936       0.01351038       0.00015750
C       10.19055896       3.65675579       0.56717794       0.00446183       0.01258927      -0.00533227
C       11.67656856       3.47258086       2.52337657      -0.03905491       0.03112254       0.02262894
C       11.39991911       5.60836632       1.37285716      -0.00464407       0.01047087       0.00158972
H        9.26928195       3.37475373       1.09202898      -0.00523084       0.02587513      -0.01634037
H       10.64077433       2.77149313       0.11148231       0.00257072       0.00515705       0.01024669
H        9.95134877       4.37190541      -0.21475921       0.02159358       0.00683582      -0.01645927
H       10.90025543       3.08046766       3.18347978      -0.04317471       0.04500704       0.02108319
H       12.35683519       4.07793991       3.11582793      -0.02297097       0.00866146       0.01160318
H       12.22410387       2.61092237       2.11907153      -0.02906142       0.04131588       0.02546990
H       12.14552193       5.93413165       2.11840429      -0.01497126       0.01983726       0.00894135
O       10.71971777       0.53877869       3.27141823      -0.00275403       0.02103513      -0.03506215
N        8.61620970       1.32968638       3.67646302      -0.00123522       0.01452908      -0.00683969
C        8.69871754       1.25287655       5.12684149       0.02126720       0.01657612      -0.00832343
C        7.35360022       1.77368269       3.12304569      -0.00625616       0.01799795       0.00984411
C        9.59264383       0.94095655       2.88410624      -0.00862163       0.01617965      -0.01932192
H        7.99894669       0.50101397       5.49425520       0.02107990       0.02285361       0.00330617
H        8.44692437       2.22814946       5.54467598       0.03545888       0.02001828      -0.00715325
H        9.69734852       0.95239333       5.42757359       0.02384382       0.00953650      -0.02277598
H        6.57878071       1.06158480       3.41362746      -0.00469415       0.02316973       0.02304102
H        7.41780622       1.78595270       2.03786289      -0.01823081       0.01494265       0.00926349
H        7.11393485       2.77159155       3.49813423       0.00283009       0.02034461       0.00871632
H        9.36677929       1.00610432       1.81769764      -0.02692796       0.01271574      -0.01750267
O        1.72658917       4.43955913       1.72104397      -0.01063450      -0.08313665       0.03013337
N        3.00752845       2.56372624       2.03095189       0.01137540       0.00982258       0.01947971
C        3.79801562       2.92113986       0.83890043       0.00707322       0.01271522       0.01900470
C        3.67513369       1.81614828       3.09265353       0.01825818       0.01917343       0.02304018
C        2.12738408       3.58584718       2.45626121      -0.04677695       0.03511256      -0.03588966
H        3.60442402       2.27947754      -0.02916066      -0.00340426       0.01775858       0.01896384
H        4.85602403       2.83576643       1.07692935       0.00492412      -0.00259413       0.01281545
H        3.54298206       3.93779165       0.54932413       0.01365484       0.01612794       0.02581998
H        3.64635003       0.71791933       2.94397339       0.04687785       0.02183677       0.00561823
H        3.17660876       2.01124488       4.03906326       0.00282779      -0.00217161       0.01668996
H        4.72306781       2.09896080       3.17063084       0.00640139       0.04533994       0.03194078
H        1.85009061       3.49328764       3.51628075      -0.03156000      -0.02195788      -0.00524612
O        6.21732972       5.30315462       4.31898879      -0.02059734      -0.05974013      -0.01701057
N        4.97312000       4.77212562       6.15573890      -0.00836607      -0.01326258       0.00062858
C        5.55468273       3.45560157       6.25930791      -0.01417716      -0.01370452       0.02168088
C        3.77788842       5.05306459       6.92158777      -0.00084484       0.00806946       0.00322003
C        5.38433620       5.60030344       5.16356890      -0.01115161      -0.03429081      -0.01564234
H        4.88714082       2.68277677       5.86036999      -0.01510864      -0.01749420       0.03130817
H        5.76723789       3.21385887       7.30150694      -0.02026102       0.00354252       0.02602667
H        6.47793583       3.45429211       5.68686768      -0.01119304      -0.02812974       0.02716459
H        2.95495585       4.40585430       6.59862176      -0.00997379       0.01392668       0.01514417
H        3.47654948       6.08918643       6.77108523       0.00820794       0.00888127      -0.00653730
H        3.95517056       4.87776013       7.98470865       0.00423216       0.01772502       0.00338346
H        4.88387088       6.57895475       5.20345710      -0.00469658      -0.03074872      -0.02884521
O       12.54005134       2.93257100      11.00468562      -0.01147664      -0.01119530       0.00367129
N       11.38459908       1.86219938       9.34184694       0.00100823      -0.01052883      -0.00805295
C       11.78361915       0.51936811       9.71632337      -0.00229622      -0.01135615      -0.00862101
C       10.54645081       1.96742869       8.16761771       0.00922658      -0.00757140      -0.01367775
C       11.80747262       2.94561437      10.02142788      -0.00792992      -0.01046161      -0.00607741
H       12.22040282       0.00964182       8.85643844       0.00059380      -0.01171868      -0.00706273
H       10.91754518      -0.05909852      10.04771462      -0.00479487      -0.01057294      -0.01350023
H       12.50332329       0.58889487      10.52394686      -0.00346899      -0.01462303      -0.00717765
H       11.03871183       1.49111097       7.31803246       0.01351681      -0.00784531      -0.01121730
H       10.35474742       3.01777349       7.95415489       0.01558996      -0.00627252      -0.01293761
H        9.59577789       1.44961865       8.32685272       0.00546250      -0.00327079      -0.02071539
H       11.41659885       3.88998709       9.60637150      -0.00486070      -0.01151264      -0.00609238
O        8.78058081       5.84037436      10.44955593       0.01405430      -0.01058728      -0.01126486
N        7.49945128       4.05624258      11.07241090       0.00841076      -0.00406677      -0.00420395
C        8.04979110       3.15774592      10.08435498       0.00392088      -0.00884129      -0.00240918
C        6.52297392       3.51059758      11.97321369       0.00951593       0.00130784       0.00051379
C        7.95080551       5.33133777      11.17885169       0.01248443      -0.00571531      -0.00839287
H        7.25139306       2.71445077       9.48575404       0.00070271      -0.01302662       0.00576267
H        8.59738395       2.34409151      10.56970615       0.00803925      -0.00526527      -0.00097486
H        8.72636394       3.72446995       9.45365052      -0.00058067      -0.01213357      -0.00997654
H        5.64555903       3.15932236      11.41993376       0.00425652       0.00770812       0.00523494
H        6.22343482       4.27712739      12.68706173       0.01864912       0.00289340       0.00247632
H        6.93169181       2.65139111      12.51590423       0.00771408      -0.00156134      -0.00282376
H        7.47769546       5.87575377      12.01390512       0.01566976      -0.00084496      -0.01017857
O        8.56213154       7.76257267       5.30214760      -0.00600576      -0.01179937      -0.00980401
N        9.87935687       6.57118946       6.73839225      -0.00803697      -0.00405574      -0.00053158
C        8.81156838       5.69021247       7.14843573      -0.00565779      -0.00546641      -0.00160058
C       11.13877883       6.48354074       7.44242646      -0.00828978      -0.00069169       0.00103593
C        9.64452232       7.53346804       5.81433946      -0.00812244      -0.00798270      -0.00289786
H        8.62354581       5.79099390       8.21961254      -0.01220835       0.00198486      -0.00514007
H        9.07871274       4.64786421       6.93745009       0.00113995      -0.00430223      -0.00070358
H        7.92627337       5.94611307       6.56923065      -0.00326931      -0.01236159      -0.00523186
H       10.97818097       6.60854439       8.51631579      -0.00829564       0.00251912       0.00038826
H       11.80230438       7.27734760       7.10479307      -0.00755766      -0.00277489      -0.00294283
H       11.62397555       5.51649098       7.26859363      -0.00865076      -0.00173929       0.00776885
H       10.55380466       8.09652576       5.56138535      -0.00970155      -0.00335431      -0.00018832
O        2.99973260       6.72055589       3.45379268       0.01003623      -0.00916226      -0.01823843
N        3.79586346       7.05420444       1.32777075       0.00192527      -0.03090098      -0.02369502
C        2.49228547       7.14139241       0.69262254      -0.00116216      -0.03152922      -0.01690798
C        4.97704310       7.18886661       0.49782504      -0.00419849      -0.01271606      -0.02835432
C        3.92347679       6.85740328       2.66293263       0.00819314      -0.01317659      -0.02277315
H        2.30853492       6.28244859       0.04708860      -0.00843299      -0.03500757      -0.00982966
H        2.43203053       8.04742957       0.08798256      -0.00061258      -0.03497812      -0.02174288
H        1.72611440       7.17118889       1.46237184       0.00314048      -0.02496365      -0.01312092
H        5.04011171       6.36544352      -0.21992202      -0.00216113      -0.00421733      -0.03737108
H        5.86518555       7.18470588       1.12887322       0.00013836      -0.01235608      -0.03496848
H        4.97090589       8.12826588      -0.06165673      -0.01610196      -0.00693300      -0.01786011
H        4.97953066       6.83562577       2.97357247       0.00869083      -0.00354611      -0.02542856
O        4.76578637      10.64591917       8.88169112      -0.00225990       0.00666356       0.00984177
N        5.80651099       8.60775840       8.93410220      -0.00109172       0.00749489       0.00227224
C        7.15334978       9.10325329       8.70421418      -0.00354782       0.00850825      -0.00561113
C        5.66276324       7.19333795       9.17457016       0.00118961       0.00631765      -0.00390089
C        4.74688253       9.43470801       9.02998291      -0.00096168       0.00703597       0.00991014
H        7.56988041       8.66336985       7.79465812      -0.00930563       0.01102588      -0.00947767
H        7.79240607       8.83857794       9.54995456       0.00275855       0.00538321      -0.01155409
H        7.12100786      10.18330904       8.59573348      -0.00440933       0.00882035      -0.00251492
H        6.08913214       6.61585827       8.34946778      -0.00526537       0.01046756      -0.01021054
H        4.60512311       6.94868659       9.26816036       0.00213513       0.00581957       0.00308003
H        6.18324215       6.90294520      10.09057214       0.00857879       0.00156054      -0.00999388
H        3.81277377       8.88795078       9.24843707       0.00117934       0.00628543       0.01718026
O        0.23623264       9.97637772       1.88534463      -0.00781587       0.00588506      -0.01390946
N        2.46356933      10.88289271       1.99568591      -0.00675502       0.00309558       0.00885995
C        2.59292843      10.48437201       3.39545431      -0.01570282       0.02235422       0.01327181
C        3.50954588      10.25867365       1.16807435      -0.01235479      -0.02373770       0.02548185
C        1.05716065      10.96622435       1.50508841       0.00409326       0.00978112      -0.00231326
H        3.44919648      10.98325869       3.84327207       0.01418054      -0.03052720      -0.00050348
H        2.73192060       9.40234904       3.48200820      -0.08432596       0.02522153       0.03516386
H        1.69567791      10.75802979       3.95300996       0.01655382       0.08303434       0.01292994
H        4.46729512      10.75655514       1.34376104      -0.00455040      -0.04906377       0.04278161
H        3.27576528      10.35905998       0.10542828       0.00653124      -0.01805934       0.02337641
H        3.62457822       9.20854780       1.41480359      -0.04427326      -0.02450374       0.02742565
H        1.13671571      10.99801166       0.36566801       0.01414926       0.00627097       0.00304689
